model_files/PdCu/PdCu_30000/PdCu_441/PdCu_441_fcc_30129_temp.data (written by ASE) 

30129 	 atoms 
2  atom types
0.0                     120  xlo xhi
0.0                     120  ylo yhi
0.0                     120  zlo zhi


Atoms 

     1   1      1.8875000000000099       58.51250000000001      60.400000000000006
     2   1      1.8875000000000099      60.400000000000006       58.51250000000001
     3   1  7.1054273576010019e-15      60.400000000000006      60.400000000000006
     4   1      1.8875000000000099      60.400000000000006      62.287500000000009
     5   1      1.8875000000000099      62.287500000000009      60.400000000000006
     6   1      5.6625000000000085      54.737500000000011      60.400000000000006
     7   1      3.7750000000000057       58.51250000000001       58.51250000000001
     8   1      5.6625000000000085      56.625000000000007       58.51250000000001
     9   1      5.6625000000000085       58.51250000000001      56.625000000000007
    10   1      3.7750000000000057      56.625000000000007      60.400000000000006
    11   1      3.7750000000000057       58.51250000000001      62.287500000000009
    12   1      5.6625000000000085      56.625000000000007      62.287500000000009
    13   1      5.6625000000000085       58.51250000000001      60.400000000000006
    14   1      5.6625000000000085       58.51250000000001      64.175000000000011
    15   1      5.6625000000000085      60.400000000000006      54.737500000000011
    16   1      3.7750000000000057      60.400000000000006      56.625000000000007
    17   1      3.7750000000000057      62.287500000000009       58.51250000000001
    18   1      5.6625000000000085      60.400000000000006       58.51250000000001
    19   1      5.6625000000000085      62.287500000000009      56.625000000000007
    20   1      3.7750000000000057      60.400000000000006      60.400000000000006
    21   1      3.7750000000000057      62.287500000000009      62.287500000000009
    22   1      5.6625000000000085      60.400000000000006      62.287500000000009
    23   1      5.6625000000000085      62.287500000000009      60.400000000000006
    24   1      3.7750000000000057      60.400000000000006      64.175000000000011
    25   1      5.6625000000000085      60.400000000000006      66.062500000000014
    26   1      5.6625000000000085      62.287500000000009      64.175000000000011
    27   1      5.6625000000000085      64.175000000000011       58.51250000000001
    28   1      3.7750000000000057      64.175000000000011      60.400000000000006
    29   1      5.6625000000000085      64.175000000000011      62.287500000000009
    30   1      5.6625000000000085      66.062500000000014      60.400000000000006
    31   1      9.4375000000000071      50.962500000000013      60.400000000000006
    32   1      7.5500000000000114      54.737500000000011      54.737500000000011
    33   1      9.4375000000000071      52.850000000000009      54.737500000000011
    34   1      9.4375000000000071      54.737500000000011      52.850000000000009
    35   1      7.5500000000000114      54.737500000000011       58.51250000000001
    36   1      9.4375000000000071      52.850000000000009       58.51250000000001
    37   1      9.4375000000000071      54.737500000000011      56.625000000000007
    38   1      7.5500000000000114      52.850000000000009      60.400000000000006
    39   1      7.5500000000000114      54.737500000000011      62.287500000000009
    40   1      9.4375000000000071      52.850000000000009      62.287500000000009
    41   1      9.4375000000000071      54.737500000000011      60.400000000000006
    42   1      7.5500000000000114      54.737500000000011      66.062500000000014
    43   1      9.4375000000000071      52.850000000000009      66.062500000000014
    44   1      9.4375000000000071      54.737500000000011      64.175000000000011
    45   1      9.4375000000000071      54.737500000000011      67.950000000000003
    46   1      7.5500000000000114       58.51250000000001      54.737500000000011
    47   1      9.4375000000000071      56.625000000000007      54.737500000000011
    48   1      9.4375000000000071       58.51250000000001      52.850000000000009
    49   1      7.5500000000000114      56.625000000000007      56.625000000000007
    50   1      7.5500000000000114       58.51250000000001       58.51250000000001
    51   1      9.4375000000000071      56.625000000000007       58.51250000000001
    52   1      9.4375000000000071       58.51250000000001      56.625000000000007
    53   1      7.5500000000000114      56.625000000000007      60.400000000000006
    54   1      7.5500000000000114       58.51250000000001      62.287500000000009
    55   1      9.4375000000000071      56.625000000000007      62.287500000000009
    56   1      9.4375000000000071       58.51250000000001      60.400000000000006
    57   1      7.5500000000000114      56.625000000000007      64.175000000000011
    58   1      7.5500000000000114       58.51250000000001      66.062500000000014
    59   1      9.4375000000000071      56.625000000000007      66.062500000000014
    60   1      9.4375000000000071       58.51250000000001      64.175000000000011
    61   1      9.4375000000000071       58.51250000000001      67.950000000000003
    62   1      9.4375000000000071      60.400000000000006      50.962500000000013
    63   1      7.5500000000000114      60.400000000000006      52.850000000000009
    64   1      7.5500000000000114      62.287500000000009      54.737500000000011
    65   1      9.4375000000000071      60.400000000000006      54.737500000000011
    66   1      9.4375000000000071      62.287500000000009      52.850000000000009
    67   1      7.5500000000000114      60.400000000000006      56.625000000000007
    68   1      7.5500000000000114      62.287500000000009       58.51250000000001
    69   1      9.4375000000000071      60.400000000000006       58.51250000000001
    70   1      9.4375000000000071      62.287500000000009      56.625000000000007
    71   1      7.5500000000000114      60.400000000000006      60.400000000000006
    72   1      7.5500000000000114      62.287500000000009      62.287500000000009
    73   1      9.4375000000000071      60.400000000000006      62.287500000000009
    74   1      9.4375000000000071      62.287500000000009      60.400000000000006
    75   1      7.5500000000000114      60.400000000000006      64.175000000000011
    76   1      7.5500000000000114      62.287500000000009      66.062500000000014
    77   1      9.4375000000000071      60.400000000000006      66.062500000000014
    78   1      9.4375000000000071      62.287500000000009      64.175000000000011
    79   1      7.5500000000000114      60.400000000000006      67.950000000000003
    80   1      9.4375000000000071      60.400000000000006      69.837500000000006
    81   1      9.4375000000000071      62.287500000000009      67.950000000000003
    82   1      7.5500000000000114      66.062500000000014      54.737500000000011
    83   1      9.4375000000000071      64.175000000000011      54.737500000000011
    84   1      9.4375000000000071      66.062500000000014      52.850000000000009
    85   1      7.5500000000000114      64.175000000000011      56.625000000000007
    86   1      7.5500000000000114      66.062500000000014       58.51250000000001
    87   1      9.4375000000000071      64.175000000000011       58.51250000000001
    88   1      9.4375000000000071      66.062500000000014      56.625000000000007
    89   1      7.5500000000000114      64.175000000000011      60.400000000000006
    90   1      7.5500000000000114      66.062500000000014      62.287500000000009
    91   1      9.4375000000000071      64.175000000000011      62.287500000000009
    92   1      9.4375000000000071      66.062500000000014      60.400000000000006
    93   1      7.5500000000000114      64.175000000000011      64.175000000000011
    94   1      7.5500000000000114      66.062500000000014      66.062500000000014
    95   1      9.4375000000000071      64.175000000000011      66.062500000000014
    96   1      9.4375000000000071      66.062500000000014      64.175000000000011
    97   1      9.4375000000000071      66.062500000000014      67.950000000000003
    98   1      9.4375000000000071      67.950000000000003      54.737500000000011
    99   1      9.4375000000000071      67.950000000000003       58.51250000000001
   100   1      7.5500000000000114      67.950000000000003      60.400000000000006
   101   1      9.4375000000000071      67.950000000000003      62.287500000000009
   102   1      9.4375000000000071      69.837500000000006      60.400000000000006
   103   1      9.4375000000000071      67.950000000000003      66.062500000000014
   104   1      13.212500000000006      47.187500000000007      60.400000000000006
   105   1       11.32500000000001      50.962500000000013      50.962500000000013
   106   1      13.212500000000006       49.07500000000001      50.962500000000013
   107   1      13.212500000000006      50.962500000000013       49.07500000000001
   108   1       11.32500000000001      50.962500000000013      54.737500000000011
   109   1      13.212500000000006       49.07500000000001      54.737500000000011
   110   1      13.212500000000006      50.962500000000013      52.850000000000009
   111   1       11.32500000000001      50.962500000000013       58.51250000000001
   112   1      13.212500000000006       49.07500000000001       58.51250000000001
   113   1      13.212500000000006      50.962500000000013      56.625000000000007
   114   1       11.32500000000001       49.07500000000001      60.400000000000006
   115   1       11.32500000000001      50.962500000000013      62.287500000000009
   116   1      13.212500000000006       49.07500000000001      62.287500000000009
   117   1      13.212500000000006      50.962500000000013      60.400000000000006
   118   1       11.32500000000001      50.962500000000013      66.062500000000014
   119   1      13.212500000000006       49.07500000000001      66.062500000000014
   120   1      13.212500000000006      50.962500000000013      64.175000000000011
   121   1       11.32500000000001      50.962500000000013      69.837500000000006
   122   1      13.212500000000006       49.07500000000001      69.837500000000006
   123   1      13.212500000000006      50.962500000000013      67.950000000000003
   124   1      13.212500000000006      50.962500000000013      71.725000000000009
   125   1       11.32500000000001      54.737500000000011      50.962500000000013
   126   1      13.212500000000006      52.850000000000009      50.962500000000013
   127   1      13.212500000000006      54.737500000000011       49.07500000000001
   128   1       11.32500000000001      52.850000000000009      52.850000000000009
   129   1       11.32500000000001      54.737500000000011      54.737500000000011
   130   1      13.212500000000006      52.850000000000009      54.737500000000011
   131   1      13.212500000000006      54.737500000000011      52.850000000000009
   132   1       11.32500000000001      52.850000000000009      56.625000000000007
   133   1       11.32500000000001      54.737500000000011       58.51250000000001
   134   1      13.212500000000006      52.850000000000009       58.51250000000001
   135   1      13.212500000000006      54.737500000000011      56.625000000000007
   136   1       11.32500000000001      52.850000000000009      60.400000000000006
   137   1       11.32500000000001      54.737500000000011      62.287500000000009
   138   1      13.212500000000006      52.850000000000009      62.287500000000009
   139   1      13.212500000000006      54.737500000000011      60.400000000000006
   140   1       11.32500000000001      52.850000000000009      64.175000000000011
   141   1       11.32500000000001      54.737500000000011      66.062500000000014
   142   1      13.212500000000006      52.850000000000009      66.062500000000014
   143   1      13.212500000000006      54.737500000000011      64.175000000000011
   144   1       11.32500000000001      52.850000000000009      67.950000000000003
   145   1       11.32500000000001      54.737500000000011      69.837500000000006
   146   1      13.212500000000006      52.850000000000009      69.837500000000006
   147   1      13.212500000000006      54.737500000000011      67.950000000000003
   148   1      13.212500000000006      54.737500000000011      71.725000000000009
   149   1       11.32500000000001       58.51250000000001      50.962500000000013
   150   1      13.212500000000006      56.625000000000007      50.962500000000013
   151   1      13.212500000000006       58.51250000000001       49.07500000000001
   152   1       11.32500000000001      56.625000000000007      52.850000000000009
   153   1       11.32500000000001       58.51250000000001      54.737500000000011
   154   1      13.212500000000006      56.625000000000007      54.737500000000011
   155   1      13.212500000000006       58.51250000000001      52.850000000000009
   156   1       11.32500000000001      56.625000000000007      56.625000000000007
   157   1       11.32500000000001       58.51250000000001       58.51250000000001
   158   1      13.212500000000006      56.625000000000007       58.51250000000001
   159   1      13.212500000000006       58.51250000000001      56.625000000000007
   160   1       11.32500000000001      56.625000000000007      60.400000000000006
   161   1       11.32500000000001       58.51250000000001      62.287500000000009
   162   1      13.212500000000006      56.625000000000007      62.287500000000009
   163   1      13.212500000000006       58.51250000000001      60.400000000000006
   164   1       11.32500000000001      56.625000000000007      64.175000000000011
   165   1       11.32500000000001       58.51250000000001      66.062500000000014
   166   1      13.212500000000006      56.625000000000007      66.062500000000014
   167   1      13.212500000000006       58.51250000000001      64.175000000000011
   168   1       11.32500000000001      56.625000000000007      67.950000000000003
   169   1       11.32500000000001       58.51250000000001      69.837500000000006
   170   1      13.212500000000006      56.625000000000007      69.837500000000006
   171   1      13.212500000000006       58.51250000000001      67.950000000000003
   172   1      13.212500000000006       58.51250000000001      71.725000000000009
   173   1      13.212500000000006      60.400000000000006      47.187500000000007
   174   1       11.32500000000001      60.400000000000006       49.07500000000001
   175   1       11.32500000000001      62.287500000000009      50.962500000000013
   176   1      13.212500000000006      60.400000000000006      50.962500000000013
   177   1      13.212500000000006      62.287500000000009       49.07500000000001
   178   1       11.32500000000001      60.400000000000006      52.850000000000009
   179   1       11.32500000000001      62.287500000000009      54.737500000000011
   180   1      13.212500000000006      60.400000000000006      54.737500000000011
   181   1      13.212500000000006      62.287500000000009      52.850000000000009
   182   1       11.32500000000001      60.400000000000006      56.625000000000007
   183   1       11.32500000000001      62.287500000000009       58.51250000000001
   184   1      13.212500000000006      60.400000000000006       58.51250000000001
   185   1      13.212500000000006      62.287500000000009      56.625000000000007
   186   1       11.32500000000001      60.400000000000006      60.400000000000006
   187   1       11.32500000000001      62.287500000000009      62.287500000000009
   188   1      13.212500000000006      60.400000000000006      62.287500000000009
   189   1      13.212500000000006      62.287500000000009      60.400000000000006
   190   1       11.32500000000001      60.400000000000006      64.175000000000011
   191   1       11.32500000000001      62.287500000000009      66.062500000000014
   192   1      13.212500000000006      60.400000000000006      66.062500000000014
   193   1      13.212500000000006      62.287500000000009      64.175000000000011
   194   1       11.32500000000001      60.400000000000006      67.950000000000003
   195   1       11.32500000000001      62.287500000000009      69.837500000000006
   196   1      13.212500000000006      60.400000000000006      69.837500000000006
   197   1      13.212500000000006      62.287500000000009      67.950000000000003
   198   1       11.32500000000001      60.400000000000006      71.725000000000009
   199   1      13.212500000000006      60.400000000000006      73.612500000000011
   200   1      13.212500000000006      62.287500000000009      71.725000000000009
   201   1       11.32500000000001      66.062500000000014      50.962500000000013
   202   1      13.212500000000006      64.175000000000011      50.962500000000013
   203   1      13.212500000000006      66.062500000000014       49.07500000000001
   204   1       11.32500000000001      64.175000000000011      52.850000000000009
   205   1       11.32500000000001      66.062500000000014      54.737500000000011
   206   1      13.212500000000006      64.175000000000011      54.737500000000011
   207   1      13.212500000000006      66.062500000000014      52.850000000000009
   208   1       11.32500000000001      64.175000000000011      56.625000000000007
   209   1       11.32500000000001      66.062500000000014       58.51250000000001
   210   1      13.212500000000006      64.175000000000011       58.51250000000001
   211   1      13.212500000000006      66.062500000000014      56.625000000000007
   212   1       11.32500000000001      64.175000000000011      60.400000000000006
   213   1       11.32500000000001      66.062500000000014      62.287500000000009
   214   1      13.212500000000006      64.175000000000011      62.287500000000009
   215   1      13.212500000000006      66.062500000000014      60.400000000000006
   216   1       11.32500000000001      64.175000000000011      64.175000000000011
   217   1       11.32500000000001      66.062500000000014      66.062500000000014
   218   1      13.212500000000006      64.175000000000011      66.062500000000014
   219   1      13.212500000000006      66.062500000000014      64.175000000000011
   220   1       11.32500000000001      64.175000000000011      67.950000000000003
   221   1       11.32500000000001      66.062500000000014      69.837500000000006
   222   1      13.212500000000006      64.175000000000011      69.837500000000006
   223   1      13.212500000000006      66.062500000000014      67.950000000000003
   224   1      13.212500000000006      66.062500000000014      71.725000000000009
   225   1       11.32500000000001      69.837500000000006      50.962500000000013
   226   1      13.212500000000006      67.950000000000003      50.962500000000013
   227   1      13.212500000000006      69.837500000000006       49.07500000000001
   228   1       11.32500000000001      67.950000000000003      52.850000000000009
   229   1       11.32500000000001      69.837500000000006      54.737500000000011
   230   1      13.212500000000006      67.950000000000003      54.737500000000011
   231   1      13.212500000000006      69.837500000000006      52.850000000000009
   232   1       11.32500000000001      67.950000000000003      56.625000000000007
   233   1       11.32500000000001      69.837500000000006       58.51250000000001
   234   1      13.212500000000006      67.950000000000003       58.51250000000001
   235   1      13.212500000000006      69.837500000000006      56.625000000000007
   236   1       11.32500000000001      67.950000000000003      60.400000000000006
   237   1       11.32500000000001      69.837500000000006      62.287500000000009
   238   1      13.212500000000006      67.950000000000003      62.287500000000009
   239   1      13.212500000000006      69.837500000000006      60.400000000000006
   240   1       11.32500000000001      67.950000000000003      64.175000000000011
   241   1       11.32500000000001      69.837500000000006      66.062500000000014
   242   1      13.212500000000006      67.950000000000003      66.062500000000014
   243   1      13.212500000000006      69.837500000000006      64.175000000000011
   244   1       11.32500000000001      67.950000000000003      67.950000000000003
   245   1       11.32500000000001      69.837500000000006      69.837500000000006
   246   1      13.212500000000006      67.950000000000003      69.837500000000006
   247   1      13.212500000000006      69.837500000000006      67.950000000000003
   248   1      13.212500000000006      69.837500000000006      71.725000000000009
   249   1      13.212500000000006      71.725000000000009      50.962500000000013
   250   1      13.212500000000006      71.725000000000009      54.737500000000011
   251   1      13.212500000000006      71.725000000000009       58.51250000000001
   252   1       11.32500000000001      71.725000000000009      60.400000000000006
   253   1      13.212500000000006      71.725000000000009      62.287500000000009
   254   1      13.212500000000006      73.612500000000011      60.400000000000006
   255   1      13.212500000000006      71.725000000000009      66.062500000000014
   256   1      13.212500000000006      71.725000000000009      69.837500000000006
   257   1      16.987500000000011      43.412500000000009      60.400000000000006
   258   1      15.100000000000009      47.187500000000007      50.962500000000013
   259   1      16.987500000000011      45.300000000000004      50.962500000000013
   260   1      16.987500000000011      47.187500000000007       49.07500000000001
   261   1      15.100000000000009      47.187500000000007      54.737500000000011
   262   1      16.987500000000011      45.300000000000004      54.737500000000011
   263   1      16.987500000000011      47.187500000000007      52.850000000000009
   264   1      15.100000000000009      47.187500000000007       58.51250000000001
   265   1      16.987500000000011      45.300000000000004       58.51250000000001
   266   1      16.987500000000011      47.187500000000007      56.625000000000007
   267   1      15.100000000000009      45.300000000000004      60.400000000000006
   268   1      15.100000000000009      47.187500000000007      62.287500000000009
   269   1      16.987500000000011      45.300000000000004      62.287500000000009
   270   1      16.987500000000011      47.187500000000007      60.400000000000006
   271   1      15.100000000000009      47.187500000000007      66.062500000000014
   272   1      16.987500000000011      45.300000000000004      66.062500000000014
   273   1      16.987500000000011      47.187500000000007      64.175000000000011
   274   1      15.100000000000009      47.187500000000007      69.837500000000006
   275   1      16.987500000000011      45.300000000000004      69.837500000000006
   276   1      16.987500000000011      47.187500000000007      67.950000000000003
   277   1      16.987500000000011      47.187500000000007      71.725000000000009
   278   1      15.100000000000009      50.962500000000013      47.187500000000007
   279   1      16.987500000000011       49.07500000000001      47.187500000000007
   280   1      16.987500000000011      50.962500000000013      45.300000000000004
   281   1      15.100000000000009       49.07500000000001       49.07500000000001
   282   1      15.100000000000009      50.962500000000013      50.962500000000013
   283   1      16.987500000000011       49.07500000000001      50.962500000000013
   284   1      16.987500000000011      50.962500000000013       49.07500000000001
   285   1      15.100000000000009       49.07500000000001      52.850000000000009
   286   1      15.100000000000009      50.962500000000013      54.737500000000011
   287   1      16.987500000000011       49.07500000000001      54.737500000000011
   288   1      16.987500000000011      50.962500000000013      52.850000000000009
   289   1      15.100000000000009       49.07500000000001      56.625000000000007
   290   1      15.100000000000009      50.962500000000013       58.51250000000001
   291   1      16.987500000000011       49.07500000000001       58.51250000000001
   292   1      16.987500000000011      50.962500000000013      56.625000000000007
   293   1      15.100000000000009       49.07500000000001      60.400000000000006
   294   1      15.100000000000009      50.962500000000013      62.287500000000009
   295   1      16.987500000000011       49.07500000000001      62.287500000000009
   296   1      16.987500000000011      50.962500000000013      60.400000000000006
   297   1      15.100000000000009       49.07500000000001      64.175000000000011
   298   1      15.100000000000009      50.962500000000013      66.062500000000014
   299   1      16.987500000000011       49.07500000000001      66.062500000000014
   300   1      16.987500000000011      50.962500000000013      64.175000000000011
   301   1      15.100000000000009       49.07500000000001      67.950000000000003
   302   1      15.100000000000009      50.962500000000013      69.837500000000006
   303   1      16.987500000000011       49.07500000000001      69.837500000000006
   304   1      16.987500000000011      50.962500000000013      67.950000000000003
   305   1      15.100000000000009       49.07500000000001      71.725000000000009
   306   1      15.100000000000009      50.962500000000013      73.612500000000011
   307   1      16.987500000000011       49.07500000000001      73.612500000000011
   308   1      16.987500000000011      50.962500000000013      71.725000000000009
   309   1      16.987500000000011      50.962500000000013                    75.5
   310   1      15.100000000000009      54.737500000000011      47.187500000000007
   311   1      16.987500000000011      52.850000000000009      47.187500000000007
   312   1      16.987500000000011      54.737500000000011      45.300000000000004
   313   1      15.100000000000009      52.850000000000009       49.07500000000001
   314   1      15.100000000000009      54.737500000000011      50.962500000000013
   315   1      16.987500000000011      52.850000000000009      50.962500000000013
   316   1      16.987500000000011      54.737500000000011       49.07500000000001
   317   1      15.100000000000009      52.850000000000009      52.850000000000009
   318   1      15.100000000000009      54.737500000000011      54.737500000000011
   319   1      16.987500000000011      52.850000000000009      54.737500000000011
   320   1      16.987500000000011      54.737500000000011      52.850000000000009
   321   1      15.100000000000009      52.850000000000009      56.625000000000007
   322   1      15.100000000000009      54.737500000000011       58.51250000000001
   323   1      16.987500000000011      52.850000000000009       58.51250000000001
   324   1      16.987500000000011      54.737500000000011      56.625000000000007
   325   1      15.100000000000009      52.850000000000009      60.400000000000006
   326   1      15.100000000000009      54.737500000000011      62.287500000000009
   327   1      16.987500000000011      52.850000000000009      62.287500000000009
   328   1      16.987500000000011      54.737500000000011      60.400000000000006
   329   1      15.100000000000009      52.850000000000009      64.175000000000011
   330   1      15.100000000000009      54.737500000000011      66.062500000000014
   331   1      16.987500000000011      52.850000000000009      66.062500000000014
   332   1      16.987500000000011      54.737500000000011      64.175000000000011
   333   1      15.100000000000009      52.850000000000009      67.950000000000003
   334   1      15.100000000000009      54.737500000000011      69.837500000000006
   335   1      16.987500000000011      52.850000000000009      69.837500000000006
   336   1      16.987500000000011      54.737500000000011      67.950000000000003
   337   1      15.100000000000009      52.850000000000009      71.725000000000009
   338   1      15.100000000000009      54.737500000000011      73.612500000000011
   339   1      16.987500000000011      52.850000000000009      73.612500000000011
   340   1      16.987500000000011      54.737500000000011      71.725000000000009
   341   1      16.987500000000011      54.737500000000011                    75.5
   342   1      15.100000000000009       58.51250000000001      47.187500000000007
   343   1      16.987500000000011      56.625000000000007      47.187500000000007
   344   1      16.987500000000011       58.51250000000001      45.300000000000004
   345   1      15.100000000000009      56.625000000000007       49.07500000000001
   346   1      15.100000000000009       58.51250000000001      50.962500000000013
   347   1      16.987500000000011      56.625000000000007      50.962500000000013
   348   1      16.987500000000011       58.51250000000001       49.07500000000001
   349   1      15.100000000000009      56.625000000000007      52.850000000000009
   350   1      15.100000000000009       58.51250000000001      54.737500000000011
   351   1      16.987500000000011      56.625000000000007      54.737500000000011
   352   1      16.987500000000011       58.51250000000001      52.850000000000009
   353   1      15.100000000000009      56.625000000000007      56.625000000000007
   354   1      15.100000000000009       58.51250000000001       58.51250000000001
   355   1      16.987500000000011      56.625000000000007       58.51250000000001
   356   1      16.987500000000011       58.51250000000001      56.625000000000007
   357   1      15.100000000000009      56.625000000000007      60.400000000000006
   358   1      15.100000000000009       58.51250000000001      62.287500000000009