model_files/Au/Au_30000/Au_331/data.Au_331_fcc_30729 (written by ASE) 

30729 	 atoms 
1  atom types
0.0                     130  xlo xhi
0.0                     130  ylo yhi
0.0                     130  zlo zhi


Atoms 

     1   1      2.0400000000000138      63.240000000000023      65.280000000000015
     2   1      2.0400000000000138      65.280000000000015      63.240000000000023
     3   1  1.4210854715202004e-14      65.280000000000015      65.280000000000015
     4   1      2.0400000000000138      65.280000000000015      67.320000000000022
     5   1      2.0400000000000138      67.320000000000022      65.280000000000015
     6   1      6.1200000000000188      59.160000000000025      61.200000000000024
     7   1      6.1200000000000188      59.160000000000025      65.280000000000015
     8   1      6.1200000000000188      59.160000000000025      69.360000000000014
     9   1      6.1200000000000188      61.200000000000024      59.160000000000025
    10   1      4.0800000000000125      61.200000000000024      61.200000000000024
    11   1      4.0800000000000125      63.240000000000023      63.240000000000023
    12   1      6.1200000000000188      61.200000000000024      63.240000000000023
    13   1      6.1200000000000188      63.240000000000023      61.200000000000024
    14   1      4.0800000000000125      61.200000000000024      65.280000000000015
    15   1      4.0800000000000125      63.240000000000023      67.320000000000022
    16   1      6.1200000000000188      61.200000000000024      67.320000000000022
    17   1      6.1200000000000188      63.240000000000023      65.280000000000015
    18   1      4.0800000000000125      61.200000000000024      69.360000000000014
    19   1      6.1200000000000188      61.200000000000024       71.40000000000002
    20   1      6.1200000000000188      63.240000000000023      69.360000000000014
    21   1      6.1200000000000188      65.280000000000015      59.160000000000025
    22   1      4.0800000000000125      65.280000000000015      61.200000000000024
    23   1      4.0800000000000125      67.320000000000022      63.240000000000023
    24   1      6.1200000000000188      65.280000000000015      63.240000000000023
    25   1      6.1200000000000188      67.320000000000022      61.200000000000024
    26   1      4.0800000000000125      65.280000000000015      65.280000000000015
    27   1      4.0800000000000125      67.320000000000022      67.320000000000022
    28   1      6.1200000000000188      65.280000000000015      67.320000000000022
    29   1      6.1200000000000188      67.320000000000022      65.280000000000015
    30   1      4.0800000000000125      65.280000000000015      69.360000000000014
    31   1      6.1200000000000188      65.280000000000015       71.40000000000002
    32   1      6.1200000000000188      67.320000000000022      69.360000000000014
    33   1      6.1200000000000188      69.360000000000014      59.160000000000025
    34   1      4.0800000000000125      69.360000000000014      61.200000000000024
    35   1      6.1200000000000188      69.360000000000014      63.240000000000023
    36   1      6.1200000000000188       71.40000000000002      61.200000000000024
    37   1      4.0800000000000125      69.360000000000014      65.280000000000015
    38   1      6.1200000000000188      69.360000000000014      67.320000000000022
    39   1      6.1200000000000188       71.40000000000002      65.280000000000015
    40   1      4.0800000000000125      69.360000000000014      69.360000000000014
    41   1      6.1200000000000188      69.360000000000014       71.40000000000002
    42   1      6.1200000000000188       71.40000000000002      69.360000000000014
    43   1      10.200000000000017       55.08000000000002      61.200000000000024
    44   1      10.200000000000017       55.08000000000002      65.280000000000015
    45   1      10.200000000000017       55.08000000000002      69.360000000000014
    46   1      8.1600000000000179      59.160000000000025      59.160000000000025
    47   1      10.200000000000017      57.120000000000019      59.160000000000025
    48   1      10.200000000000017      59.160000000000025      57.120000000000019
    49   1      8.1600000000000179      57.120000000000019      61.200000000000024
    50   1      8.1600000000000179      59.160000000000025      63.240000000000023
    51   1      10.200000000000017      57.120000000000019      63.240000000000023
    52   1      10.200000000000017      59.160000000000025      61.200000000000024
    53   1      8.1600000000000179      57.120000000000019      65.280000000000015
    54   1      8.1600000000000179      59.160000000000025      67.320000000000022
    55   1      10.200000000000017      57.120000000000019      67.320000000000022
    56   1      10.200000000000017      59.160000000000025      65.280000000000015
    57   1      8.1600000000000179      57.120000000000019      69.360000000000014
    58   1      8.1600000000000179      59.160000000000025       71.40000000000002
    59   1      10.200000000000017      57.120000000000019       71.40000000000002
    60   1      10.200000000000017      59.160000000000025      69.360000000000014
    61   1      10.200000000000017      59.160000000000025      73.440000000000026
    62   1      10.200000000000017      61.200000000000024       55.08000000000002
    63   1      8.1600000000000179      61.200000000000024      57.120000000000019
    64   1      8.1600000000000179      63.240000000000023      59.160000000000025
    65   1      10.200000000000017      61.200000000000024      59.160000000000025
    66   1      10.200000000000017      63.240000000000023      57.120000000000019
    67   1      8.1600000000000179      61.200000000000024      61.200000000000024
    68   1      8.1600000000000179      63.240000000000023      63.240000000000023
    69   1      10.200000000000017      61.200000000000024      63.240000000000023
    70   1      10.200000000000017      63.240000000000023      61.200000000000024
    71   1      8.1600000000000179      61.200000000000024      65.280000000000015
    72   1      8.1600000000000179      63.240000000000023      67.320000000000022
    73   1      10.200000000000017      61.200000000000024      67.320000000000022
    74   1      10.200000000000017      63.240000000000023      65.280000000000015
    75   1      8.1600000000000179      61.200000000000024      69.360000000000014
    76   1      8.1600000000000179      63.240000000000023       71.40000000000002
    77   1      10.200000000000017      61.200000000000024       71.40000000000002
    78   1      10.200000000000017      63.240000000000023      69.360000000000014
    79   1      8.1600000000000179      61.200000000000024      73.440000000000026
    80   1      10.200000000000017      61.200000000000024      75.480000000000018
    81   1      10.200000000000017      63.240000000000023      73.440000000000026
    82   1      10.200000000000017      65.280000000000015       55.08000000000002
    83   1      8.1600000000000179      65.280000000000015      57.120000000000019
    84   1      8.1600000000000179      67.320000000000022      59.160000000000025
    85   1      10.200000000000017      65.280000000000015      59.160000000000025
    86   1      10.200000000000017      67.320000000000022      57.120000000000019
    87   1      8.1600000000000179      65.280000000000015      61.200000000000024
    88   1      8.1600000000000179      67.320000000000022      63.240000000000023
    89   1      10.200000000000017      65.280000000000015      63.240000000000023
    90   1      10.200000000000017      67.320000000000022      61.200000000000024
    91   1      8.1600000000000179      65.280000000000015      65.280000000000015
    92   1      8.1600000000000179      67.320000000000022      67.320000000000022
    93   1      10.200000000000017      65.280000000000015      67.320000000000022
    94   1      10.200000000000017      67.320000000000022      65.280000000000015
    95   1      8.1600000000000179      65.280000000000015      69.360000000000014
    96   1      8.1600000000000179      67.320000000000022       71.40000000000002
    97   1      10.200000000000017      65.280000000000015       71.40000000000002
    98   1      10.200000000000017      67.320000000000022      69.360000000000014
    99   1      8.1600000000000179      65.280000000000015      73.440000000000026
   100   1      10.200000000000017      65.280000000000015      75.480000000000018
   101   1      10.200000000000017      67.320000000000022      73.440000000000026
   102   1      10.200000000000017      69.360000000000014       55.08000000000002
   103   1      8.1600000000000179      69.360000000000014      57.120000000000019
   104   1      8.1600000000000179       71.40000000000002      59.160000000000025
   105   1      10.200000000000017      69.360000000000014      59.160000000000025
   106   1      10.200000000000017       71.40000000000002      57.120000000000019
   107   1      8.1600000000000179      69.360000000000014      61.200000000000024
   108   1      8.1600000000000179       71.40000000000002      63.240000000000023
   109   1      10.200000000000017      69.360000000000014      63.240000000000023
   110   1      10.200000000000017       71.40000000000002      61.200000000000024
   111   1      8.1600000000000179      69.360000000000014      65.280000000000015
   112   1      8.1600000000000179       71.40000000000002      67.320000000000022
   113   1      10.200000000000017      69.360000000000014      67.320000000000022
   114   1      10.200000000000017       71.40000000000002      65.280000000000015
   115   1      8.1600000000000179      69.360000000000014      69.360000000000014
   116   1      8.1600000000000179       71.40000000000002       71.40000000000002
   117   1      10.200000000000017      69.360000000000014       71.40000000000002
   118   1      10.200000000000017       71.40000000000002      69.360000000000014
   119   1      8.1600000000000179      69.360000000000014      73.440000000000026
   120   1      10.200000000000017      69.360000000000014      75.480000000000018
   121   1      10.200000000000017       71.40000000000002      73.440000000000026
   122   1      10.200000000000017      73.440000000000026      59.160000000000025
   123   1      8.1600000000000179      73.440000000000026      61.200000000000024
   124   1      10.200000000000017      73.440000000000026      63.240000000000023
   125   1      10.200000000000017      75.480000000000018      61.200000000000024
   126   1      8.1600000000000179      73.440000000000026      65.280000000000015
   127   1      10.200000000000017      73.440000000000026      67.320000000000022
   128   1      10.200000000000017      75.480000000000018      65.280000000000015
   129   1      8.1600000000000179      73.440000000000026      69.360000000000014
   130   1      10.200000000000017      73.440000000000026       71.40000000000002
   131   1      10.200000000000017      75.480000000000018      69.360000000000014
   132   1      14.280000000000015      51.000000000000014      61.200000000000024
   133   1      14.280000000000015      51.000000000000014      65.280000000000015
   134   1      14.280000000000015      51.000000000000014      69.360000000000014
   135   1      12.240000000000016       55.08000000000002       55.08000000000002
   136   1      14.280000000000015      53.040000000000028       55.08000000000002
   137   1      14.280000000000015       55.08000000000002      53.040000000000028
   138   1      12.240000000000016       55.08000000000002      59.160000000000025
   139   1      14.280000000000015      53.040000000000028      59.160000000000025
   140   1      14.280000000000015       55.08000000000002      57.120000000000019
   141   1      12.240000000000016      53.040000000000028      61.200000000000024
   142   1      12.240000000000016       55.08000000000002      63.240000000000023
   143   1      14.280000000000015      53.040000000000028      63.240000000000023
   144   1      14.280000000000015       55.08000000000002      61.200000000000024
   145   1      12.240000000000016      53.040000000000028      65.280000000000015
   146   1      12.240000000000016       55.08000000000002      67.320000000000022
   147   1      14.280000000000015      53.040000000000028      67.320000000000022
   148   1      14.280000000000015       55.08000000000002      65.280000000000015
   149   1      12.240000000000016      53.040000000000028      69.360000000000014
   150   1      12.240000000000016       55.08000000000002       71.40000000000002
   151   1      14.280000000000015      53.040000000000028       71.40000000000002
   152   1      14.280000000000015       55.08000000000002      69.360000000000014
   153   1      12.240000000000016       55.08000000000002      75.480000000000018
   154   1      14.280000000000015      53.040000000000028      75.480000000000018
   155   1      14.280000000000015       55.08000000000002      73.440000000000026
   156   1      14.280000000000015       55.08000000000002       77.52000000000001
   157   1      12.240000000000016      59.160000000000025       55.08000000000002
   158   1      14.280000000000015      57.120000000000019       55.08000000000002
   159   1      14.280000000000015      59.160000000000025      53.040000000000028
   160   1      12.240000000000016      57.120000000000019      57.120000000000019
   161   1      12.240000000000016      59.160000000000025      59.160000000000025
   162   1      14.280000000000015      57.120000000000019      59.160000000000025
   163   1      14.280000000000015      59.160000000000025      57.120000000000019
   164   1      12.240000000000016      57.120000000000019      61.200000000000024
   165   1      12.240000000000016      59.160000000000025      63.240000000000023
   166   1      14.280000000000015      57.120000000000019      63.240000000000023
   167   1      14.280000000000015      59.160000000000025      61.200000000000024
   168   1      12.240000000000016      57.120000000000019      65.280000000000015
   169   1      12.240000000000016      59.160000000000025      67.320000000000022
   170   1      14.280000000000015      57.120000000000019      67.320000000000022
   171   1      14.280000000000015      59.160000000000025      65.280000000000015
   172   1      12.240000000000016      57.120000000000019      69.360000000000014
   173   1      12.240000000000016      59.160000000000025       71.40000000000002
   174   1      14.280000000000015      57.120000000000019       71.40000000000002
   175   1      14.280000000000015      59.160000000000025      69.360000000000014
   176   1      12.240000000000016      57.120000000000019      73.440000000000026
   177   1      12.240000000000016      59.160000000000025      75.480000000000018
   178   1      14.280000000000015      57.120000000000019      75.480000000000018
   179   1      14.280000000000015      59.160000000000025      73.440000000000026
   180   1      14.280000000000015      59.160000000000025       77.52000000000001
   181   1      14.280000000000015      61.200000000000024      51.000000000000014
   182   1      12.240000000000016      61.200000000000024      53.040000000000028
   183   1      12.240000000000016      63.240000000000023       55.08000000000002
   184   1      14.280000000000015      61.200000000000024       55.08000000000002
   185   1      14.280000000000015      63.240000000000023      53.040000000000028
   186   1      12.240000000000016      61.200000000000024      57.120000000000019
   187   1      12.240000000000016      63.240000000000023      59.160000000000025
   188   1      14.280000000000015      61.200000000000024      59.160000000000025
   189   1      14.280000000000015      63.240000000000023      57.120000000000019
   190   1      12.240000000000016      61.200000000000024      61.200000000000024
   191   1      12.240000000000016      63.240000000000023      63.240000000000023
   192   1      14.280000000000015      61.200000000000024      63.240000000000023
   193   1      14.280000000000015      63.240000000000023      61.200000000000024
   194   1      12.240000000000016      61.200000000000024      65.280000000000015
   195   1      12.240000000000016      63.240000000000023      67.320000000000022
   196   1      14.280000000000015      61.200000000000024      67.320000000000022
   197   1      14.280000000000015      63.240000000000023      65.280000000000015
   198   1      12.240000000000016      61.200000000000024      69.360000000000014
   199   1      12.240000000000016      63.240000000000023       71.40000000000002
   200   1      14.280000000000015      61.200000000000024       71.40000000000002
   201   1      14.280000000000015      63.240000000000023      69.360000000000014
   202   1      12.240000000000016      61.200000000000024      73.440000000000026
   203   1      12.240000000000016      63.240000000000023      75.480000000000018
   204   1      14.280000000000015      61.200000000000024      75.480000000000018
   205   1      14.280000000000015      63.240000000000023      73.440000000000026
   206   1      12.240000000000016      61.200000000000024       77.52000000000001
   207   1      14.280000000000015      61.200000000000024      79.560000000000031
   208   1      14.280000000000015      63.240000000000023       77.52000000000001
   209   1      14.280000000000015      65.280000000000015      51.000000000000014
   210   1      12.240000000000016      65.280000000000015      53.040000000000028
   211   1      12.240000000000016      67.320000000000022       55.08000000000002
   212   1      14.280000000000015      65.280000000000015       55.08000000000002
   213   1      14.280000000000015      67.320000000000022      53.040000000000028
   214   1      12.240000000000016      65.280000000000015      57.120000000000019
   215   1      12.240000000000016      67.320000000000022      59.160000000000025
   216   1      14.280000000000015      65.280000000000015      59.160000000000025
   217   1      14.280000000000015      67.320000000000022      57.120000000000019
   218   1      12.240000000000016      65.280000000000015      61.200000000000024
   219   1      12.240000000000016      67.320000000000022      63.240000000000023
   220   1      14.280000000000015      65.280000000000015      63.240000000000023
   221   1      14.280000000000015      67.320000000000022      61.200000000000024
   222   1      12.240000000000016      65.280000000000015      65.280000000000015
   223   1      12.240000000000016      67.320000000000022      67.320000000000022
   224   1      14.280000000000015      65.280000000000015      67.320000000000022
   225   1      14.280000000000015      67.320000000000022      65.280000000000015
   226   1      12.240000000000016      65.280000000000015      69.360000000000014
   227   1      12.240000000000016      67.320000000000022       71.40000000000002
   228   1      14.280000000000015      65.280000000000015       71.40000000000002
   229   1      14.280000000000015      67.320000000000022      69.360000000000014
   230   1      12.240000000000016      65.280000000000015      73.440000000000026
   231   1      12.240000000000016      67.320000000000022      75.480000000000018
   232   1      14.280000000000015      65.280000000000015      75.480000000000018
   233   1      14.280000000000015      67.320000000000022      73.440000000000026
   234   1      12.240000000000016      65.280000000000015       77.52000000000001
   235   1      14.280000000000015      65.280000000000015      79.560000000000031
   236   1      14.280000000000015      67.320000000000022       77.52000000000001
   237   1      14.280000000000015      69.360000000000014      51.000000000000014
   238   1      12.240000000000016      69.360000000000014      53.040000000000028
   239   1      12.240000000000016       71.40000000000002       55.08000000000002
   240   1      14.280000000000015      69.360000000000014       55.08000000000002
   241   1      14.280000000000015       71.40000000000002      53.040000000000028
   242   1      12.240000000000016      69.360000000000014      57.120000000000019
   243   1      12.240000000000016       71.40000000000002      59.160000000000025
   244   1      14.280000000000015      69.360000000000014      59.160000000000025
   245   1      14.280000000000015       71.40000000000002      57.120000000000019
   246   1      12.240000000000016      69.360000000000014      61.200000000000024
   247   1      12.240000000000016       71.40000000000002      63.240000000000023
   248   1      14.280000000000015      69.360000000000014      63.240000000000023
   249   1      14.280000000000015       71.40000000000002      61.200000000000024
   250   1      12.240000000000016      69.360000000000014      65.280000000000015
   251   1      12.240000000000016       71.40000000000002      67.320000000000022
   252   1      14.280000000000015      69.360000000000014      67.320000000000022
   253   1      14.280000000000015       71.40000000000002      65.280000000000015
   254   1      12.240000000000016      69.360000000000014      69.360000000000014
   255   1      12.240000000000016       71.40000000000002       71.40000000000002
   256   1      14.280000000000015      69.360000000000014       71.40000000000002
   257   1      14.280000000000015       71.40000000000002      69.360000000000014
   258   1      12.240000000000016      69.360000000000014      73.440000000000026
   259   1      12.240000000000016       71.40000000000002      75.480000000000018
   260   1      14.280000000000015      69.360000000000014      75.480000000000018
   261   1      14.280000000000015       71.40000000000002      73.440000000000026
   262   1      12.240000000000016      69.360000000000014       77.52000000000001
   263   1      14.280000000000015      69.360000000000014      79.560000000000031
   264   1      14.280000000000015       71.40000000000002       77.52000000000001
   265   1      12.240000000000016      75.480000000000018       55.08000000000002
   266   1      14.280000000000015      73.440000000000026       55.08000000000002
   267   1      14.280000000000015      75.480000000000018      53.040000000000028
   268   1      12.240000000000016      73.440000000000026      57.120000000000019
   269   1      12.240000000000016      75.480000000000018      59.160000000000025
   270   1      14.280000000000015      73.440000000000026      59.160000000000025
   271   1      14.280000000000015      75.480000000000018      57.120000000000019
   272   1      12.240000000000016      73.440000000000026      61.200000000000024
   273   1      12.240000000000016      75.480000000000018      63.240000000000023
   274   1      14.280000000000015      73.440000000000026      63.240000000000023
   275   1      14.280000000000015      75.480000000000018      61.200000000000024
   276   1      12.240000000000016      73.440000000000026      65.280000000000015
   277   1      12.240000000000016      75.480000000000018      67.320000000000022
   278   1      14.280000000000015      73.440000000000026      67.320000000000022
   279   1      14.280000000000015      75.480000000000018      65.280000000000015
   280   1      12.240000000000016      73.440000000000026      69.360000000000014
   281   1      12.240000000000016      75.480000000000018       71.40000000000002
   282   1      14.280000000000015      73.440000000000026       71.40000000000002
   283   1      14.280000000000015      75.480000000000018      69.360000000000014
   284   1      12.240000000000016      73.440000000000026      73.440000000000026
   285   1      12.240000000000016      75.480000000000018      75.480000000000018
   286   1      14.280000000000015      73.440000000000026      75.480000000000018
   287   1      14.280000000000015      75.480000000000018      73.440000000000026
   288   1      14.280000000000015      75.480000000000018       77.52000000000001
   289   1      14.280000000000015       77.52000000000001       55.08000000000002
   290   1      14.280000000000015       77.52000000000001      59.160000000000025
   291   1      12.240000000000016       77.52000000000001      61.200000000000024
   292   1      14.280000000000015       77.52000000000001      63.240000000000023
   293   1      14.280000000000015      79.560000000000031      61.200000000000024
   294   1      12.240000000000016       77.52000000000001      65.280000000000015
   295   1      14.280000000000015       77.52000000000001      67.320000000000022
   296   1      14.280000000000015      79.560000000000031      65.280000000000015
   297   1      12.240000000000016       77.52000000000001      69.360000000000014
   298   1      14.280000000000015       77.52000000000001       71.40000000000002
   299   1      14.280000000000015      79.560000000000031      69.360000000000014
   300   1      14.280000000000015       77.52000000000001      75.480000000000018
   301   1      18.360000000000017      46.920000000000016      61.200000000000024
   302   1      18.360000000000017      46.920000000000016      65.280000000000015
   303   1      18.360000000000017      46.920000000000016      69.360000000000014
   304   1      16.320000000000014      51.000000000000014       55.08000000000002
   305   1      18.360000000000017      48.960000000000015       55.08000000000002
   306   1      18.360000000000017      51.000000000000014      53.040000000000028
   307   1      16.320000000000014      51.000000000000014      59.160000000000025
   308   1      18.360000000000017      48.960000000000015      59.160000000000025
   309   1      18.360000000000017      51.000000000000014      57.120000000000019
   310   1      16.320000000000014      48.960000000000015      61.200000000000024
   311   1      16.320000000000014      51.000000000000014      63.240000000000023
   312   1      18.360000000000017      48.960000000000015      63.240000000000023
   313   1      18.360000000000017      51.000000000000014      61.200000000000024
   314   1      16.320000000000014      48.960000000000015      65.280000000000015
   315   1      16.320000000000014      51.000000000000014      67.320000000000022
   316   1      18.360000000000017      48.960000000000015      67.320000000000022
   317   1      18.360000000000017      51.000000000000014      65.280000000000015
   318   1      16.320000000000014      48.960000000000015      69.360000000000014
   319   1      16.320000000000014      51.000000000000014       71.40000000000002
   320   1      18.360000000000017      48.960000000000015       71.40000000000002
   321   1      18.360000000000017      51.000000000000014      69.360000000000014
   322   1      16.320000000000014      51.000000000000014      75.480000000000018
   323   1      18.360000000000017      48.960000000000015      75.480000000000018
   324   1      18.360000000000017      51.000000000000014      73.440000000000026
   325   1      18.360000000000017      51.000000000000014       77.52000000000001
   326   1      16.320000000000014       55.08000000000002      51.000000000000014
   327   1      18.360000000000017      53.040000000000028      51.000000000000014
   328   1      18.360000000000017       55.08000000000002      48.960000000000015
   329   1      16.320000000000014      53.040000000000028      53.040000000000028
   330   1      16.320000000000014       55.08000000000002       55.08000000000002
   331   1      18.360000000000017      53.040000000000028       55.08000000000002
   332   1      18.360000000000017       55.08000000000002      53.040000000000028
   333   1      16.320000000000014      53.040000000000028      57.120000000000019
   334   1      16.320000000000014       55.08000000000002      59.160000000000025
   335   1      18.360000000000017      53.040000000000028      59.160000000000025
   336   1      18.360000000000017       55.08000000000002      57.120000000000019
   337   1      16.320000000000014      53.040000000000028      61.200000000000024
   338   1      16.320000000000014       55.08000000000002      63.240000000000023
   339   1      18.360000000000017      53.040000000000028      63.240000000000023
   340   1      18.360000000000017       55.08000000000002      61.200000000000024
   341   1      16.320000000000014      53.040000000000028      65.280000000000015
   342   1      16.320000000000014       55.08000000000002      67.320000000000022
   343   1      18.360000000000017      53.040000000000028      67.320000000000022
   344   1      18.360000000000017       55.08000000000002      65.280000000000015
   345   1      16.320000000000014      53.040000000000028      69.360000000000014
   346   1      16.320000000000014       55.08000000000002       71.40000000000002
   347   1      18.360000000000017      53.040000000000028       71.40000000000002
   348   1      18.360000000000017       55.08000000000002      69.360000000000014
   349   1      16.320000000000014      53.040000000000028      73.440000000000026
   350   1      16.320000000000014       55.08000000000002      75.480000000000018
   351   1      18.360000000000017      53.040000000000028      75.480000000000018
   352   1      18.360000000000017       55.08000000000002      73.440000000000026
   353   1      16.320000000000014      53.040000000000028       77.52000000000001
   354   1      16.320000000000014       55.08000000000002      79.560000000000031
   355   1      18.360000000000017      53.040000000000028      79.560000000000031
   356   1      18.360000000000017       55.08000000000002       77.52000000000001
   357   1      18.360000000000017       55.08000000000002      81.600000000000023
   358   1      16.320000000000014      59.160000000000025      51.000000000000014