model_files/PtNi/PtNi_30000/PtNi_540/PtNi_540_fcc_29765_temp.data (written by ASE) 

29765 	 atoms 
2  atom types
0.0                     109  xlo xhi
0.0                     109  ylo yhi
0.0                     109  zlo zhi


Atoms 

     1   1                       0      51.705000000000005      51.705000000000005
     2   1      1.9149999999999991      49.790000000000006      51.705000000000005
     3   1      1.9149999999999991      51.705000000000005      49.790000000000006
     4   1                       0      51.705000000000005      55.535000000000011
     5   1      1.9149999999999991      49.790000000000006      55.535000000000011
     6   1      1.9149999999999991      51.705000000000005      53.620000000000005
     7   1      1.9149999999999991      51.705000000000005       57.45000000000001
     8   1                       0      55.535000000000011      51.705000000000005
     9   1      1.9149999999999991      53.620000000000005      51.705000000000005
    10   1      1.9149999999999991      55.535000000000011      49.790000000000006
    11   1                       0      53.620000000000005      53.620000000000005
    12   1                       0      55.535000000000011      55.535000000000011
    13   1      1.9149999999999991      53.620000000000005      55.535000000000011
    14   1      1.9149999999999991      55.535000000000011      53.620000000000005
    15   1      1.9149999999999991      55.535000000000011       57.45000000000001
    16   1      1.9149999999999991       57.45000000000001      51.705000000000005
    17   1      1.9149999999999991       57.45000000000001      55.535000000000011
    18   1      3.8299999999999983                  47.875                  47.875
    19   1      5.7450000000000045      45.960000000000008                  47.875
    20   1      5.7450000000000045                  47.875      45.960000000000008
    21   1      3.8299999999999983                  47.875      51.705000000000005
    22   1      5.7450000000000045      45.960000000000008      51.705000000000005
    23   1      5.7450000000000045                  47.875      49.790000000000006
    24   1      3.8299999999999983                  47.875      55.535000000000011
    25   1      5.7450000000000045      45.960000000000008      55.535000000000011
    26   1      5.7450000000000045                  47.875      53.620000000000005
    27   1      3.8299999999999983                  47.875      59.365000000000009
    28   1      5.7450000000000045      45.960000000000008      59.365000000000009
    29   1      5.7450000000000045                  47.875       57.45000000000001
    30   1      5.7450000000000045                  47.875      61.280000000000008
    31   1      3.8299999999999983      51.705000000000005                  47.875
    32   1      5.7450000000000045      49.790000000000006                  47.875
    33   1      5.7450000000000045      51.705000000000005      45.960000000000008
    34   1      3.8299999999999983      49.790000000000006      49.790000000000006
    35   1      3.8299999999999983      51.705000000000005      51.705000000000005
    36   1      5.7450000000000045      49.790000000000006      51.705000000000005
    37   1      5.7450000000000045      51.705000000000005      49.790000000000006
    38   1      3.8299999999999983      49.790000000000006      53.620000000000005
    39   1      3.8299999999999983      51.705000000000005      55.535000000000011
    40   1      5.7450000000000045      49.790000000000006      55.535000000000011
    41   1      5.7450000000000045      51.705000000000005      53.620000000000005
    42   1      3.8299999999999983      49.790000000000006       57.45000000000001
    43   1      3.8299999999999983      51.705000000000005      59.365000000000009
    44   1      5.7450000000000045      49.790000000000006      59.365000000000009
    45   1      5.7450000000000045      51.705000000000005       57.45000000000001
    46   1      5.7450000000000045      51.705000000000005      61.280000000000008
    47   1      3.8299999999999983      55.535000000000011                  47.875
    48   1      5.7450000000000045      53.620000000000005                  47.875
    49   1      5.7450000000000045      55.535000000000011      45.960000000000008
    50   1      3.8299999999999983      53.620000000000005      49.790000000000006
    51   1      3.8299999999999983      55.535000000000011      51.705000000000005
    52   1      5.7450000000000045      53.620000000000005      51.705000000000005
    53   1      5.7450000000000045      55.535000000000011      49.790000000000006
    54   1      3.8299999999999983      53.620000000000005      53.620000000000005
    55   1      3.8299999999999983      55.535000000000011      55.535000000000011
    56   1      5.7450000000000045      53.620000000000005      55.535000000000011
    57   1      5.7450000000000045      55.535000000000011      53.620000000000005
    58   1      3.8299999999999983      53.620000000000005       57.45000000000001
    59   1      3.8299999999999983      55.535000000000011      59.365000000000009
    60   1      5.7450000000000045      53.620000000000005      59.365000000000009
    61   1      5.7450000000000045      55.535000000000011       57.45000000000001
    62   1      5.7450000000000045      55.535000000000011      61.280000000000008
    63   1      3.8299999999999983      59.365000000000009                  47.875
    64   1      5.7450000000000045       57.45000000000001                  47.875
    65   1      5.7450000000000045      59.365000000000009      45.960000000000008
    66   1      3.8299999999999983       57.45000000000001      49.790000000000006
    67   1      3.8299999999999983      59.365000000000009      51.705000000000005
    68   1      5.7450000000000045       57.45000000000001      51.705000000000005
    69   1      5.7450000000000045      59.365000000000009      49.790000000000006
    70   1      3.8299999999999983       57.45000000000001      53.620000000000005
    71   1      3.8299999999999983      59.365000000000009      55.535000000000011
    72   1      5.7450000000000045       57.45000000000001      55.535000000000011
    73   1      5.7450000000000045      59.365000000000009      53.620000000000005
    74   1      3.8299999999999983       57.45000000000001       57.45000000000001
    75   1      3.8299999999999983      59.365000000000009      59.365000000000009
    76   1      5.7450000000000045       57.45000000000001      59.365000000000009
    77   1      5.7450000000000045      59.365000000000009       57.45000000000001
    78   1      5.7450000000000045      59.365000000000009      61.280000000000008
    79   1      5.7450000000000045      61.280000000000008                  47.875
    80   1      5.7450000000000045      61.280000000000008      51.705000000000005
    81   1      5.7450000000000045      61.280000000000008      55.535000000000011
    82   1      5.7450000000000045      61.280000000000008      59.365000000000009
    83   1      9.5750000000000028      40.215000000000003      42.130000000000003
    84   1      9.5750000000000028      40.215000000000003      45.960000000000008
    85   1      9.5750000000000028      40.215000000000003      49.790000000000006
    86   1      9.5750000000000028      40.215000000000003      53.620000000000005
    87   1      9.5750000000000028      40.215000000000003       57.45000000000001
    88   1      9.5750000000000028      40.215000000000003      61.280000000000008
    89   1      9.5750000000000028      40.215000000000003      65.110000000000014
    90   1      9.5750000000000028      42.130000000000003      40.215000000000003
    91   1      7.6600000000000037      42.130000000000003      42.130000000000003
    92   1      7.6600000000000037      44.045000000000009      44.045000000000009
    93   1      9.5750000000000028      42.130000000000003      44.045000000000009
    94   1      9.5750000000000028      44.045000000000009      42.130000000000003
    95   1      7.6600000000000037      42.130000000000003      45.960000000000008
    96   1      7.6600000000000037      44.045000000000009                  47.875
    97   1      9.5750000000000028      42.130000000000003                  47.875
    98   1      9.5750000000000028      44.045000000000009      45.960000000000008
    99   1      7.6600000000000037      42.130000000000003      49.790000000000006
   100   1      7.6600000000000037      44.045000000000009      51.705000000000005
   101   1      9.5750000000000028      42.130000000000003      51.705000000000005
   102   1      9.5750000000000028      44.045000000000009      49.790000000000006
   103   1      7.6600000000000037      42.130000000000003      53.620000000000005
   104   1      7.6600000000000037      44.045000000000009      55.535000000000011
   105   1      9.5750000000000028      42.130000000000003      55.535000000000011
   106   1      9.5750000000000028      44.045000000000009      53.620000000000005
   107   1      7.6600000000000037      42.130000000000003       57.45000000000001
   108   1      7.6600000000000037      44.045000000000009      59.365000000000009
   109   1      9.5750000000000028      42.130000000000003      59.365000000000009
   110   1      9.5750000000000028      44.045000000000009       57.45000000000001
   111   1      7.6600000000000037      42.130000000000003      61.280000000000008
   112   1      7.6600000000000037      44.045000000000009      63.195000000000007
   113   1      9.5750000000000028      42.130000000000003      63.195000000000007
   114   1      9.5750000000000028      44.045000000000009      61.280000000000008
   115   1      7.6600000000000037      42.130000000000003      65.110000000000014
   116   1      9.5750000000000028      42.130000000000003      67.025000000000006
   117   1      9.5750000000000028      44.045000000000009      65.110000000000014
   118   1      9.5750000000000028      45.960000000000008      40.215000000000003
   119   1      7.6600000000000037      45.960000000000008      42.130000000000003
   120   1      7.6600000000000037                  47.875      44.045000000000009
   121   1      9.5750000000000028      45.960000000000008      44.045000000000009
   122   1      9.5750000000000028                  47.875      42.130000000000003
   123   1      7.6600000000000037      45.960000000000008      45.960000000000008
   124   1      7.6600000000000037                  47.875                  47.875
   125   1      9.5750000000000028      45.960000000000008                  47.875
   126   1      9.5750000000000028                  47.875      45.960000000000008
   127   1      7.6600000000000037      45.960000000000008      49.790000000000006
   128   1      7.6600000000000037                  47.875      51.705000000000005
   129   1      9.5750000000000028      45.960000000000008      51.705000000000005
   130   1      9.5750000000000028                  47.875      49.790000000000006
   131   1      7.6600000000000037      45.960000000000008      53.620000000000005
   132   1      7.6600000000000037                  47.875      55.535000000000011
   133   1      9.5750000000000028      45.960000000000008      55.535000000000011
   134   1      9.5750000000000028                  47.875      53.620000000000005
   135   1      7.6600000000000037      45.960000000000008       57.45000000000001
   136   1      7.6600000000000037                  47.875      59.365000000000009
   137   1      9.5750000000000028      45.960000000000008      59.365000000000009
   138   1      9.5750000000000028                  47.875       57.45000000000001
   139   1      7.6600000000000037      45.960000000000008      61.280000000000008
   140   1      7.6600000000000037                  47.875      63.195000000000007
   141   1      9.5750000000000028      45.960000000000008      63.195000000000007
   142   1      9.5750000000000028                  47.875      61.280000000000008
   143   1      7.6600000000000037      45.960000000000008      65.110000000000014
   144   1      9.5750000000000028      45.960000000000008      67.025000000000006
   145   1      9.5750000000000028                  47.875      65.110000000000014
   146   1      9.5750000000000028      49.790000000000006      40.215000000000003
   147   1      7.6600000000000037      49.790000000000006      42.130000000000003
   148   1      7.6600000000000037      51.705000000000005      44.045000000000009
   149   1      9.5750000000000028      49.790000000000006      44.045000000000009
   150   1      9.5750000000000028      51.705000000000005      42.130000000000003
   151   1      7.6600000000000037      49.790000000000006      45.960000000000008
   152   1      7.6600000000000037      51.705000000000005                  47.875
   153   1      9.5750000000000028      49.790000000000006                  47.875
   154   1      9.5750000000000028      51.705000000000005      45.960000000000008
   155   1      7.6600000000000037      49.790000000000006      49.790000000000006
   156   1      7.6600000000000037      51.705000000000005      51.705000000000005
   157   1      9.5750000000000028      49.790000000000006      51.705000000000005
   158   1      9.5750000000000028      51.705000000000005      49.790000000000006
   159   1      7.6600000000000037      49.790000000000006      53.620000000000005
   160   1      7.6600000000000037      51.705000000000005      55.535000000000011
   161   1      9.5750000000000028      49.790000000000006      55.535000000000011
   162   1      9.5750000000000028      51.705000000000005      53.620000000000005
   163   1      7.6600000000000037      49.790000000000006       57.45000000000001
   164   1      7.6600000000000037      51.705000000000005      59.365000000000009
   165   1      9.5750000000000028      49.790000000000006      59.365000000000009
   166   1      9.5750000000000028      51.705000000000005       57.45000000000001
   167   1      7.6600000000000037      49.790000000000006      61.280000000000008
   168   1      7.6600000000000037      51.705000000000005      63.195000000000007
   169   1      9.5750000000000028      49.790000000000006      63.195000000000007
   170   1      9.5750000000000028      51.705000000000005      61.280000000000008
   171   1      7.6600000000000037      49.790000000000006      65.110000000000014
   172   1      9.5750000000000028      49.790000000000006      67.025000000000006
   173   1      9.5750000000000028      51.705000000000005      65.110000000000014
   174   1      9.5750000000000028      53.620000000000005      40.215000000000003
   175   1      7.6600000000000037      53.620000000000005      42.130000000000003
   176   1      7.6600000000000037      55.535000000000011      44.045000000000009
   177   1      9.5750000000000028      53.620000000000005      44.045000000000009
   178   1      9.5750000000000028      55.535000000000011      42.130000000000003
   179   1      7.6600000000000037      53.620000000000005      45.960000000000008
   180   1      7.6600000000000037      55.535000000000011                  47.875
   181   1      9.5750000000000028      53.620000000000005                  47.875
   182   1      9.5750000000000028      55.535000000000011      45.960000000000008
   183   1      7.6600000000000037      53.620000000000005      49.790000000000006
   184   1      7.6600000000000037      55.535000000000011      51.705000000000005
   185   1      9.5750000000000028      53.620000000000005      51.705000000000005
   186   1      9.5750000000000028      55.535000000000011      49.790000000000006
   187   1      7.6600000000000037      53.620000000000005      53.620000000000005
   188   1      7.6600000000000037      55.535000000000011      55.535000000000011
   189   1      9.5750000000000028      53.620000000000005      55.535000000000011
   190   1      9.5750000000000028      55.535000000000011      53.620000000000005
   191   1      7.6600000000000037      53.620000000000005       57.45000000000001
   192   1      7.6600000000000037      55.535000000000011      59.365000000000009
   193   1      9.5750000000000028      53.620000000000005      59.365000000000009
   194   1      9.5750000000000028      55.535000000000011       57.45000000000001
   195   1      7.6600000000000037      53.620000000000005      61.280000000000008
   196   1      7.6600000000000037      55.535000000000011      63.195000000000007
   197   1      9.5750000000000028      53.620000000000005      63.195000000000007
   198   1      9.5750000000000028      55.535000000000011      61.280000000000008
   199   1      7.6600000000000037      53.620000000000005      65.110000000000014
   200   1      9.5750000000000028      53.620000000000005      67.025000000000006
   201   1      9.5750000000000028      55.535000000000011      65.110000000000014
   202   1      9.5750000000000028       57.45000000000001      40.215000000000003
   203   1      7.6600000000000037       57.45000000000001      42.130000000000003
   204   1      7.6600000000000037      59.365000000000009      44.045000000000009
   205   1      9.5750000000000028       57.45000000000001      44.045000000000009
   206   1      9.5750000000000028      59.365000000000009      42.130000000000003
   207   1      7.6600000000000037       57.45000000000001      45.960000000000008
   208   1      7.6600000000000037      59.365000000000009                  47.875
   209   1      9.5750000000000028       57.45000000000001                  47.875
   210   1      9.5750000000000028      59.365000000000009      45.960000000000008
   211   1      7.6600000000000037       57.45000000000001      49.790000000000006
   212   1      7.6600000000000037      59.365000000000009      51.705000000000005
   213   1      9.5750000000000028       57.45000000000001      51.705000000000005
   214   1      9.5750000000000028      59.365000000000009      49.790000000000006
   215   1      7.6600000000000037       57.45000000000001      53.620000000000005
   216   1      7.6600000000000037      59.365000000000009      55.535000000000011
   217   1      9.5750000000000028       57.45000000000001      55.535000000000011
   218   1      9.5750000000000028      59.365000000000009      53.620000000000005
   219   1      7.6600000000000037       57.45000000000001       57.45000000000001
   220   1      7.6600000000000037      59.365000000000009      59.365000000000009
   221   1      9.5750000000000028       57.45000000000001      59.365000000000009
   222   1      9.5750000000000028      59.365000000000009       57.45000000000001
   223   1      7.6600000000000037       57.45000000000001      61.280000000000008
   224   1      7.6600000000000037      59.365000000000009      63.195000000000007
   225   1      9.5750000000000028       57.45000000000001      63.195000000000007
   226   1      9.5750000000000028      59.365000000000009      61.280000000000008
   227   1      7.6600000000000037       57.45000000000001      65.110000000000014
   228   1      9.5750000000000028       57.45000000000001      67.025000000000006
   229   1      9.5750000000000028      59.365000000000009      65.110000000000014
   230   1      9.5750000000000028      61.280000000000008      40.215000000000003
   231   1      7.6600000000000037      61.280000000000008      42.130000000000003
   232   1      7.6600000000000037      63.195000000000007      44.045000000000009
   233   1      9.5750000000000028      61.280000000000008      44.045000000000009
   234   1      9.5750000000000028      63.195000000000007      42.130000000000003
   235   1      7.6600000000000037      61.280000000000008      45.960000000000008
   236   1      7.6600000000000037      63.195000000000007                  47.875
   237   1      9.5750000000000028      61.280000000000008                  47.875
   238   1      9.5750000000000028      63.195000000000007      45.960000000000008
   239   1      7.6600000000000037      61.280000000000008      49.790000000000006
   240   1      7.6600000000000037      63.195000000000007      51.705000000000005
   241   1      9.5750000000000028      61.280000000000008      51.705000000000005
   242   1      9.5750000000000028      63.195000000000007      49.790000000000006
   243   1      7.6600000000000037      61.280000000000008      53.620000000000005
   244   1      7.6600000000000037      63.195000000000007      55.535000000000011
   245   1      9.5750000000000028      61.280000000000008      55.535000000000011
   246   1      9.5750000000000028      63.195000000000007      53.620000000000005
   247   1      7.6600000000000037      61.280000000000008       57.45000000000001
   248   1      7.6600000000000037      63.195000000000007      59.365000000000009
   249   1      9.5750000000000028      61.280000000000008      59.365000000000009
   250   1      9.5750000000000028      63.195000000000007       57.45000000000001
   251   1      7.6600000000000037      61.280000000000008      61.280000000000008
   252   1      7.6600000000000037      63.195000000000007      63.195000000000007
   253   1      9.5750000000000028      61.280000000000008      63.195000000000007
   254   1      9.5750000000000028      63.195000000000007      61.280000000000008
   255   1      7.6600000000000037      61.280000000000008      65.110000000000014
   256   1      9.5750000000000028      61.280000000000008      67.025000000000006
   257   1      9.5750000000000028      63.195000000000007      65.110000000000014
   258   1      9.5750000000000028      65.110000000000014      40.215000000000003
   259   1      7.6600000000000037      65.110000000000014      42.130000000000003
   260   1      9.5750000000000028      65.110000000000014      44.045000000000009
   261   1      9.5750000000000028      67.025000000000006      42.130000000000003
   262   1      7.6600000000000037      65.110000000000014      45.960000000000008
   263   1      9.5750000000000028      65.110000000000014                  47.875
   264   1      9.5750000000000028      67.025000000000006      45.960000000000008
   265   1      7.6600000000000037      65.110000000000014      49.790000000000006
   266   1      9.5750000000000028      65.110000000000014      51.705000000000005
   267   1      9.5750000000000028      67.025000000000006      49.790000000000006
   268   1      7.6600000000000037      65.110000000000014      53.620000000000005
   269   1      9.5750000000000028      65.110000000000014      55.535000000000011
   270   1      9.5750000000000028      67.025000000000006      53.620000000000005
   271   1      7.6600000000000037      65.110000000000014       57.45000000000001
   272   1      9.5750000000000028      65.110000000000014      59.365000000000009
   273   1      9.5750000000000028      67.025000000000006       57.45000000000001
   274   1      7.6600000000000037      65.110000000000014      61.280000000000008
   275   1      9.5750000000000028      65.110000000000014      63.195000000000007
   276   1      9.5750000000000028      67.025000000000006      61.280000000000008
   277   1      7.6600000000000037      65.110000000000014      65.110000000000014
   278   1      9.5750000000000028      65.110000000000014      67.025000000000006
   279   1      9.5750000000000028      67.025000000000006      65.110000000000014
   280   1      13.405000000000001      36.384999999999998      38.300000000000004
   281   1      13.405000000000001      36.384999999999998      42.130000000000003
   282   1      13.405000000000001      36.384999999999998      45.960000000000008
   283   1      13.405000000000001      36.384999999999998      49.790000000000006
   284   1      13.405000000000001      36.384999999999998      53.620000000000005
   285   1      13.405000000000001      36.384999999999998       57.45000000000001
   286   1      13.405000000000001      36.384999999999998      61.280000000000008
   287   1      13.405000000000001      36.384999999999998      65.110000000000014
   288   1      13.405000000000001      36.384999999999998      68.939999999999998
   289   1      13.405000000000001      38.300000000000004      36.384999999999998
   290   1      11.490000000000004      38.300000000000004      38.300000000000004
   291   1      11.490000000000004      40.215000000000003      40.215000000000003
   292   1      13.405000000000001      38.300000000000004      40.215000000000003
   293   1      13.405000000000001      40.215000000000003      38.300000000000004
   294   1      11.490000000000004      38.300000000000004      42.130000000000003
   295   1      11.490000000000004      40.215000000000003      44.045000000000009
   296   1      13.405000000000001      38.300000000000004      44.045000000000009
   297   1      13.405000000000001      40.215000000000003      42.130000000000003
   298   1      11.490000000000004      38.300000000000004      45.960000000000008
   299   1      11.490000000000004      40.215000000000003                  47.875
   300   1      13.405000000000001      38.300000000000004                  47.875
   301   1      13.405000000000001      40.215000000000003      45.960000000000008
   302   1      11.490000000000004      38.300000000000004      49.790000000000006
   303   1      11.490000000000004      40.215000000000003      51.705000000000005
   304   1      13.405000000000001      38.300000000000004      51.705000000000005
   305   1      13.405000000000001      40.215000000000003      49.790000000000006
   306   1      11.490000000000004      38.300000000000004      53.620000000000005
   307   1      11.490000000000004      40.215000000000003      55.535000000000011
   308   1      13.405000000000001      38.300000000000004      55.535000000000011
   309   1      13.405000000000001      40.215000000000003      53.620000000000005
   310   1      11.490000000000004      38.300000000000004       57.45000000000001
   311   1      11.490000000000004      40.215000000000003      59.365000000000009
   312   1      13.405000000000001      38.300000000000004      59.365000000000009
   313   1      13.405000000000001      40.215000000000003       57.45000000000001
   314   1      11.490000000000004      38.300000000000004      61.280000000000008
   315   1      11.490000000000004      40.215000000000003      63.195000000000007
   316   1      13.405000000000001      38.300000000000004      63.195000000000007
   317   1      13.405000000000001      40.215000000000003      61.280000000000008
   318   1      11.490000000000004      38.300000000000004      65.110000000000014
   319   1      11.490000000000004      40.215000000000003      67.025000000000006
   320   1      13.405000000000001      38.300000000000004      67.025000000000006
   321   1      13.405000000000001      40.215000000000003      65.110000000000014
   322   1      11.490000000000004      38.300000000000004      68.939999999999998
   323   1      13.405000000000001      38.300000000000004      70.855000000000004
   324   1      13.405000000000001      40.215000000000003      68.939999999999998
   325   1      13.405000000000001      42.130000000000003      36.384999999999998
   326   1      11.490000000000004      42.130000000000003      38.300000000000004
   327   1      11.490000000000004      44.045000000000009      40.215000000000003
   328   1      13.405000000000001      42.130000000000003      40.215000000000003
   329   1      13.405000000000001      44.045000000000009      38.300000000000004
   330   1      11.490000000000004      42.130000000000003      42.130000000000003
   331   1      11.490000000000004      44.045000000000009      44.045000000000009
   332   1      13.405000000000001      42.130000000000003      44.045000000000009
   333   1      13.405000000000001      44.045000000000009      42.130000000000003
   334   1      11.490000000000004      42.130000000000003      45.960000000000008
   335   1      11.490000000000004      44.045000000000009                  47.875
   336   1      13.405000000000001      42.130000000000003                  47.875
   337   1      13.405000000000001      44.045000000000009      45.960000000000008
   338   1      11.490000000000004      42.130000000000003      49.790000000000006
   339   1      11.490000000000004      44.045000000000009      51.705000000000005
   340   1      13.405000000000001      42.130000000000003      51.705000000000005
   341   1      13.405000000000001      44.045000000000009      49.790000000000006
   342   1      11.490000000000004      42.130000000000003      53.620000000000005
   343   1      11.490000000000004      44.045000000000009      55.535000000000011
   344   1      13.405000000000001      42.130000000000003      55.535000000000011
   345   1      13.405000000000001      44.045000000000009      53.620000000000005
   346   1      11.490000000000004      42.130000000000003       57.45000000000001
   347   1      11.490000000000004      44.045000000000009      59.365000000000009
   348   1      13.405000000000001      42.130000000000003      59.365000000000009
   349   1      13.405000000000001      44.045000000000009       57.45000000000001
   350   1      11.490000000000004      42.130000000000003      61.280000000000008
   351   1      11.490000000000004      44.045000000000009      63.195000000000007
   352   1      13.405000000000001      42.130000000000003      63.195000000000007
   353   1      13.405000000000001      44.045000000000009      61.280000000000008
   354   1      11.490000000000004      42.130000000000003      65.110000000000014
   355   1      11.490000000000004      44.045000000000009      67.025000000000006
   356   1      13.405000000000001      42.130000000000003      67.025000000000006
   357   1      13.405000000000001      44.045000000000009      65.110000000000014
   358   1      11.490000000000004      42.130000000000003      68.939999999999998