model_files/Co/Co_30000/Co_544/data.Co_544_hcp_30001 (written by ASE) 

30001 	 atoms 
1  atom types
0.0                      80  xlo xhi
0.0                      80  ylo yhi
0.0                      80  zlo zhi


Atoms 

     1   1      1.2550000000000097      38.905000000000015      40.160000000000011
     2   1      1.2550000000000097      40.160000000000011      38.905000000000015
     3   1  7.1054273576010019e-15      40.160000000000011      40.160000000000011
     4   1      1.2550000000000097      40.160000000000011      41.415000000000006
     5   1      1.2550000000000097      41.415000000000006      40.160000000000011
     6   1      3.7650000000000077       36.39500000000001      40.160000000000011
     7   1      2.5100000000000122      38.905000000000015      38.905000000000015
     8   1      3.7650000000000077      37.650000000000006      38.905000000000015
     9   1      3.7650000000000077      38.905000000000015      37.650000000000006
    10   1      2.5100000000000122      37.650000000000006      40.160000000000011
    11   1      2.5100000000000122      38.905000000000015      41.415000000000006
    12   1      3.7650000000000077      37.650000000000006      41.415000000000006
    13   1      3.7650000000000077      38.905000000000015      40.160000000000011
    14   1      3.7650000000000077      38.905000000000015      42.670000000000002
    15   1      3.7650000000000077      40.160000000000011       36.39500000000001
    16   1      2.5100000000000122      40.160000000000011      37.650000000000006
    17   1      2.5100000000000122      41.415000000000006      38.905000000000015
    18   1      3.7650000000000077      40.160000000000011      38.905000000000015
    19   1      3.7650000000000077      41.415000000000006      37.650000000000006
    20   1      2.5100000000000122      40.160000000000011      40.160000000000011
    21   1      2.5100000000000122      41.415000000000006      41.415000000000006
    22   1      3.7650000000000077      40.160000000000011      41.415000000000006
    23   1      3.7650000000000077      41.415000000000006      40.160000000000011
    24   1      2.5100000000000122      40.160000000000011      42.670000000000002
    25   1      3.7650000000000077      40.160000000000011      43.925000000000011
    26   1      3.7650000000000077      41.415000000000006      42.670000000000002
    27   1      3.7650000000000077      42.670000000000002      38.905000000000015
    28   1      2.5100000000000122      42.670000000000002      40.160000000000011
    29   1      3.7650000000000077      42.670000000000002      41.415000000000006
    30   1      3.7650000000000077      43.925000000000011      40.160000000000011
    31   1      6.2750000000000128      31.375000000000011      40.160000000000011
    32   1      6.2750000000000128       32.63000000000001      38.905000000000015
    33   1      6.2750000000000128      33.885000000000012      37.650000000000006
    34   1      6.2750000000000128       32.63000000000001      41.415000000000006
    35   1      6.2750000000000128      33.885000000000012      40.160000000000011
    36   1      6.2750000000000128      33.885000000000012      42.670000000000002
    37   1      6.2750000000000128      35.140000000000015       36.39500000000001
    38   1      6.2750000000000128       36.39500000000001      35.140000000000015
    39   1      5.0200000000000102       36.39500000000001      38.905000000000015
    40   1      6.2750000000000128      35.140000000000015      38.905000000000015
    41   1      6.2750000000000128       36.39500000000001      37.650000000000006
    42   1      5.0200000000000102      35.140000000000015      40.160000000000011
    43   1      5.0200000000000102       36.39500000000001      41.415000000000006
    44   1      6.2750000000000128      35.140000000000015      41.415000000000006
    45   1      6.2750000000000128       36.39500000000001      40.160000000000011
    46   1      6.2750000000000128      35.140000000000015      43.925000000000011
    47   1      6.2750000000000128       36.39500000000001      42.670000000000002
    48   1      6.2750000000000128       36.39500000000001      45.180000000000007
    49   1      6.2750000000000128      37.650000000000006      33.885000000000012
    50   1      6.2750000000000128      38.905000000000015       32.63000000000001
    51   1      5.0200000000000102      38.905000000000015       36.39500000000001
    52   1      6.2750000000000128      37.650000000000006       36.39500000000001
    53   1      6.2750000000000128      38.905000000000015      35.140000000000015
    54   1      5.0200000000000102      37.650000000000006      37.650000000000006
    55   1      5.0200000000000102      38.905000000000015      38.905000000000015
    56   1      6.2750000000000128      37.650000000000006      38.905000000000015
    57   1      6.2750000000000128      38.905000000000015      37.650000000000006
    58   1      5.0200000000000102      37.650000000000006      40.160000000000011
    59   1      5.0200000000000102      38.905000000000015      41.415000000000006
    60   1      6.2750000000000128      37.650000000000006      41.415000000000006
    61   1      6.2750000000000128      38.905000000000015      40.160000000000011
    62   1      5.0200000000000102      37.650000000000006      42.670000000000002
    63   1      5.0200000000000102      38.905000000000015      43.925000000000011
    64   1      6.2750000000000128      37.650000000000006      43.925000000000011
    65   1      6.2750000000000128      38.905000000000015      42.670000000000002
    66   1      6.2750000000000128      37.650000000000006      46.435000000000016
    67   1      6.2750000000000128      38.905000000000015      45.180000000000007
    68   1      6.2750000000000128      38.905000000000015      47.690000000000012
    69   1      6.2750000000000128      40.160000000000011      31.375000000000011
    70   1      6.2750000000000128      40.160000000000011      33.885000000000012
    71   1      6.2750000000000128      41.415000000000006       32.63000000000001
    72   1      5.0200000000000102      40.160000000000011      35.140000000000015
    73   1      5.0200000000000102      41.415000000000006       36.39500000000001
    74   1      6.2750000000000128      40.160000000000011       36.39500000000001
    75   1      6.2750000000000128      41.415000000000006      35.140000000000015
    76   1      5.0200000000000102      40.160000000000011      37.650000000000006
    77   1      5.0200000000000102      41.415000000000006      38.905000000000015
    78   1      6.2750000000000128      40.160000000000011      38.905000000000015
    79   1      6.2750000000000128      41.415000000000006      37.650000000000006
    80   1      5.0200000000000102      40.160000000000011      40.160000000000011
    81   1      5.0200000000000102      41.415000000000006      41.415000000000006
    82   1      6.2750000000000128      40.160000000000011      41.415000000000006
    83   1      6.2750000000000128      41.415000000000006      40.160000000000011
    84   1      5.0200000000000102      40.160000000000011      42.670000000000002
    85   1      5.0200000000000102      41.415000000000006      43.925000000000011
    86   1      6.2750000000000128      40.160000000000011      43.925000000000011
    87   1      6.2750000000000128      41.415000000000006      42.670000000000002
    88   1      5.0200000000000102      40.160000000000011      45.180000000000007
    89   1      6.2750000000000128      40.160000000000011      46.435000000000016
    90   1      6.2750000000000128      41.415000000000006      45.180000000000007
    91   1      6.2750000000000128      40.160000000000011      48.945000000000007
    92   1      6.2750000000000128      41.415000000000006      47.690000000000012
    93   1      6.2750000000000128      42.670000000000002      33.885000000000012
    94   1      6.2750000000000128      42.670000000000002       36.39500000000001
    95   1      6.2750000000000128      43.925000000000011      35.140000000000015
    96   1      5.0200000000000102      42.670000000000002      37.650000000000006
    97   1      5.0200000000000102      43.925000000000011      38.905000000000015
    98   1      6.2750000000000128      42.670000000000002      38.905000000000015
    99   1      6.2750000000000128      43.925000000000011      37.650000000000006
   100   1      5.0200000000000102      42.670000000000002      40.160000000000011
   101   1      5.0200000000000102      43.925000000000011      41.415000000000006
   102   1      6.2750000000000128      42.670000000000002      41.415000000000006
   103   1      6.2750000000000128      43.925000000000011      40.160000000000011
   104   1      5.0200000000000102      42.670000000000002      42.670000000000002
   105   1      6.2750000000000128      42.670000000000002      43.925000000000011
   106   1      6.2750000000000128      43.925000000000011      42.670000000000002
   107   1      6.2750000000000128      42.670000000000002      46.435000000000016
   108   1      6.2750000000000128      43.925000000000011      45.180000000000007
   109   1      6.2750000000000128      45.180000000000007       36.39500000000001
   110   1      6.2750000000000128      45.180000000000007      38.905000000000015
   111   1      6.2750000000000128      46.435000000000016      37.650000000000006
   112   1      5.0200000000000102      45.180000000000007      40.160000000000011
   113   1      6.2750000000000128      45.180000000000007      41.415000000000006
   114   1      6.2750000000000128      46.435000000000016      40.160000000000011
   115   1      6.2750000000000128      45.180000000000007      43.925000000000011
   116   1      6.2750000000000128      46.435000000000016      42.670000000000002
   117   1      6.2750000000000128      47.690000000000012      38.905000000000015
   118   1      6.2750000000000128      47.690000000000012      41.415000000000006
   119   1      6.2750000000000128      48.945000000000007      40.160000000000011
   120   1      8.7850000000000072      28.865000000000009      40.160000000000011
   121   1      7.5300000000000091      31.375000000000011      38.905000000000015
   122   1      8.7850000000000072      30.120000000000005      38.905000000000015
   123   1      8.7850000000000072      31.375000000000011      37.650000000000006
   124   1      7.5300000000000091      30.120000000000005      40.160000000000011
   125   1      7.5300000000000091      31.375000000000011      41.415000000000006
   126   1      8.7850000000000072      30.120000000000005      41.415000000000006
   127   1      8.7850000000000072      31.375000000000011      40.160000000000011
   128   1      8.7850000000000072      31.375000000000011      42.670000000000002
   129   1      7.5300000000000091      33.885000000000012       36.39500000000001
   130   1      8.7850000000000072       32.63000000000001       36.39500000000001
   131   1      8.7850000000000072      33.885000000000012      35.140000000000015
   132   1      7.5300000000000091       32.63000000000001      37.650000000000006
   133   1      7.5300000000000091      33.885000000000012      38.905000000000015
   134   1      8.7850000000000072       32.63000000000001      38.905000000000015
   135   1      8.7850000000000072      33.885000000000012      37.650000000000006
   136   1      7.5300000000000091       32.63000000000001      40.160000000000011
   137   1      7.5300000000000091      33.885000000000012      41.415000000000006
   138   1      8.7850000000000072       32.63000000000001      41.415000000000006
   139   1      8.7850000000000072      33.885000000000012      40.160000000000011
   140   1      7.5300000000000091       32.63000000000001      42.670000000000002
   141   1      7.5300000000000091      33.885000000000012      43.925000000000011
   142   1      8.7850000000000072       32.63000000000001      43.925000000000011
   143   1      8.7850000000000072      33.885000000000012      42.670000000000002
   144   1      8.7850000000000072      33.885000000000012      45.180000000000007
   145   1      7.5300000000000091       36.39500000000001      33.885000000000012
   146   1      8.7850000000000072      35.140000000000015      33.885000000000012
   147   1      8.7850000000000072       36.39500000000001       32.63000000000001
   148   1      7.5300000000000091      35.140000000000015      35.140000000000015
   149   1      7.5300000000000091       36.39500000000001       36.39500000000001
   150   1      8.7850000000000072      35.140000000000015       36.39500000000001
   151   1      8.7850000000000072       36.39500000000001      35.140000000000015
   152   1      7.5300000000000091      35.140000000000015      37.650000000000006
   153   1      7.5300000000000091       36.39500000000001      38.905000000000015
   154   1      8.7850000000000072      35.140000000000015      38.905000000000015
   155   1      8.7850000000000072       36.39500000000001      37.650000000000006
   156   1      7.5300000000000091      35.140000000000015      40.160000000000011
   157   1      7.5300000000000091       36.39500000000001      41.415000000000006
   158   1      8.7850000000000072      35.140000000000015      41.415000000000006
   159   1      8.7850000000000072       36.39500000000001      40.160000000000011
   160   1      7.5300000000000091      35.140000000000015      42.670000000000002
   161   1      7.5300000000000091       36.39500000000001      43.925000000000011
   162   1      8.7850000000000072      35.140000000000015      43.925000000000011
   163   1      8.7850000000000072       36.39500000000001      42.670000000000002
   164   1      7.5300000000000091      35.140000000000015      45.180000000000007
   165   1      7.5300000000000091       36.39500000000001      46.435000000000016
   166   1      8.7850000000000072      35.140000000000015      46.435000000000016
   167   1      8.7850000000000072       36.39500000000001      45.180000000000007
   168   1      8.7850000000000072       36.39500000000001      47.690000000000012
   169   1      7.5300000000000091      38.905000000000015      31.375000000000011
   170   1      8.7850000000000072      37.650000000000006      31.375000000000011
   171   1      8.7850000000000072      38.905000000000015      30.120000000000005
   172   1      7.5300000000000091      37.650000000000006       32.63000000000001
   173   1      7.5300000000000091      38.905000000000015      33.885000000000012
   174   1      8.7850000000000072      37.650000000000006      33.885000000000012
   175   1      8.7850000000000072      38.905000000000015       32.63000000000001
   176   1      7.5300000000000091      37.650000000000006      35.140000000000015
   177   1      7.5300000000000091      38.905000000000015       36.39500000000001
   178   1      8.7850000000000072      37.650000000000006       36.39500000000001
   179   1      8.7850000000000072      38.905000000000015      35.140000000000015
   180   1      7.5300000000000091      37.650000000000006      37.650000000000006
   181   1      7.5300000000000091      38.905000000000015      38.905000000000015
   182   1      8.7850000000000072      37.650000000000006      38.905000000000015
   183   1      8.7850000000000072      38.905000000000015      37.650000000000006
   184   1      7.5300000000000091      37.650000000000006      40.160000000000011
   185   1      7.5300000000000091      38.905000000000015      41.415000000000006
   186   1      8.7850000000000072      37.650000000000006      41.415000000000006
   187   1      8.7850000000000072      38.905000000000015      40.160000000000011
   188   1      7.5300000000000091      37.650000000000006      42.670000000000002
   189   1      7.5300000000000091      38.905000000000015      43.925000000000011
   190   1      8.7850000000000072      37.650000000000006      43.925000000000011
   191   1      8.7850000000000072      38.905000000000015      42.670000000000002
   192   1      7.5300000000000091      37.650000000000006      45.180000000000007
   193   1      7.5300000000000091      38.905000000000015      46.435000000000016
   194   1      8.7850000000000072      37.650000000000006      46.435000000000016
   195   1      8.7850000000000072      38.905000000000015      45.180000000000007
   196   1      7.5300000000000091      37.650000000000006      47.690000000000012
   197   1      7.5300000000000091      38.905000000000015      48.945000000000007
   198   1      8.7850000000000072      37.650000000000006      48.945000000000007
   199   1      8.7850000000000072      38.905000000000015      47.690000000000012
   200   1      8.7850000000000072      38.905000000000015      50.200000000000003
   201   1      8.7850000000000072      40.160000000000011      28.865000000000009
   202   1      7.5300000000000091      40.160000000000011      30.120000000000005
   203   1      7.5300000000000091      41.415000000000006      31.375000000000011
   204   1      8.7850000000000072      40.160000000000011      31.375000000000011
   205   1      8.7850000000000072      41.415000000000006      30.120000000000005
   206   1      7.5300000000000091      40.160000000000011       32.63000000000001
   207   1      7.5300000000000091      41.415000000000006      33.885000000000012
   208   1      8.7850000000000072      40.160000000000011      33.885000000000012
   209   1      8.7850000000000072      41.415000000000006       32.63000000000001
   210   1      7.5300000000000091      40.160000000000011      35.140000000000015
   211   1      7.5300000000000091      41.415000000000006       36.39500000000001
   212   1      8.7850000000000072      40.160000000000011       36.39500000000001
   213   1      8.7850000000000072      41.415000000000006      35.140000000000015
   214   1      7.5300000000000091      40.160000000000011      37.650000000000006
   215   1      7.5300000000000091      41.415000000000006      38.905000000000015
   216   1      8.7850000000000072      40.160000000000011      38.905000000000015
   217   1      8.7850000000000072      41.415000000000006      37.650000000000006
   218   1      7.5300000000000091      40.160000000000011      40.160000000000011
   219   1      7.5300000000000091      41.415000000000006      41.415000000000006
   220   1      8.7850000000000072      40.160000000000011      41.415000000000006
   221   1      8.7850000000000072      41.415000000000006      40.160000000000011
   222   1      7.5300000000000091      40.160000000000011      42.670000000000002
   223   1      7.5300000000000091      41.415000000000006      43.925000000000011
   224   1      8.7850000000000072      40.160000000000011      43.925000000000011
   225   1      8.7850000000000072      41.415000000000006      42.670000000000002
   226   1      7.5300000000000091      40.160000000000011      45.180000000000007
   227   1      7.5300000000000091      41.415000000000006      46.435000000000016
   228   1      8.7850000000000072      40.160000000000011      46.435000000000016
   229   1      8.7850000000000072      41.415000000000006      45.180000000000007
   230   1      7.5300000000000091      40.160000000000011      47.690000000000012
   231   1      7.5300000000000091      41.415000000000006      48.945000000000007
   232   1      8.7850000000000072      40.160000000000011      48.945000000000007
   233   1      8.7850000000000072      41.415000000000006      47.690000000000012
   234   1      7.5300000000000091      40.160000000000011      50.200000000000003
   235   1      8.7850000000000072      40.160000000000011      51.455000000000013
   236   1      8.7850000000000072      41.415000000000006      50.200000000000003
   237   1      8.7850000000000072      42.670000000000002      31.375000000000011
   238   1      7.5300000000000091      42.670000000000002       32.63000000000001
   239   1      7.5300000000000091      43.925000000000011      33.885000000000012
   240   1      8.7850000000000072      42.670000000000002      33.885000000000012
   241   1      8.7850000000000072      43.925000000000011       32.63000000000001
   242   1      7.5300000000000091      42.670000000000002      35.140000000000015
   243   1      7.5300000000000091      43.925000000000011       36.39500000000001
   244   1      8.7850000000000072      42.670000000000002       36.39500000000001
   245   1      8.7850000000000072      43.925000000000011      35.140000000000015
   246   1      7.5300000000000091      42.670000000000002      37.650000000000006
   247   1      7.5300000000000091      43.925000000000011      38.905000000000015
   248   1      8.7850000000000072      42.670000000000002      38.905000000000015
   249   1      8.7850000000000072      43.925000000000011      37.650000000000006
   250   1      7.5300000000000091      42.670000000000002      40.160000000000011
   251   1      7.5300000000000091      43.925000000000011      41.415000000000006
   252   1      8.7850000000000072      42.670000000000002      41.415000000000006
   253   1      8.7850000000000072      43.925000000000011      40.160000000000011
   254   1      7.5300000000000091      42.670000000000002      42.670000000000002
   255   1      7.5300000000000091      43.925000000000011      43.925000000000011
   256   1      8.7850000000000072      42.670000000000002      43.925000000000011
   257   1      8.7850000000000072      43.925000000000011      42.670000000000002
   258   1      7.5300000000000091      42.670000000000002      45.180000000000007
   259   1      7.5300000000000091      43.925000000000011      46.435000000000016
   260   1      8.7850000000000072      42.670000000000002      46.435000000000016
   261   1      8.7850000000000072      43.925000000000011      45.180000000000007
   262   1      7.5300000000000091      42.670000000000002      47.690000000000012
   263   1      8.7850000000000072      42.670000000000002      48.945000000000007
   264   1      8.7850000000000072      43.925000000000011      47.690000000000012
   265   1      8.7850000000000072      45.180000000000007      33.885000000000012
   266   1      7.5300000000000091      45.180000000000007      35.140000000000015
   267   1      7.5300000000000091      46.435000000000016       36.39500000000001
   268   1      8.7850000000000072      45.180000000000007       36.39500000000001
   269   1      8.7850000000000072      46.435000000000016      35.140000000000015
   270   1      7.5300000000000091      45.180000000000007      37.650000000000006
   271   1      7.5300000000000091      46.435000000000016      38.905000000000015
   272   1      8.7850000000000072      45.180000000000007      38.905000000000015
   273   1      8.7850000000000072      46.435000000000016      37.650000000000006
   274   1      7.5300000000000091      45.180000000000007      40.160000000000011
   275   1      7.5300000000000091      46.435000000000016      41.415000000000006
   276   1      8.7850000000000072      45.180000000000007      41.415000000000006
   277   1      8.7850000000000072      46.435000000000016      40.160000000000011
   278   1      7.5300000000000091      45.180000000000007      42.670000000000002
   279   1      7.5300000000000091      46.435000000000016      43.925000000000011
   280   1      8.7850000000000072      45.180000000000007      43.925000000000011
   281   1      8.7850000000000072      46.435000000000016      42.670000000000002
   282   1      7.5300000000000091      45.180000000000007      45.180000000000007
   283   1      8.7850000000000072      45.180000000000007      46.435000000000016
   284   1      8.7850000000000072      46.435000000000016      45.180000000000007
   285   1      8.7850000000000072      47.690000000000012       36.39500000000001
   286   1      7.5300000000000091      47.690000000000012      37.650000000000006
   287   1      7.5300000000000091      48.945000000000007      38.905000000000015
   288   1      8.7850000000000072      47.690000000000012      38.905000000000015
   289   1      8.7850000000000072      48.945000000000007      37.650000000000006
   290   1      7.5300000000000091      47.690000000000012      40.160000000000011
   291   1      7.5300000000000091      48.945000000000007      41.415000000000006
   292   1      8.7850000000000072      47.690000000000012      41.415000000000006
   293   1      8.7850000000000072      48.945000000000007      40.160000000000011
   294   1      7.5300000000000091      47.690000000000012      42.670000000000002
   295   1      8.7850000000000072      47.690000000000012      43.925000000000011
   296   1      8.7850000000000072      48.945000000000007      42.670000000000002
   297   1      8.7850000000000072      50.200000000000003      38.905000000000015
   298   1      7.5300000000000091      50.200000000000003      40.160000000000011
   299   1      8.7850000000000072      50.200000000000003      41.415000000000006
   300   1      8.7850000000000072      51.455000000000013      40.160000000000011
   301   1      11.295000000000009      26.355000000000008      40.160000000000011
   302   1      10.040000000000006      28.865000000000009      38.905000000000015
   303   1      11.295000000000009       27.61000000000001      38.905000000000015
   304   1      11.295000000000009      28.865000000000009      37.650000000000006
   305   1      10.040000000000006       27.61000000000001      40.160000000000011
   306   1      10.040000000000006      28.865000000000009      41.415000000000006
   307   1      11.295000000000009       27.61000000000001      41.415000000000006
   308   1      11.295000000000009      28.865000000000009      40.160000000000011
   309   1      11.295000000000009      28.865000000000009      42.670000000000002
   310   1      10.040000000000006      31.375000000000011       36.39500000000001
   311   1      11.295000000000009      30.120000000000005       36.39500000000001
   312   1      11.295000000000009      31.375000000000011      35.140000000000015
   313   1      10.040000000000006      30.120000000000005      37.650000000000006
   314   1      10.040000000000006      31.375000000000011      38.905000000000015
   315   1      11.295000000000009      30.120000000000005      38.905000000000015
   316   1      11.295000000000009      31.375000000000011      37.650000000000006
   317   1      10.040000000000006      30.120000000000005      40.160000000000011
   318   1      10.040000000000006      31.375000000000011      41.415000000000006
   319   1      11.295000000000009      30.120000000000005      41.415000000000006
   320   1      11.295000000000009      31.375000000000011      40.160000000000011
   321   1      10.040000000000006      30.120000000000005      42.670000000000002
   322   1      10.040000000000006      31.375000000000011      43.925000000000011
   323   1      11.295000000000009      30.120000000000005      43.925000000000011
   324   1      11.295000000000009      31.375000000000011      42.670000000000002
   325   1      11.295000000000009      31.375000000000011      45.180000000000007
   326   1      10.040000000000006      33.885000000000012      33.885000000000012
   327   1      11.295000000000009       32.63000000000001      33.885000000000012
   328   1      11.295000000000009      33.885000000000012       32.63000000000001
   329   1      10.040000000000006       32.63000000000001      35.140000000000015
   330   1      10.040000000000006      33.885000000000012       36.39500000000001
   331   1      11.295000000000009       32.63000000000001       36.39500000000001
   332   1      11.295000000000009      33.885000000000012      35.140000000000015
   333   1      10.040000000000006       32.63000000000001      37.650000000000006
   334   1      10.040000000000006      33.885000000000012      38.905000000000015
   335   1      11.295000000000009       32.63000000000001      38.905000000000015
   336   1      11.295000000000009      33.885000000000012      37.650000000000006
   337   1      10.040000000000006       32.63000000000001      40.160000000000011
   338   1      10.040000000000006      33.885000000000012      41.415000000000006
   339   1      11.295000000000009       32.63000000000001      41.415000000000006
   340   1      11.295000000000009      33.885000000000012      40.160000000000011
   341   1      10.040000000000006       32.63000000000001      42.670000000000002
   342   1      10.040000000000006      33.885000000000012      43.925000000000011
   343   1      11.295000000000009       32.63000000000001      43.925000000000011
   344   1      11.295000000000009      33.885000000000012      42.670000000000002
   345   1      10.040000000000006       32.63000000000001      45.180000000000007
   346   1      10.040000000000006      33.885000000000012      46.435000000000016
   347   1      11.295000000000009       32.63000000000001      46.435000000000016
   348   1      11.295000000000009      33.885000000000012      45.180000000000007
   349   1      11.295000000000009      33.885000000000012      47.690000000000012
   350   1      10.040000000000006       36.39500000000001      31.375000000000011
   351   1      11.295000000000009      35.140000000000015      31.375000000000011
   352   1      11.295000000000009       36.39500000000001      30.120000000000005
   353   1      10.040000000000006      35.140000000000015       32.63000000000001
   354   1      10.040000000000006       36.39500000000001      33.885000000000012
   355   1      11.295000000000009      35.140000000000015      33.885000000000012
   356   1      11.295000000000009       36.39500000000001       32.63000000000001
   357   1      10.040000000000006      35.140000000000015      35.140000000000015
   358   1      10.040000000000006       36.39500000000001       36.39500000000001