model_files/Pd/Pd_30000/Pd_530/data.Pd_530_fcc_29831 (written by ASE) 

29831 	 atoms 
1  atom types
0.0                     103  xlo xhi
0.0                     103  ylo yhi
0.0                     103  zlo zhi


Atoms 

     1   1                       0      48.624999999999993      48.624999999999993
     2   1      1.9450000000000003      46.679999999999993      48.624999999999993
     3   1      1.9450000000000003      48.624999999999993      46.679999999999993
     4   1                       0      48.624999999999993      52.515000000000001
     5   1      1.9450000000000003      46.679999999999993      52.515000000000001
     6   1      1.9450000000000003      48.624999999999993                   50.57
     7   1      1.9450000000000003      48.624999999999993      54.459999999999994
     8   1                       0      52.515000000000001      48.624999999999993
     9   1      1.9450000000000003                   50.57      48.624999999999993
    10   1      1.9450000000000003      52.515000000000001      46.679999999999993
    11   1                       0                   50.57                   50.57
    12   1                       0      52.515000000000001      52.515000000000001
    13   1      1.9450000000000003                   50.57      52.515000000000001
    14   1      1.9450000000000003      52.515000000000001                   50.57
    15   1      1.9450000000000003      52.515000000000001      54.459999999999994
    16   1      1.9450000000000003      54.459999999999994      48.624999999999993
    17   1      1.9450000000000003      54.459999999999994      52.515000000000001
    18   1      5.8350000000000009      38.899999999999999      40.844999999999999
    19   1      5.8350000000000009      40.844999999999999      38.899999999999999
    20   1      5.8350000000000009      38.899999999999999      44.734999999999999
    21   1      5.8350000000000009      40.844999999999999      42.789999999999992
    22   1      5.8350000000000009      38.899999999999999      48.624999999999993
    23   1      5.8350000000000009      40.844999999999999      46.679999999999993
    24   1      5.8350000000000009      38.899999999999999      52.515000000000001
    25   1      5.8350000000000009      40.844999999999999                   50.57
    26   1      5.8350000000000009      38.899999999999999      56.404999999999994
    27   1      5.8350000000000009      40.844999999999999      54.459999999999994
    28   1      5.8350000000000009      38.899999999999999      60.295000000000002
    29   1      5.8350000000000009      40.844999999999999      58.350000000000001
    30   1      5.8350000000000009      40.844999999999999      62.239999999999995
    31   1      5.8350000000000009      42.789999999999992      40.844999999999999
    32   1      5.8350000000000009      44.734999999999999      38.899999999999999
    33   1      3.8900000000000006      42.789999999999992      42.789999999999992
    34   1      3.8900000000000006      44.734999999999999      44.734999999999999
    35   1      5.8350000000000009      42.789999999999992      44.734999999999999
    36   1      5.8350000000000009      44.734999999999999      42.789999999999992
    37   1      3.8900000000000006      42.789999999999992      46.679999999999993
    38   1      3.8900000000000006      44.734999999999999      48.624999999999993
    39   1      5.8350000000000009      42.789999999999992      48.624999999999993
    40   1      5.8350000000000009      44.734999999999999      46.679999999999993
    41   1      3.8900000000000006      42.789999999999992                   50.57
    42   1      3.8900000000000006      44.734999999999999      52.515000000000001
    43   1      5.8350000000000009      42.789999999999992      52.515000000000001
    44   1      5.8350000000000009      44.734999999999999                   50.57
    45   1      3.8900000000000006      42.789999999999992      54.459999999999994
    46   1      3.8900000000000006      44.734999999999999      56.404999999999994
    47   1      5.8350000000000009      42.789999999999992      56.404999999999994
    48   1      5.8350000000000009      44.734999999999999      54.459999999999994
    49   1      3.8900000000000006      42.789999999999992      58.350000000000001
    50   1      5.8350000000000009      42.789999999999992      60.295000000000002
    51   1      5.8350000000000009      44.734999999999999      58.350000000000001
    52   1      5.8350000000000009      44.734999999999999      62.239999999999995
    53   1      5.8350000000000009      46.679999999999993      40.844999999999999
    54   1      5.8350000000000009      48.624999999999993      38.899999999999999
    55   1      3.8900000000000006      46.679999999999993      42.789999999999992
    56   1      3.8900000000000006      48.624999999999993      44.734999999999999
    57   1      5.8350000000000009      46.679999999999993      44.734999999999999
    58   1      5.8350000000000009      48.624999999999993      42.789999999999992
    59   1      3.8900000000000006      46.679999999999993      46.679999999999993
    60   1      3.8900000000000006      48.624999999999993      48.624999999999993
    61   1      5.8350000000000009      46.679999999999993      48.624999999999993
    62   1      5.8350000000000009      48.624999999999993      46.679999999999993
    63   1      3.8900000000000006      46.679999999999993                   50.57
    64   1      3.8900000000000006      48.624999999999993      52.515000000000001
    65   1      5.8350000000000009      46.679999999999993      52.515000000000001
    66   1      5.8350000000000009      48.624999999999993                   50.57
    67   1      3.8900000000000006      46.679999999999993      54.459999999999994
    68   1      3.8900000000000006      48.624999999999993      56.404999999999994
    69   1      5.8350000000000009      46.679999999999993      56.404999999999994
    70   1      5.8350000000000009      48.624999999999993      54.459999999999994
    71   1      3.8900000000000006      46.679999999999993      58.350000000000001
    72   1      5.8350000000000009      46.679999999999993      60.295000000000002
    73   1      5.8350000000000009      48.624999999999993      58.350000000000001
    74   1      5.8350000000000009      48.624999999999993      62.239999999999995
    75   1      5.8350000000000009                   50.57      40.844999999999999
    76   1      5.8350000000000009      52.515000000000001      38.899999999999999
    77   1      3.8900000000000006                   50.57      42.789999999999992
    78   1      3.8900000000000006      52.515000000000001      44.734999999999999
    79   1      5.8350000000000009                   50.57      44.734999999999999
    80   1      5.8350000000000009      52.515000000000001      42.789999999999992
    81   1      3.8900000000000006                   50.57      46.679999999999993
    82   1      3.8900000000000006      52.515000000000001      48.624999999999993
    83   1      5.8350000000000009                   50.57      48.624999999999993
    84   1      5.8350000000000009      52.515000000000001      46.679999999999993
    85   1      3.8900000000000006                   50.57                   50.57
    86   1      3.8900000000000006      52.515000000000001      52.515000000000001
    87   1      5.8350000000000009                   50.57      52.515000000000001
    88   1      5.8350000000000009      52.515000000000001                   50.57
    89   1      3.8900000000000006                   50.57      54.459999999999994
    90   1      3.8900000000000006      52.515000000000001      56.404999999999994
    91   1      5.8350000000000009                   50.57      56.404999999999994
    92   1      5.8350000000000009      52.515000000000001      54.459999999999994
    93   1      3.8900000000000006                   50.57      58.350000000000001
    94   1      5.8350000000000009                   50.57      60.295000000000002
    95   1      5.8350000000000009      52.515000000000001      58.350000000000001
    96   1      5.8350000000000009      52.515000000000001      62.239999999999995
    97   1      5.8350000000000009      54.459999999999994      40.844999999999999
    98   1      5.8350000000000009      56.404999999999994      38.899999999999999
    99   1      3.8900000000000006      54.459999999999994      42.789999999999992
   100   1      3.8900000000000006      56.404999999999994      44.734999999999999
   101   1      5.8350000000000009      54.459999999999994      44.734999999999999
   102   1      5.8350000000000009      56.404999999999994      42.789999999999992
   103   1      3.8900000000000006      54.459999999999994      46.679999999999993
   104   1      3.8900000000000006      56.404999999999994      48.624999999999993
   105   1      5.8350000000000009      54.459999999999994      48.624999999999993
   106   1      5.8350000000000009      56.404999999999994      46.679999999999993
   107   1      3.8900000000000006      54.459999999999994                   50.57
   108   1      3.8900000000000006      56.404999999999994      52.515000000000001
   109   1      5.8350000000000009      54.459999999999994      52.515000000000001
   110   1      5.8350000000000009      56.404999999999994                   50.57
   111   1      3.8900000000000006      54.459999999999994      54.459999999999994
   112   1      3.8900000000000006      56.404999999999994      56.404999999999994
   113   1      5.8350000000000009      54.459999999999994      56.404999999999994
   114   1      5.8350000000000009      56.404999999999994      54.459999999999994
   115   1      3.8900000000000006      54.459999999999994      58.350000000000001
   116   1      5.8350000000000009      54.459999999999994      60.295000000000002
   117   1      5.8350000000000009      56.404999999999994      58.350000000000001
   118   1      5.8350000000000009      56.404999999999994      62.239999999999995
   119   1      5.8350000000000009      58.350000000000001      40.844999999999999
   120   1      5.8350000000000009      60.295000000000002      38.899999999999999
   121   1      3.8900000000000006      58.350000000000001      42.789999999999992
   122   1      5.8350000000000009      58.350000000000001      44.734999999999999
   123   1      5.8350000000000009      60.295000000000002      42.789999999999992
   124   1      3.8900000000000006      58.350000000000001      46.679999999999993
   125   1      5.8350000000000009      58.350000000000001      48.624999999999993
   126   1      5.8350000000000009      60.295000000000002      46.679999999999993
   127   1      3.8900000000000006      58.350000000000001                   50.57
   128   1      5.8350000000000009      58.350000000000001      52.515000000000001
   129   1      5.8350000000000009      60.295000000000002                   50.57
   130   1      3.8900000000000006      58.350000000000001      54.459999999999994
   131   1      5.8350000000000009      58.350000000000001      56.404999999999994
   132   1      5.8350000000000009      60.295000000000002      54.459999999999994
   133   1      3.8900000000000006      58.350000000000001      58.350000000000001
   134   1      5.8350000000000009      58.350000000000001      60.295000000000002
   135   1      5.8350000000000009      60.295000000000002      58.350000000000001
   136   1      5.8350000000000009      60.295000000000002      62.239999999999995
   137   1      5.8350000000000009      62.239999999999995      40.844999999999999
   138   1      5.8350000000000009      62.239999999999995      44.734999999999999
   139   1      5.8350000000000009      62.239999999999995      48.624999999999993
   140   1      5.8350000000000009      62.239999999999995      52.515000000000001
   141   1      5.8350000000000009      62.239999999999995      56.404999999999994
   142   1      5.8350000000000009      62.239999999999995      60.295000000000002
   143   1      9.7249999999999996      33.064999999999991      35.009999999999998
   144   1      9.7249999999999996      33.064999999999991      38.899999999999999
   145   1      9.7249999999999996      33.064999999999991      42.789999999999992
   146   1      9.7249999999999996      33.064999999999991      46.679999999999993
   147   1      9.7249999999999996      33.064999999999991                   50.57
   148   1      9.7249999999999996      33.064999999999991      54.459999999999994
   149   1      9.7249999999999996      33.064999999999991      58.350000000000001
   150   1      9.7249999999999996      33.064999999999991      62.239999999999995
   151   1      9.7249999999999996      33.064999999999991      66.129999999999981
   152   1      9.7249999999999996      35.009999999999998      33.064999999999991
   153   1      7.7800000000000011      36.954999999999991      36.954999999999991
   154   1      9.7249999999999996      35.009999999999998      36.954999999999991
   155   1      9.7249999999999996      36.954999999999991      35.009999999999998
   156   1      7.7800000000000011      36.954999999999991      40.844999999999999
   157   1      9.7249999999999996      35.009999999999998      40.844999999999999
   158   1      9.7249999999999996      36.954999999999991      38.899999999999999
   159   1      7.7800000000000011      36.954999999999991      44.734999999999999
   160   1      9.7249999999999996      35.009999999999998      44.734999999999999
   161   1      9.7249999999999996      36.954999999999991      42.789999999999992
   162   1      7.7800000000000011      36.954999999999991      48.624999999999993
   163   1      9.7249999999999996      35.009999999999998      48.624999999999993
   164   1      9.7249999999999996      36.954999999999991      46.679999999999993
   165   1      7.7800000000000011      36.954999999999991      52.515000000000001
   166   1      9.7249999999999996      35.009999999999998      52.515000000000001
   167   1      9.7249999999999996      36.954999999999991                   50.57
   168   1      7.7800000000000011      36.954999999999991      56.404999999999994
   169   1      9.7249999999999996      35.009999999999998      56.404999999999994
   170   1      9.7249999999999996      36.954999999999991      54.459999999999994
   171   1      7.7800000000000011      36.954999999999991      60.295000000000002
   172   1      9.7249999999999996      35.009999999999998      60.295000000000002
   173   1      9.7249999999999996      36.954999999999991      58.350000000000001
   174   1      7.7800000000000011      36.954999999999991      64.184999999999974
   175   1      9.7249999999999996      35.009999999999998      64.184999999999974
   176   1      9.7249999999999996      36.954999999999991      62.239999999999995
   177   1      9.7249999999999996      35.009999999999998      68.074999999999989
   178   1      9.7249999999999996      36.954999999999991      66.129999999999981
   179   1      9.7249999999999996      38.899999999999999      33.064999999999991
   180   1      7.7800000000000011      40.844999999999999      36.954999999999991
   181   1      9.7249999999999996      38.899999999999999      36.954999999999991
   182   1      9.7249999999999996      40.844999999999999      35.009999999999998
   183   1      7.7800000000000011      38.899999999999999      38.899999999999999
   184   1      7.7800000000000011      40.844999999999999      40.844999999999999
   185   1      9.7249999999999996      38.899999999999999      40.844999999999999
   186   1      9.7249999999999996      40.844999999999999      38.899999999999999
   187   1      7.7800000000000011      38.899999999999999      42.789999999999992
   188   1      7.7800000000000011      40.844999999999999      44.734999999999999
   189   1      9.7249999999999996      38.899999999999999      44.734999999999999
   190   1      9.7249999999999996      40.844999999999999      42.789999999999992
   191   1      7.7800000000000011      38.899999999999999      46.679999999999993
   192   1      7.7800000000000011      40.844999999999999      48.624999999999993
   193   1      9.7249999999999996      38.899999999999999      48.624999999999993
   194   1      9.7249999999999996      40.844999999999999      46.679999999999993
   195   1      7.7800000000000011      38.899999999999999                   50.57
   196   1      7.7800000000000011      40.844999999999999      52.515000000000001
   197   1      9.7249999999999996      38.899999999999999      52.515000000000001
   198   1      9.7249999999999996      40.844999999999999                   50.57
   199   1      7.7800000000000011      38.899999999999999      54.459999999999994
   200   1      7.7800000000000011      40.844999999999999      56.404999999999994
   201   1      9.7249999999999996      38.899999999999999      56.404999999999994
   202   1      9.7249999999999996      40.844999999999999      54.459999999999994
   203   1      7.7800000000000011      38.899999999999999      58.350000000000001
   204   1      7.7800000000000011      40.844999999999999      60.295000000000002
   205   1      9.7249999999999996      38.899999999999999      60.295000000000002
   206   1      9.7249999999999996      40.844999999999999      58.350000000000001
   207   1      7.7800000000000011      38.899999999999999      62.239999999999995
   208   1      7.7800000000000011      40.844999999999999      64.184999999999974
   209   1      9.7249999999999996      38.899999999999999      64.184999999999974
   210   1      9.7249999999999996      40.844999999999999      62.239999999999995
   211   1      9.7249999999999996      38.899999999999999      68.074999999999989
   212   1      9.7249999999999996      40.844999999999999      66.129999999999981
   213   1      9.7249999999999996      42.789999999999992      33.064999999999991
   214   1      7.7800000000000011      44.734999999999999      36.954999999999991
   215   1      9.7249999999999996      42.789999999999992      36.954999999999991
   216   1      9.7249999999999996      44.734999999999999      35.009999999999998
   217   1      7.7800000000000011      42.789999999999992      38.899999999999999
   218   1      7.7800000000000011      44.734999999999999      40.844999999999999
   219   1      9.7249999999999996      42.789999999999992      40.844999999999999
   220   1      9.7249999999999996      44.734999999999999      38.899999999999999
   221   1      7.7800000000000011      42.789999999999992      42.789999999999992
   222   1      7.7800000000000011      44.734999999999999      44.734999999999999
   223   1      9.7249999999999996      42.789999999999992      44.734999999999999
   224   1      9.7249999999999996      44.734999999999999      42.789999999999992
   225   1      7.7800000000000011      42.789999999999992      46.679999999999993
   226   1      7.7800000000000011      44.734999999999999      48.624999999999993
   227   1      9.7249999999999996      42.789999999999992      48.624999999999993
   228   1      9.7249999999999996      44.734999999999999      46.679999999999993
   229   1      7.7800000000000011      42.789999999999992                   50.57
   230   1      7.7800000000000011      44.734999999999999      52.515000000000001
   231   1      9.7249999999999996      42.789999999999992      52.515000000000001
   232   1      9.7249999999999996      44.734999999999999                   50.57
   233   1      7.7800000000000011      42.789999999999992      54.459999999999994
   234   1      7.7800000000000011      44.734999999999999      56.404999999999994
   235   1      9.7249999999999996      42.789999999999992      56.404999999999994
   236   1      9.7249999999999996      44.734999999999999      54.459999999999994
   237   1      7.7800000000000011      42.789999999999992      58.350000000000001
   238   1      7.7800000000000011      44.734999999999999      60.295000000000002
   239   1      9.7249999999999996      42.789999999999992      60.295000000000002
   240   1      9.7249999999999996      44.734999999999999      58.350000000000001
   241   1      7.7800000000000011      42.789999999999992      62.239999999999995
   242   1      7.7800000000000011      44.734999999999999      64.184999999999974
   243   1      9.7249999999999996      42.789999999999992      64.184999999999974
   244   1      9.7249999999999996      44.734999999999999      62.239999999999995
   245   1      9.7249999999999996      42.789999999999992      68.074999999999989
   246   1      9.7249999999999996      44.734999999999999      66.129999999999981
   247   1      9.7249999999999996      46.679999999999993      33.064999999999991
   248   1      7.7800000000000011      48.624999999999993      36.954999999999991
   249   1      9.7249999999999996      46.679999999999993      36.954999999999991
   250   1      9.7249999999999996      48.624999999999993      35.009999999999998
   251   1      7.7800000000000011      46.679999999999993      38.899999999999999
   252   1      7.7800000000000011      48.624999999999993      40.844999999999999
   253   1      9.7249999999999996      46.679999999999993      40.844999999999999
   254   1      9.7249999999999996      48.624999999999993      38.899999999999999
   255   1      7.7800000000000011      46.679999999999993      42.789999999999992
   256   1      7.7800000000000011      48.624999999999993      44.734999999999999
   257   1      9.7249999999999996      46.679999999999993      44.734999999999999
   258   1      9.7249999999999996      48.624999999999993      42.789999999999992
   259   1      7.7800000000000011      46.679999999999993      46.679999999999993
   260   1      7.7800000000000011      48.624999999999993      48.624999999999993
   261   1      9.7249999999999996      46.679999999999993      48.624999999999993
   262   1      9.7249999999999996      48.624999999999993      46.679999999999993
   263   1      7.7800000000000011      46.679999999999993                   50.57
   264   1      7.7800000000000011      48.624999999999993      52.515000000000001
   265   1      9.7249999999999996      46.679999999999993      52.515000000000001
   266   1      9.7249999999999996      48.624999999999993                   50.57
   267   1      7.7800000000000011      46.679999999999993      54.459999999999994
   268   1      7.7800000000000011      48.624999999999993      56.404999999999994
   269   1      9.7249999999999996      46.679999999999993      56.404999999999994
   270   1      9.7249999999999996      48.624999999999993      54.459999999999994
   271   1      7.7800000000000011      46.679999999999993      58.350000000000001
   272   1      7.7800000000000011      48.624999999999993      60.295000000000002
   273   1      9.7249999999999996      46.679999999999993      60.295000000000002
   274   1      9.7249999999999996      48.624999999999993      58.350000000000001
   275   1      7.7800000000000011      46.679999999999993      62.239999999999995
   276   1      7.7800000000000011      48.624999999999993      64.184999999999974
   277   1      9.7249999999999996      46.679999999999993      64.184999999999974
   278   1      9.7249999999999996      48.624999999999993      62.239999999999995
   279   1      9.7249999999999996      46.679999999999993      68.074999999999989
   280   1      9.7249999999999996      48.624999999999993      66.129999999999981
   281   1      9.7249999999999996                   50.57      33.064999999999991
   282   1      7.7800000000000011      52.515000000000001      36.954999999999991
   283   1      9.7249999999999996                   50.57      36.954999999999991
   284   1      9.7249999999999996      52.515000000000001      35.009999999999998
   285   1      7.7800000000000011                   50.57      38.899999999999999
   286   1      7.7800000000000011      52.515000000000001      40.844999999999999
   287   1      9.7249999999999996                   50.57      40.844999999999999
   288   1      9.7249999999999996      52.515000000000001      38.899999999999999
   289   1      7.7800000000000011                   50.57      42.789999999999992
   290   1      7.7800000000000011      52.515000000000001      44.734999999999999
   291   1      9.7249999999999996                   50.57      44.734999999999999
   292   1      9.7249999999999996      52.515000000000001      42.789999999999992
   293   1      7.7800000000000011                   50.57      46.679999999999993
   294   1      7.7800000000000011      52.515000000000001      48.624999999999993
   295   1      9.7249999999999996                   50.57      48.624999999999993
   296   1      9.7249999999999996      52.515000000000001      46.679999999999993
   297   1      7.7800000000000011                   50.57                   50.57
   298   1      7.7800000000000011      52.515000000000001      52.515000000000001
   299   1      9.7249999999999996                   50.57      52.515000000000001
   300   1      9.7249999999999996      52.515000000000001                   50.57
   301   1      7.7800000000000011                   50.57      54.459999999999994
   302   1      7.7800000000000011      52.515000000000001      56.404999999999994
   303   1      9.7249999999999996                   50.57      56.404999999999994
   304   1      9.7249999999999996      52.515000000000001      54.459999999999994
   305   1      7.7800000000000011                   50.57      58.350000000000001
   306   1      7.7800000000000011      52.515000000000001      60.295000000000002
   307   1      9.7249999999999996                   50.57      60.295000000000002
   308   1      9.7249999999999996      52.515000000000001      58.350000000000001
   309   1      7.7800000000000011                   50.57      62.239999999999995
   310   1      7.7800000000000011      52.515000000000001      64.184999999999974
   311   1      9.7249999999999996                   50.57      64.184999999999974
   312   1      9.7249999999999996      52.515000000000001      62.239999999999995
   313   1      9.7249999999999996                   50.57      68.074999999999989
   314   1      9.7249999999999996      52.515000000000001      66.129999999999981
   315   1      9.7249999999999996      54.459999999999994      33.064999999999991
   316   1      7.7800000000000011      56.404999999999994      36.954999999999991
   317   1      9.7249999999999996      54.459999999999994      36.954999999999991
   318   1      9.7249999999999996      56.404999999999994      35.009999999999998
   319   1      7.7800000000000011      54.459999999999994      38.899999999999999
   320   1      7.7800000000000011      56.404999999999994      40.844999999999999
   321   1      9.7249999999999996      54.459999999999994      40.844999999999999
   322   1      9.7249999999999996      56.404999999999994      38.899999999999999
   323   1      7.7800000000000011      54.459999999999994      42.789999999999992
   324   1      7.7800000000000011      56.404999999999994      44.734999999999999
   325   1      9.7249999999999996      54.459999999999994      44.734999999999999
   326   1      9.7249999999999996      56.404999999999994      42.789999999999992
   327   1      7.7800000000000011      54.459999999999994      46.679999999999993
   328   1      7.7800000000000011      56.404999999999994      48.624999999999993
   329   1      9.7249999999999996      54.459999999999994      48.624999999999993
   330   1      9.7249999999999996      56.404999999999994      46.679999999999993
   331   1      7.7800000000000011      54.459999999999994                   50.57
   332   1      7.7800000000000011      56.404999999999994      52.515000000000001
   333   1      9.7249999999999996      54.459999999999994      52.515000000000001
   334   1      9.7249999999999996      56.404999999999994                   50.57
   335   1      7.7800000000000011      54.459999999999994      54.459999999999994
   336   1      7.7800000000000011      56.404999999999994      56.404999999999994
   337   1      9.7249999999999996      54.459999999999994      56.404999999999994
   338   1      9.7249999999999996      56.404999999999994      54.459999999999994
   339   1      7.7800000000000011      54.459999999999994      58.350000000000001
   340   1      7.7800000000000011      56.404999999999994      60.295000000000002
   341   1      9.7249999999999996      54.459999999999994      60.295000000000002
   342   1      9.7249999999999996      56.404999999999994      58.350000000000001
   343   1      7.7800000000000011      54.459999999999994      62.239999999999995
   344   1      7.7800000000000011      56.404999999999994      64.184999999999974
   345   1      9.7249999999999996      54.459999999999994      64.184999999999974
   346   1      9.7249999999999996      56.404999999999994      62.239999999999995
   347   1      9.7249999999999996      54.459999999999994      68.074999999999989
   348   1      9.7249999999999996      56.404999999999994      66.129999999999981
   349   1      9.7249999999999996      58.350000000000001      33.064999999999991
   350   1      7.7800000000000011      60.295000000000002      36.954999999999991
   351   1      9.7249999999999996      58.350000000000001      36.954999999999991
   352   1      9.7249999999999996      60.295000000000002      35.009999999999998
   353   1      7.7800000000000011      58.350000000000001      38.899999999999999
   354   1      7.7800000000000011      60.295000000000002      40.844999999999999
   355   1      9.7249999999999996      58.350000000000001      40.844999999999999
   356   1      9.7249999999999996      60.295000000000002      38.899999999999999
   357   1      7.7800000000000011      58.350000000000001      42.789999999999992
   358   1      7.7800000000000011      60.295000000000002      44.734999999999999