model_files/CuFeNi/CuFeNi_30000/CuFeNi_520/CuFeNi_520_fcc_30029_temp.data (written by ASE) 

30029 	 atoms 
3  atom types
0.0                      87  xlo xhi
0.0                      87  ylo yhi
0.0                      87  zlo zhi


Atoms 

     1   1      1.7899999999999991      37.590000000000003      39.380000000000003
     2   1      1.7899999999999991      37.590000000000003      42.960000000000001
     3   1      1.7899999999999991      37.590000000000003      46.539999999999999
     4   1      1.7899999999999991      39.380000000000003      37.590000000000003
     5   1                       0      41.170000000000002      41.170000000000002
     6   1      1.7899999999999991      39.380000000000003      41.170000000000002
     7   1      1.7899999999999991      41.170000000000002      39.380000000000003
     8   1                       0      41.170000000000002                   44.75
     9   1      1.7899999999999991      39.380000000000003                   44.75
    10   1      1.7899999999999991      41.170000000000002      42.960000000000001
    11   1      1.7899999999999991      39.380000000000003      48.329999999999998
    12   1      1.7899999999999991      41.170000000000002      46.539999999999999
    13   1      1.7899999999999991      42.960000000000001      37.590000000000003
    14   1                       0                   44.75      41.170000000000002
    15   1      1.7899999999999991      42.960000000000001      41.170000000000002
    16   1      1.7899999999999991                   44.75      39.380000000000003
    17   1                       0      42.960000000000001      42.960000000000001
    18   1                       0                   44.75                   44.75
    19   1      1.7899999999999991      42.960000000000001                   44.75
    20   1      1.7899999999999991                   44.75      42.960000000000001
    21   1      1.7899999999999991      42.960000000000001      48.329999999999998
    22   1      1.7899999999999991                   44.75      46.539999999999999
    23   1      1.7899999999999991      46.539999999999999      37.590000000000003
    24   1      1.7899999999999991      46.539999999999999      41.170000000000002
    25   1      1.7899999999999991      48.329999999999998      39.380000000000003
    26   1      1.7899999999999991      46.539999999999999                   44.75
    27   1      1.7899999999999991      48.329999999999998      42.960000000000001
    28   1      1.7899999999999991      46.539999999999999      48.329999999999998
    29   1      1.7899999999999991      48.329999999999998      46.539999999999999
    30   1      5.3699999999999974      28.640000000000001                   30.43
    31   1      5.3699999999999974                   30.43      28.640000000000001
    32   1      5.3699999999999974      28.640000000000001      34.009999999999998
    33   1      5.3699999999999974                   30.43      32.219999999999999
    34   1      5.3699999999999974      28.640000000000001      37.590000000000003
    35   1      5.3699999999999974                   30.43      35.800000000000004
    36   1      5.3699999999999974      28.640000000000001      41.170000000000002
    37   1      5.3699999999999974                   30.43      39.380000000000003
    38   1      5.3699999999999974      28.640000000000001                   44.75
    39   1      5.3699999999999974                   30.43      42.960000000000001
    40   1      5.3699999999999974      28.640000000000001      48.329999999999998
    41   1      5.3699999999999974                   30.43      46.539999999999999
    42   1      5.3699999999999974      28.640000000000001      51.910000000000004
    43   1      5.3699999999999974                   30.43      50.120000000000005
    44   1      5.3699999999999974      28.640000000000001      55.490000000000002
    45   1      5.3699999999999974                   30.43      53.700000000000003
    46   1      5.3699999999999974                   30.43      57.280000000000001
    47   1      5.3699999999999974      32.219999999999999                   30.43
    48   1      5.3699999999999974      34.009999999999998      28.640000000000001
    49   1      3.5800000000000054      32.219999999999999      32.219999999999999
    50   1      3.5800000000000054      34.009999999999998      34.009999999999998
    51   1      5.3699999999999974      32.219999999999999      34.009999999999998
    52   1      5.3699999999999974      34.009999999999998      32.219999999999999
    53   1      3.5800000000000054      32.219999999999999      35.800000000000004
    54   1      3.5800000000000054      34.009999999999998      37.590000000000003
    55   1      5.3699999999999974      32.219999999999999      37.590000000000003
    56   1      5.3699999999999974      34.009999999999998      35.800000000000004
    57   1      3.5800000000000054      32.219999999999999      39.380000000000003
    58   1      3.5800000000000054      34.009999999999998      41.170000000000002
    59   1      5.3699999999999974      32.219999999999999      41.170000000000002
    60   1      5.3699999999999974      34.009999999999998      39.380000000000003
    61   1      3.5800000000000054      32.219999999999999      42.960000000000001
    62   1      3.5800000000000054      34.009999999999998                   44.75
    63   1      5.3699999999999974      32.219999999999999                   44.75
    64   1      5.3699999999999974      34.009999999999998      42.960000000000001
    65   1      3.5800000000000054      32.219999999999999      46.539999999999999
    66   1      3.5800000000000054      34.009999999999998      48.329999999999998
    67   1      5.3699999999999974      32.219999999999999      48.329999999999998
    68   1      5.3699999999999974      34.009999999999998      46.539999999999999
    69   1      3.5800000000000054      32.219999999999999      50.120000000000005
    70   1      3.5800000000000054      34.009999999999998      51.910000000000004
    71   1      5.3699999999999974      32.219999999999999      51.910000000000004
    72   1      5.3699999999999974      34.009999999999998      50.120000000000005
    73   1      3.5800000000000054      32.219999999999999      53.700000000000003
    74   1      5.3699999999999974      32.219999999999999      55.490000000000002
    75   1      5.3699999999999974      34.009999999999998      53.700000000000003
    76   1      5.3699999999999974      34.009999999999998      57.280000000000001
    77   1      5.3699999999999974      35.800000000000004                   30.43
    78   1      5.3699999999999974      37.590000000000003      28.640000000000001
    79   1      3.5800000000000054      35.800000000000004      32.219999999999999
    80   1      3.5800000000000054      37.590000000000003      34.009999999999998
    81   1      5.3699999999999974      35.800000000000004      34.009999999999998
    82   1      5.3699999999999974      37.590000000000003      32.219999999999999
    83   1      3.5800000000000054      35.800000000000004      35.800000000000004
    84   1      3.5800000000000054      37.590000000000003      37.590000000000003
    85   1      5.3699999999999974      35.800000000000004      37.590000000000003
    86   1      5.3699999999999974      37.590000000000003      35.800000000000004
    87   1      3.5800000000000054      35.800000000000004      39.380000000000003
    88   1      3.5800000000000054      37.590000000000003      41.170000000000002
    89   1      5.3699999999999974      35.800000000000004      41.170000000000002
    90   1      5.3699999999999974      37.590000000000003      39.380000000000003
    91   1      3.5800000000000054      35.800000000000004      42.960000000000001
    92   1      3.5800000000000054      37.590000000000003                   44.75
    93   1      5.3699999999999974      35.800000000000004                   44.75
    94   1      5.3699999999999974      37.590000000000003      42.960000000000001
    95   1      3.5800000000000054      35.800000000000004      46.539999999999999
    96   1      3.5800000000000054      37.590000000000003      48.329999999999998
    97   1      5.3699999999999974      35.800000000000004      48.329999999999998
    98   1      5.3699999999999974      37.590000000000003      46.539999999999999
    99   1      3.5800000000000054      35.800000000000004      50.120000000000005
   100   1      3.5800000000000054      37.590000000000003      51.910000000000004
   101   1      5.3699999999999974      35.800000000000004      51.910000000000004
   102   1      5.3699999999999974      37.590000000000003      50.120000000000005
   103   1      3.5800000000000054      35.800000000000004      53.700000000000003
   104   1      5.3699999999999974      35.800000000000004      55.490000000000002
   105   1      5.3699999999999974      37.590000000000003      53.700000000000003
   106   1      5.3699999999999974      37.590000000000003      57.280000000000001
   107   1      5.3699999999999974      39.380000000000003                   30.43
   108   1      5.3699999999999974      41.170000000000002      28.640000000000001
   109   1      3.5800000000000054      39.380000000000003      32.219999999999999
   110   1      3.5800000000000054      41.170000000000002      34.009999999999998
   111   1      5.3699999999999974      39.380000000000003      34.009999999999998
   112   1      5.3699999999999974      41.170000000000002      32.219999999999999
   113   1      3.5800000000000054      39.380000000000003      35.800000000000004
   114   1      3.5800000000000054      41.170000000000002      37.590000000000003
   115   1      5.3699999999999974      39.380000000000003      37.590000000000003
   116   1      5.3699999999999974      41.170000000000002      35.800000000000004
   117   1      3.5800000000000054      39.380000000000003      39.380000000000003
   118   1      3.5800000000000054      41.170000000000002      41.170000000000002
   119   1      5.3699999999999974      39.380000000000003      41.170000000000002
   120   1      5.3699999999999974      41.170000000000002      39.380000000000003
   121   1      3.5800000000000054      39.380000000000003      42.960000000000001
   122   1      3.5800000000000054      41.170000000000002                   44.75
   123   1      5.3699999999999974      39.380000000000003                   44.75
   124   1      5.3699999999999974      41.170000000000002      42.960000000000001
   125   1      3.5800000000000054      39.380000000000003      46.539999999999999
   126   1      3.5800000000000054      41.170000000000002      48.329999999999998
   127   1      5.3699999999999974      39.380000000000003      48.329999999999998
   128   1      5.3699999999999974      41.170000000000002      46.539999999999999
   129   1      3.5800000000000054      39.380000000000003      50.120000000000005
   130   1      3.5800000000000054      41.170000000000002      51.910000000000004
   131   1      5.3699999999999974      39.380000000000003      51.910000000000004
   132   1      5.3699999999999974      41.170000000000002      50.120000000000005
   133   1      3.5800000000000054      39.380000000000003      53.700000000000003
   134   1      5.3699999999999974      39.380000000000003      55.490000000000002
   135   1      5.3699999999999974      41.170000000000002      53.700000000000003
   136   1      5.3699999999999974      41.170000000000002      57.280000000000001
   137   1      5.3699999999999974      42.960000000000001                   30.43
   138   1      5.3699999999999974                   44.75      28.640000000000001
   139   1      3.5800000000000054      42.960000000000001      32.219999999999999
   140   1      3.5800000000000054                   44.75      34.009999999999998
   141   1      5.3699999999999974      42.960000000000001      34.009999999999998
   142   1      5.3699999999999974                   44.75      32.219999999999999
   143   1      3.5800000000000054      42.960000000000001      35.800000000000004
   144   1      3.5800000000000054                   44.75      37.590000000000003
   145   1      5.3699999999999974      42.960000000000001      37.590000000000003
   146   1      5.3699999999999974                   44.75      35.800000000000004
   147   1      3.5800000000000054      42.960000000000001      39.380000000000003
   148   1      3.5800000000000054                   44.75      41.170000000000002
   149   1      5.3699999999999974      42.960000000000001      41.170000000000002
   150   1      5.3699999999999974                   44.75      39.380000000000003
   151   1      3.5800000000000054      42.960000000000001      42.960000000000001
   152   1      3.5800000000000054                   44.75                   44.75
   153   1      5.3699999999999974      42.960000000000001                   44.75
   154   1      5.3699999999999974                   44.75      42.960000000000001
   155   1      3.5800000000000054      42.960000000000001      46.539999999999999
   156   1      3.5800000000000054                   44.75      48.329999999999998
   157   1      5.3699999999999974      42.960000000000001      48.329999999999998
   158   1      5.3699999999999974                   44.75      46.539999999999999
   159   1      3.5800000000000054      42.960000000000001      50.120000000000005
   160   1      3.5800000000000054                   44.75      51.910000000000004
   161   1      5.3699999999999974      42.960000000000001      51.910000000000004
   162   1      5.3699999999999974                   44.75      50.120000000000005
   163   1      3.5800000000000054      42.960000000000001      53.700000000000003
   164   1      5.3699999999999974      42.960000000000001      55.490000000000002
   165   1      5.3699999999999974                   44.75      53.700000000000003
   166   1      5.3699999999999974                   44.75      57.280000000000001
   167   1      5.3699999999999974      46.539999999999999                   30.43
   168   1      5.3699999999999974      48.329999999999998      28.640000000000001
   169   1      3.5800000000000054      46.539999999999999      32.219999999999999
   170   1      3.5800000000000054      48.329999999999998      34.009999999999998
   171   1      5.3699999999999974      46.539999999999999      34.009999999999998
   172   1      5.3699999999999974      48.329999999999998      32.219999999999999
   173   1      3.5800000000000054      46.539999999999999      35.800000000000004
   174   1      3.5800000000000054      48.329999999999998      37.590000000000003
   175   1      5.3699999999999974      46.539999999999999      37.590000000000003
   176   1      5.3699999999999974      48.329999999999998      35.800000000000004
   177   1      3.5800000000000054      46.539999999999999      39.380000000000003
   178   1      3.5800000000000054      48.329999999999998      41.170000000000002
   179   1      5.3699999999999974      46.539999999999999      41.170000000000002
   180   1      5.3699999999999974      48.329999999999998      39.380000000000003
   181   1      3.5800000000000054      46.539999999999999      42.960000000000001
   182   1      3.5800000000000054      48.329999999999998                   44.75
   183   1      5.3699999999999974      46.539999999999999                   44.75
   184   1      5.3699999999999974      48.329999999999998      42.960000000000001
   185   1      3.5800000000000054      46.539999999999999      46.539999999999999
   186   1      3.5800000000000054      48.329999999999998      48.329999999999998
   187   1      5.3699999999999974      46.539999999999999      48.329999999999998
   188   1      5.3699999999999974      48.329999999999998      46.539999999999999
   189   1      3.5800000000000054      46.539999999999999      50.120000000000005
   190   1      3.5800000000000054      48.329999999999998      51.910000000000004
   191   1      5.3699999999999974      46.539999999999999      51.910000000000004
   192   1      5.3699999999999974      48.329999999999998      50.120000000000005
   193   1      3.5800000000000054      46.539999999999999      53.700000000000003
   194   1      5.3699999999999974      46.539999999999999      55.490000000000002
   195   1      5.3699999999999974      48.329999999999998      53.700000000000003
   196   1      5.3699999999999974      48.329999999999998      57.280000000000001
   197   1      5.3699999999999974      50.120000000000005                   30.43
   198   1      5.3699999999999974      51.910000000000004      28.640000000000001
   199   1      3.5800000000000054      50.120000000000005      32.219999999999999
   200   1      3.5800000000000054      51.910000000000004      34.009999999999998
   201   1      5.3699999999999974      50.120000000000005      34.009999999999998
   202   1      5.3699999999999974      51.910000000000004      32.219999999999999
   203   1      3.5800000000000054      50.120000000000005      35.800000000000004
   204   1      3.5800000000000054      51.910000000000004      37.590000000000003
   205   1      5.3699999999999974      50.120000000000005      37.590000000000003
   206   1      5.3699999999999974      51.910000000000004      35.800000000000004
   207   1      3.5800000000000054      50.120000000000005      39.380000000000003
   208   1      3.5800000000000054      51.910000000000004      41.170000000000002
   209   1      5.3699999999999974      50.120000000000005      41.170000000000002
   210   1      5.3699999999999974      51.910000000000004      39.380000000000003
   211   1      3.5800000000000054      50.120000000000005      42.960000000000001
   212   1      3.5800000000000054      51.910000000000004                   44.75
   213   1      5.3699999999999974      50.120000000000005                   44.75
   214   1      5.3699999999999974      51.910000000000004      42.960000000000001
   215   1      3.5800000000000054      50.120000000000005      46.539999999999999
   216   1      3.5800000000000054      51.910000000000004      48.329999999999998
   217   1      5.3699999999999974      50.120000000000005      48.329999999999998
   218   1      5.3699999999999974      51.910000000000004      46.539999999999999
   219   1      3.5800000000000054      50.120000000000005      50.120000000000005
   220   1      3.5800000000000054      51.910000000000004      51.910000000000004
   221   1      5.3699999999999974      50.120000000000005      51.910000000000004
   222   1      5.3699999999999974      51.910000000000004      50.120000000000005
   223   1      3.5800000000000054      50.120000000000005      53.700000000000003
   224   1      5.3699999999999974      50.120000000000005      55.490000000000002
   225   1      5.3699999999999974      51.910000000000004      53.700000000000003
   226   1      5.3699999999999974      51.910000000000004      57.280000000000001
   227   1      5.3699999999999974      53.700000000000003                   30.43
   228   1      5.3699999999999974      55.490000000000002      28.640000000000001
   229   1      3.5800000000000054      53.700000000000003      32.219999999999999
   230   1      5.3699999999999974      53.700000000000003      34.009999999999998
   231   1      5.3699999999999974      55.490000000000002      32.219999999999999
   232   1      3.5800000000000054      53.700000000000003      35.800000000000004
   233   1      5.3699999999999974      53.700000000000003      37.590000000000003
   234   1      5.3699999999999974      55.490000000000002      35.800000000000004
   235   1      3.5800000000000054      53.700000000000003      39.380000000000003
   236   1      5.3699999999999974      53.700000000000003      41.170000000000002
   237   1      5.3699999999999974      55.490000000000002      39.380000000000003
   238   1      3.5800000000000054      53.700000000000003      42.960000000000001
   239   1      5.3699999999999974      53.700000000000003                   44.75
   240   1      5.3699999999999974      55.490000000000002      42.960000000000001
   241   1      3.5800000000000054      53.700000000000003      46.539999999999999
   242   1      5.3699999999999974      53.700000000000003      48.329999999999998
   243   1      5.3699999999999974      55.490000000000002      46.539999999999999
   244   1      3.5800000000000054      53.700000000000003      50.120000000000005
   245   1      5.3699999999999974      53.700000000000003      51.910000000000004
   246   1      5.3699999999999974      55.490000000000002      50.120000000000005
   247   1      3.5800000000000054      53.700000000000003      53.700000000000003
   248   1      5.3699999999999974      53.700000000000003      55.490000000000002
   249   1      5.3699999999999974      55.490000000000002      53.700000000000003
   250   1      5.3699999999999974      55.490000000000002      57.280000000000001
   251   1      5.3699999999999974      57.280000000000001                   30.43
   252   1      5.3699999999999974      57.280000000000001      34.009999999999998
   253   1      5.3699999999999974      57.280000000000001      37.590000000000003
   254   1      5.3699999999999974      57.280000000000001      41.170000000000002
   255   1      5.3699999999999974      57.280000000000001                   44.75
   256   1      5.3699999999999974      57.280000000000001      48.329999999999998
   257   1      5.3699999999999974      57.280000000000001      51.910000000000004
   258   1      5.3699999999999974      57.280000000000001      55.490000000000002
   259   1      8.9500000000000028      19.690000000000001      21.480000000000004
   260   1      8.9500000000000028      19.690000000000001      25.060000000000002
   261   1      8.9500000000000028      19.690000000000001      28.640000000000001
   262   1      8.9500000000000028      19.690000000000001      32.219999999999999
   263   1      8.9500000000000028      19.690000000000001      35.800000000000004
   264   1      8.9500000000000028      19.690000000000001      39.380000000000003
   265   1      8.9500000000000028      19.690000000000001      42.960000000000001
   266   1      8.9500000000000028      19.690000000000001      46.539999999999999
   267   1      8.9500000000000028      19.690000000000001      50.120000000000005
   268   1      8.9500000000000028      19.690000000000001      53.700000000000003
   269   1      8.9500000000000028      19.690000000000001      57.280000000000001
   270   1      8.9500000000000028      19.690000000000001      60.859999999999999
   271   1      8.9500000000000028      19.690000000000001      64.439999999999998
   272   1      8.9500000000000028      21.480000000000004      19.690000000000001
   273   1      7.1600000000000037                   23.27                   23.27
   274   1      8.9500000000000028      21.480000000000004                   23.27
   275   1      8.9500000000000028                   23.27      21.480000000000004
   276   1      7.1600000000000037                   23.27      26.850000000000001
   277   1      8.9500000000000028      21.480000000000004      26.850000000000001
   278   1      8.9500000000000028                   23.27      25.060000000000002
   279   1      7.1600000000000037                   23.27                   30.43
   280   1      8.9500000000000028      21.480000000000004                   30.43
   281   1      8.9500000000000028                   23.27      28.640000000000001
   282   1      7.1600000000000037                   23.27      34.009999999999998
   283   1      8.9500000000000028      21.480000000000004      34.009999999999998
   284   1      8.9500000000000028                   23.27      32.219999999999999
   285   1      7.1600000000000037                   23.27      37.590000000000003
   286   1      8.9500000000000028      21.480000000000004      37.590000000000003
   287   1      8.9500000000000028                   23.27      35.800000000000004
   288   1      7.1600000000000037                   23.27      41.170000000000002
   289   1      8.9500000000000028      21.480000000000004      41.170000000000002
   290   1      8.9500000000000028                   23.27      39.380000000000003
   291   1      7.1600000000000037                   23.27                   44.75
   292   1      8.9500000000000028      21.480000000000004                   44.75
   293   1      8.9500000000000028                   23.27      42.960000000000001
   294   1      7.1600000000000037                   23.27      48.329999999999998
   295   1      8.9500000000000028      21.480000000000004      48.329999999999998
   296   1      8.9500000000000028                   23.27      46.539999999999999
   297   1      7.1600000000000037                   23.27      51.910000000000004
   298   1      8.9500000000000028      21.480000000000004      51.910000000000004
   299   1      8.9500000000000028                   23.27      50.120000000000005
   300   1      7.1600000000000037                   23.27      55.490000000000002
   301   1      8.9500000000000028      21.480000000000004      55.490000000000002
   302   1      8.9500000000000028                   23.27      53.700000000000003
   303   1      7.1600000000000037                   23.27                   59.07
   304   1      8.9500000000000028      21.480000000000004                   59.07
   305   1      8.9500000000000028                   23.27      57.280000000000001
   306   1      7.1600000000000037                   23.27      62.649999999999999
   307   1      8.9500000000000028      21.480000000000004      62.649999999999999
   308   1      8.9500000000000028                   23.27      60.859999999999999
   309   1      8.9500000000000028      21.480000000000004      66.230000000000004
   310   1      8.9500000000000028                   23.27      64.439999999999998
   311   1      8.9500000000000028      25.060000000000002      19.690000000000001
   312   1      7.1600000000000037      26.850000000000001                   23.27
   313   1      8.9500000000000028      25.060000000000002                   23.27
   314   1      8.9500000000000028      26.850000000000001      21.480000000000004
   315   1      7.1600000000000037      25.060000000000002      25.060000000000002
   316   1      7.1600000000000037      26.850000000000001      26.850000000000001
   317   1      8.9500000000000028      25.060000000000002      26.850000000000001
   318   1      8.9500000000000028      26.850000000000001      25.060000000000002
   319   1      7.1600000000000037      25.060000000000002      28.640000000000001
   320   1      7.1600000000000037      26.850000000000001                   30.43
   321   1      8.9500000000000028      25.060000000000002                   30.43
   322   1      8.9500000000000028      26.850000000000001      28.640000000000001
   323   1      7.1600000000000037      25.060000000000002      32.219999999999999
   324   1      7.1600000000000037      26.850000000000001      34.009999999999998
   325   1      8.9500000000000028      25.060000000000002      34.009999999999998
   326   1      8.9500000000000028      26.850000000000001      32.219999999999999
   327   1      7.1600000000000037      25.060000000000002      35.800000000000004
   328   1      7.1600000000000037      26.850000000000001      37.590000000000003
   329   1      8.9500000000000028      25.060000000000002      37.590000000000003
   330   1      8.9500000000000028      26.850000000000001      35.800000000000004
   331   1      7.1600000000000037      25.060000000000002      39.380000000000003
   332   1      7.1600000000000037      26.850000000000001      41.170000000000002
   333   1      8.9500000000000028      25.060000000000002      41.170000000000002
   334   1      8.9500000000000028      26.850000000000001      39.380000000000003
   335   1      7.1600000000000037      25.060000000000002      42.960000000000001
   336   1      7.1600000000000037      26.850000000000001                   44.75
   337   1      8.9500000000000028      25.060000000000002                   44.75
   338   1      8.9500000000000028      26.850000000000001      42.960000000000001
   339   1      7.1600000000000037      25.060000000000002      46.539999999999999
   340   1      7.1600000000000037      26.850000000000001      48.329999999999998
   341   1      8.9500000000000028      25.060000000000002      48.329999999999998
   342   1      8.9500000000000028      26.850000000000001      46.539999999999999
   343   1      7.1600000000000037      25.060000000000002      50.120000000000005
   344   1      7.1600000000000037      26.850000000000001      51.910000000000004
   345   1      8.9500000000000028      25.060000000000002      51.910000000000004
   346   1      8.9500000000000028      26.850000000000001      50.120000000000005
   347   1      7.1600000000000037      25.060000000000002      53.700000000000003
   348   1      7.1600000000000037      26.850000000000001      55.490000000000002
   349   1      8.9500000000000028      25.060000000000002      55.490000000000002
   350   1      8.9500000000000028      26.850000000000001      53.700000000000003
   351   1      7.1600000000000037      25.060000000000002      57.280000000000001
   352   1      7.1600000000000037      26.850000000000001                   59.07
   353   1      8.9500000000000028      25.060000000000002                   59.07
   354   1      8.9500000000000028      26.850000000000001      57.280000000000001
   355   1      7.1600000000000037      25.060000000000002      60.859999999999999
   356   1      7.1600000000000037      26.850000000000001      62.649999999999999
   357   1      8.9500000000000028      25.060000000000002      62.649999999999999
   358   1      8.9500000000000028      26.850000000000001      60.859999999999999