model_files/CuFeNi/CuFeNi_30000/CuFeNi_532/CuFeNi_532_fcc_30213_temp.data (written by ASE) 

30213 	 atoms 
3  atom types
0.0                     100  xlo xhi
0.0                     100  ylo yhi
0.0                     100  zlo zhi


Atoms 

     1   1      1.7899999999999991                   44.75      50.120000000000012
     2   1      1.7899999999999991      46.540000000000006      48.330000000000005
     3   1      1.7899999999999991      48.330000000000005      46.540000000000006
     4   1      1.7899999999999991      46.540000000000006      51.910000000000004
     5   1      1.7899999999999991      48.330000000000005      50.120000000000012
     6   1      1.7899999999999991      48.330000000000005      53.700000000000003
     7   1      1.7899999999999991      50.120000000000012                   44.75
     8   1      1.7899999999999991      50.120000000000012      48.330000000000005
     9   1      1.7899999999999991      51.910000000000004      46.540000000000006
    10   1                       0      50.120000000000012      50.120000000000012
    11   1      1.7899999999999991      50.120000000000012      51.910000000000004
    12   1      1.7899999999999991      51.910000000000004      50.120000000000012
    13   1      1.7899999999999991      50.120000000000012      55.490000000000009
    14   1      1.7899999999999991      51.910000000000004      53.700000000000003
    15   1      1.7899999999999991      53.700000000000003      48.330000000000005
    16   1      1.7899999999999991      53.700000000000003      51.910000000000004
    17   1      1.7899999999999991      55.490000000000009      50.120000000000012
    18   1      5.3700000000000045      41.170000000000002      46.540000000000006
    19   1      5.3700000000000045      41.170000000000002      50.120000000000012
    20   1      5.3700000000000045      41.170000000000002      53.700000000000003
    21   1      5.3700000000000045      42.960000000000001                   44.75
    22   1      5.3700000000000045                   44.75      42.960000000000001
    23   1      3.5799999999999983                   44.75      48.330000000000005
    24   1      5.3700000000000045      42.960000000000001      48.330000000000005
    25   1      5.3700000000000045                   44.75      46.540000000000006
    26   1      3.5799999999999983      42.960000000000001      50.120000000000012
    27   1      3.5799999999999983                   44.75      51.910000000000004
    28   1      5.3700000000000045      42.960000000000001      51.910000000000004
    29   1      5.3700000000000045                   44.75      50.120000000000012
    30   1      5.3700000000000045      42.960000000000001      55.490000000000009
    31   1      5.3700000000000045                   44.75      53.700000000000003
    32   1      5.3700000000000045                   44.75      57.280000000000001
    33   1      5.3700000000000045      46.540000000000006      41.170000000000002
    34   1      3.5799999999999983      48.330000000000005                   44.75
    35   1      5.3700000000000045      46.540000000000006                   44.75
    36   1      5.3700000000000045      48.330000000000005      42.960000000000001
    37   1      3.5799999999999983      46.540000000000006      46.540000000000006
    38   1      3.5799999999999983      48.330000000000005      48.330000000000005
    39   1      5.3700000000000045      46.540000000000006      48.330000000000005
    40   1      5.3700000000000045      48.330000000000005      46.540000000000006
    41   1      3.5799999999999983      46.540000000000006      50.120000000000012
    42   1      3.5799999999999983      48.330000000000005      51.910000000000004
    43   1      5.3700000000000045      46.540000000000006      51.910000000000004
    44   1      5.3700000000000045      48.330000000000005      50.120000000000012
    45   1      3.5799999999999983      46.540000000000006      53.700000000000003
    46   1      3.5799999999999983      48.330000000000005      55.490000000000009
    47   1      5.3700000000000045      46.540000000000006      55.490000000000009
    48   1      5.3700000000000045      48.330000000000005      53.700000000000003
    49   1      5.3700000000000045      46.540000000000006                   59.07
    50   1      5.3700000000000045      48.330000000000005      57.280000000000001
    51   1      5.3700000000000045      50.120000000000012      41.170000000000002
    52   1      3.5799999999999983      50.120000000000012      42.960000000000001
    53   1      3.5799999999999983      51.910000000000004                   44.75
    54   1      5.3700000000000045      50.120000000000012                   44.75
    55   1      5.3700000000000045      51.910000000000004      42.960000000000001
    56   1      3.5799999999999983      50.120000000000012      46.540000000000006
    57   1      3.5799999999999983      51.910000000000004      48.330000000000005
    58   1      5.3700000000000045      50.120000000000012      48.330000000000005
    59   1      5.3700000000000045      51.910000000000004      46.540000000000006
    60   1      3.5799999999999983      50.120000000000012      50.120000000000012
    61   1      3.5799999999999983      51.910000000000004      51.910000000000004
    62   1      5.3700000000000045      50.120000000000012      51.910000000000004
    63   1      5.3700000000000045      51.910000000000004      50.120000000000012
    64   1      3.5799999999999983      50.120000000000012      53.700000000000003
    65   1      3.5799999999999983      51.910000000000004      55.490000000000009
    66   1      5.3700000000000045      50.120000000000012      55.490000000000009
    67   1      5.3700000000000045      51.910000000000004      53.700000000000003
    68   1      3.5799999999999983      50.120000000000012      57.280000000000001
    69   1      5.3700000000000045      50.120000000000012                   59.07
    70   1      5.3700000000000045      51.910000000000004      57.280000000000001
    71   1      5.3700000000000045      53.700000000000003      41.170000000000002
    72   1      5.3700000000000045      53.700000000000003                   44.75
    73   1      5.3700000000000045      55.490000000000009      42.960000000000001
    74   1      3.5799999999999983      53.700000000000003      46.540000000000006
    75   1      3.5799999999999983      55.490000000000009      48.330000000000005
    76   1      5.3700000000000045      53.700000000000003      48.330000000000005
    77   1      5.3700000000000045      55.490000000000009      46.540000000000006
    78   1      3.5799999999999983      53.700000000000003      50.120000000000012
    79   1      3.5799999999999983      55.490000000000009      51.910000000000004
    80   1      5.3700000000000045      53.700000000000003      51.910000000000004
    81   1      5.3700000000000045      55.490000000000009      50.120000000000012
    82   1      3.5799999999999983      53.700000000000003      53.700000000000003
    83   1      5.3700000000000045      53.700000000000003      55.490000000000009
    84   1      5.3700000000000045      55.490000000000009      53.700000000000003
    85   1      5.3700000000000045      53.700000000000003                   59.07
    86   1      5.3700000000000045      55.490000000000009      57.280000000000001
    87   1      5.3700000000000045      57.280000000000001                   44.75
    88   1      5.3700000000000045      57.280000000000001      48.330000000000005
    89   1      5.3700000000000045                   59.07      46.540000000000006
    90   1      3.5799999999999983      57.280000000000001      50.120000000000012
    91   1      5.3700000000000045      57.280000000000001      51.910000000000004
    92   1      5.3700000000000045                   59.07      50.120000000000012
    93   1      5.3700000000000045      57.280000000000001      55.490000000000009
    94   1      5.3700000000000045                   59.07      53.700000000000003
    95   1      8.9500000000000028      34.009999999999998      50.120000000000012
    96   1      8.9500000000000028      37.590000000000003      42.960000000000001
    97   1      7.1600000000000037      37.590000000000003      48.330000000000005
    98   1      8.9500000000000028      35.800000000000004      48.330000000000005
    99   1      8.9500000000000028      37.590000000000003      46.540000000000006
   100   1      7.1600000000000037      35.800000000000004      50.120000000000012
   101   1      7.1600000000000037      37.590000000000003      51.910000000000004
   102   1      8.9500000000000028      35.800000000000004      51.910000000000004
   103   1      8.9500000000000028      37.590000000000003      50.120000000000012
   104   1      8.9500000000000028      37.590000000000003      53.700000000000003
   105   1      8.9500000000000028      37.590000000000003      57.280000000000001
   106   1      8.9500000000000028      39.380000000000003      41.170000000000002
   107   1      8.9500000000000028      41.170000000000002      39.380000000000003
   108   1      7.1600000000000037      41.170000000000002                   44.75
   109   1      8.9500000000000028      39.380000000000003                   44.75
   110   1      8.9500000000000028      41.170000000000002      42.960000000000001
   111   1      7.1600000000000037      39.380000000000003      46.540000000000006
   112   1      7.1600000000000037      41.170000000000002      48.330000000000005
   113   1      8.9500000000000028      39.380000000000003      48.330000000000005
   114   1      8.9500000000000028      41.170000000000002      46.540000000000006
   115   1      7.1600000000000037      39.380000000000003      50.120000000000012
   116   1      7.1600000000000037      41.170000000000002      51.910000000000004
   117   1      8.9500000000000028      39.380000000000003      51.910000000000004
   118   1      8.9500000000000028      41.170000000000002      50.120000000000012
   119   1      7.1600000000000037      39.380000000000003      53.700000000000003
   120   1      7.1600000000000037      41.170000000000002      55.490000000000009
   121   1      8.9500000000000028      39.380000000000003      55.490000000000009
   122   1      8.9500000000000028      41.170000000000002      53.700000000000003
   123   1      8.9500000000000028      39.380000000000003                   59.07
   124   1      8.9500000000000028      41.170000000000002      57.280000000000001
   125   1      8.9500000000000028      41.170000000000002      60.859999999999999
   126   1      8.9500000000000028      42.960000000000001      37.590000000000003
   127   1      7.1600000000000037                   44.75      41.170000000000002
   128   1      8.9500000000000028      42.960000000000001      41.170000000000002
   129   1      8.9500000000000028                   44.75      39.380000000000003
   130   1      7.1600000000000037      42.960000000000001      42.960000000000001
   131   1      7.1600000000000037                   44.75                   44.75
   132   1      8.9500000000000028      42.960000000000001                   44.75
   133   1      8.9500000000000028                   44.75      42.960000000000001
   134   1      7.1600000000000037      42.960000000000001      46.540000000000006
   135   1      7.1600000000000037                   44.75      48.330000000000005
   136   1      8.9500000000000028      42.960000000000001      48.330000000000005
   137   1      8.9500000000000028                   44.75      46.540000000000006
   138   1      7.1600000000000037      42.960000000000001      50.120000000000012
   139   1      7.1600000000000037                   44.75      51.910000000000004
   140   1      8.9500000000000028      42.960000000000001      51.910000000000004
   141   1      8.9500000000000028                   44.75      50.120000000000012
   142   1      7.1600000000000037      42.960000000000001      53.700000000000003
   143   1      7.1600000000000037                   44.75      55.490000000000009
   144   1      8.9500000000000028      42.960000000000001      55.490000000000009
   145   1      8.9500000000000028                   44.75      53.700000000000003
   146   1      7.1600000000000037      42.960000000000001      57.280000000000001
   147   1      7.1600000000000037                   44.75                   59.07
   148   1      8.9500000000000028      42.960000000000001                   59.07
   149   1      8.9500000000000028                   44.75      57.280000000000001
   150   1      8.9500000000000028      42.960000000000001      62.650000000000006
   151   1      8.9500000000000028                   44.75      60.859999999999999
   152   1      7.1600000000000037      48.330000000000005      37.590000000000003
   153   1      8.9500000000000028      46.540000000000006      37.590000000000003
   154   1      8.9500000000000028      48.330000000000005      35.800000000000004
   155   1      7.1600000000000037      46.540000000000006      39.380000000000003
   156   1      7.1600000000000037      48.330000000000005      41.170000000000002
   157   1      8.9500000000000028      46.540000000000006      41.170000000000002
   158   1      8.9500000000000028      48.330000000000005      39.380000000000003
   159   1      7.1600000000000037      46.540000000000006      42.960000000000001
   160   1      7.1600000000000037      48.330000000000005                   44.75
   161   1      8.9500000000000028      46.540000000000006                   44.75
   162   1      8.9500000000000028      48.330000000000005      42.960000000000001
   163   1      7.1600000000000037      46.540000000000006      46.540000000000006
   164   1      7.1600000000000037      48.330000000000005      48.330000000000005
   165   1      8.9500000000000028      46.540000000000006      48.330000000000005
   166   1      8.9500000000000028      48.330000000000005      46.540000000000006
   167   1      7.1600000000000037      46.540000000000006      50.120000000000012
   168   1      7.1600000000000037      48.330000000000005      51.910000000000004
   169   1      8.9500000000000028      46.540000000000006      51.910000000000004
   170   1      8.9500000000000028      48.330000000000005      50.120000000000012
   171   1      7.1600000000000037      46.540000000000006      53.700000000000003
   172   1      7.1600000000000037      48.330000000000005      55.490000000000009
   173   1      8.9500000000000028      46.540000000000006      55.490000000000009
   174   1      8.9500000000000028      48.330000000000005      53.700000000000003
   175   1      7.1600000000000037      46.540000000000006      57.280000000000001
   176   1      7.1600000000000037      48.330000000000005                   59.07
   177   1      8.9500000000000028      46.540000000000006                   59.07
   178   1      8.9500000000000028      48.330000000000005      57.280000000000001
   179   1      7.1600000000000037      46.540000000000006      60.859999999999999
   180   1      7.1600000000000037      48.330000000000005      62.650000000000006
   181   1      8.9500000000000028      46.540000000000006      62.650000000000006
   182   1      8.9500000000000028      48.330000000000005      60.859999999999999
   183   1      8.9500000000000028      48.330000000000005      64.439999999999998
   184   1      8.9500000000000028      50.120000000000012      34.009999999999998
   185   1      7.1600000000000037      50.120000000000012      35.800000000000004
   186   1      7.1600000000000037      51.910000000000004      37.590000000000003
   187   1      8.9500000000000028      50.120000000000012      37.590000000000003
   188   1      8.9500000000000028      51.910000000000004      35.800000000000004
   189   1      7.1600000000000037      50.120000000000012      39.380000000000003
   190   1      7.1600000000000037      51.910000000000004      41.170000000000002
   191   1      8.9500000000000028      50.120000000000012      41.170000000000002
   192   1      8.9500000000000028      51.910000000000004      39.380000000000003
   193   1      7.1600000000000037      50.120000000000012      42.960000000000001
   194   1      7.1600000000000037      51.910000000000004                   44.75
   195   1      8.9500000000000028      50.120000000000012                   44.75
   196   1      8.9500000000000028      51.910000000000004      42.960000000000001
   197   1      7.1600000000000037      50.120000000000012      46.540000000000006
   198   1      7.1600000000000037      51.910000000000004      48.330000000000005
   199   1      8.9500000000000028      50.120000000000012      48.330000000000005
   200   1      8.9500000000000028      51.910000000000004      46.540000000000006
   201   1      7.1600000000000037      50.120000000000012      50.120000000000012
   202   1      7.1600000000000037      51.910000000000004      51.910000000000004
   203   1      8.9500000000000028      50.120000000000012      51.910000000000004
   204   1      8.9500000000000028      51.910000000000004      50.120000000000012
   205   1      7.1600000000000037      50.120000000000012      53.700000000000003
   206   1      7.1600000000000037      51.910000000000004      55.490000000000009
   207   1      8.9500000000000028      50.120000000000012      55.490000000000009
   208   1      8.9500000000000028      51.910000000000004      53.700000000000003
   209   1      7.1600000000000037      50.120000000000012      57.280000000000001
   210   1      7.1600000000000037      51.910000000000004                   59.07
   211   1      8.9500000000000028      50.120000000000012                   59.07
   212   1      8.9500000000000028      51.910000000000004      57.280000000000001
   213   1      7.1600000000000037      50.120000000000012      60.859999999999999
   214   1      7.1600000000000037      51.910000000000004      62.650000000000006
   215   1      8.9500000000000028      50.120000000000012      62.650000000000006
   216   1      8.9500000000000028      51.910000000000004      60.859999999999999
   217   1      7.1600000000000037      50.120000000000012      64.439999999999998
   218   1      8.9500000000000028      50.120000000000012      66.230000000000004
   219   1      8.9500000000000028      51.910000000000004      64.439999999999998
   220   1      8.9500000000000028      53.700000000000003      37.590000000000003
   221   1      7.1600000000000037      53.700000000000003      39.380000000000003
   222   1      7.1600000000000037      55.490000000000009      41.170000000000002
   223   1      8.9500000000000028      53.700000000000003      41.170000000000002
   224   1      8.9500000000000028      55.490000000000009      39.380000000000003
   225   1      7.1600000000000037      53.700000000000003      42.960000000000001
   226   1      7.1600000000000037      55.490000000000009                   44.75
   227   1      8.9500000000000028      53.700000000000003                   44.75
   228   1      8.9500000000000028      55.490000000000009      42.960000000000001
   229   1      7.1600000000000037      53.700000000000003      46.540000000000006
   230   1      7.1600000000000037      55.490000000000009      48.330000000000005
   231   1      8.9500000000000028      53.700000000000003      48.330000000000005
   232   1      8.9500000000000028      55.490000000000009      46.540000000000006
   233   1      7.1600000000000037      53.700000000000003      50.120000000000012
   234   1      7.1600000000000037      55.490000000000009      51.910000000000004
   235   1      8.9500000000000028      53.700000000000003      51.910000000000004
   236   1      8.9500000000000028      55.490000000000009      50.120000000000012
   237   1      7.1600000000000037      53.700000000000003      53.700000000000003
   238   1      7.1600000000000037      55.490000000000009      55.490000000000009
   239   1      8.9500000000000028      53.700000000000003      55.490000000000009
   240   1      8.9500000000000028      55.490000000000009      53.700000000000003
   241   1      7.1600000000000037      53.700000000000003      57.280000000000001
   242   1      7.1600000000000037      55.490000000000009                   59.07
   243   1      8.9500000000000028      53.700000000000003                   59.07
   244   1      8.9500000000000028      55.490000000000009      57.280000000000001
   245   1      7.1600000000000037      53.700000000000003      60.859999999999999
   246   1      8.9500000000000028      53.700000000000003      62.650000000000006
   247   1      8.9500000000000028      55.490000000000009      60.859999999999999
   248   1      8.9500000000000028      57.280000000000001      37.590000000000003
   249   1      8.9500000000000028      57.280000000000001      41.170000000000002
   250   1      8.9500000000000028                   59.07      39.380000000000003
   251   1      7.1600000000000037      57.280000000000001      42.960000000000001
   252   1      7.1600000000000037                   59.07                   44.75
   253   1      8.9500000000000028      57.280000000000001                   44.75
   254   1      8.9500000000000028                   59.07      42.960000000000001
   255   1      7.1600000000000037      57.280000000000001      46.540000000000006
   256   1      7.1600000000000037                   59.07      48.330000000000005
   257   1      8.9500000000000028      57.280000000000001      48.330000000000005
   258   1      8.9500000000000028                   59.07      46.540000000000006
   259   1      7.1600000000000037      57.280000000000001      50.120000000000012
   260   1      7.1600000000000037                   59.07      51.910000000000004
   261   1      8.9500000000000028      57.280000000000001      51.910000000000004
   262   1      8.9500000000000028                   59.07      50.120000000000012
   263   1      7.1600000000000037      57.280000000000001      53.700000000000003
   264   1      7.1600000000000037                   59.07      55.490000000000009
   265   1      8.9500000000000028      57.280000000000001      55.490000000000009
   266   1      8.9500000000000028                   59.07      53.700000000000003
   267   1      7.1600000000000037      57.280000000000001      57.280000000000001
   268   1      8.9500000000000028      57.280000000000001                   59.07
   269   1      8.9500000000000028                   59.07      57.280000000000001
   270   1      8.9500000000000028      57.280000000000001      62.650000000000006
   271   1      8.9500000000000028                   59.07      60.859999999999999
   272   1      8.9500000000000028      60.859999999999999      41.170000000000002
   273   1      8.9500000000000028      60.859999999999999                   44.75
   274   1      8.9500000000000028      62.650000000000006      42.960000000000001
   275   1      7.1600000000000037      60.859999999999999      46.540000000000006
   276   1      7.1600000000000037      62.650000000000006      48.330000000000005
   277   1      8.9500000000000028      60.859999999999999      48.330000000000005
   278   1      8.9500000000000028      62.650000000000006      46.540000000000006
   279   1      7.1600000000000037      60.859999999999999      50.120000000000012
   280   1      7.1600000000000037      62.650000000000006      51.910000000000004
   281   1      8.9500000000000028      60.859999999999999      51.910000000000004
   282   1      8.9500000000000028      62.650000000000006      50.120000000000012
   283   1      7.1600000000000037      60.859999999999999      53.700000000000003
   284   1      8.9500000000000028      60.859999999999999      55.490000000000009
   285   1      8.9500000000000028      62.650000000000006      53.700000000000003
   286   1      8.9500000000000028      60.859999999999999                   59.07
   287   1      8.9500000000000028      62.650000000000006      57.280000000000001
   288   1      8.9500000000000028      64.439999999999998      48.330000000000005
   289   1      7.1600000000000037      64.439999999999998      50.120000000000012
   290   1      8.9500000000000028      64.439999999999998      51.910000000000004
   291   1      8.9500000000000028      66.230000000000004      50.120000000000012
   292   1      12.530000000000003      26.850000000000001      50.120000000000012
   293   1      12.530000000000003      28.640000000000001      48.330000000000005
   294   1      12.530000000000003                   30.43      46.540000000000006
   295   1      12.530000000000003      28.640000000000001      51.910000000000004
   296   1      12.530000000000003                   30.43      50.120000000000012
   297   1      12.530000000000003                   30.43      53.700000000000003
   298   1      12.530000000000003      34.009999999999998      39.380000000000003
   299   1      10.740000000000002      34.009999999999998                   44.75
   300   1      12.530000000000003      32.219999999999999                   44.75
   301   1      12.530000000000003      34.009999999999998      42.960000000000001
   302   1      10.740000000000002      32.219999999999999      46.540000000000006
   303   1      10.740000000000002      34.009999999999998      48.330000000000005
   304   1      12.530000000000003      32.219999999999999      48.330000000000005
   305   1      12.530000000000003      34.009999999999998      46.540000000000006
   306   1      10.740000000000002      32.219999999999999      50.120000000000012
   307   1      10.740000000000002      34.009999999999998      51.910000000000004
   308   1      12.530000000000003      32.219999999999999      51.910000000000004
   309   1      12.530000000000003      34.009999999999998      50.120000000000012
   310   1      10.740000000000002      32.219999999999999      53.700000000000003
   311   1      10.740000000000002      34.009999999999998      55.490000000000009
   312   1      12.530000000000003      32.219999999999999      55.490000000000009
   313   1      12.530000000000003      34.009999999999998      53.700000000000003
   314   1      12.530000000000003      34.009999999999998      57.280000000000001
   315   1      12.530000000000003      34.009999999999998      60.859999999999999
   316   1      12.530000000000003      35.800000000000004      37.590000000000003
   317   1      12.530000000000003      37.590000000000003      35.800000000000004
   318   1      10.740000000000002      37.590000000000003      41.170000000000002
   319   1      12.530000000000003      35.800000000000004      41.170000000000002
   320   1      12.530000000000003      37.590000000000003      39.380000000000003
   321   1      10.740000000000002      35.800000000000004      42.960000000000001
   322   1      10.740000000000002      37.590000000000003                   44.75
   323   1      12.530000000000003      35.800000000000004                   44.75
   324   1      12.530000000000003      37.590000000000003      42.960000000000001
   325   1      10.740000000000002      35.800000000000004      46.540000000000006
   326   1      10.740000000000002      37.590000000000003      48.330000000000005
   327   1      12.530000000000003      35.800000000000004      48.330000000000005
   328   1      12.530000000000003      37.590000000000003      46.540000000000006
   329   1      10.740000000000002      35.800000000000004      50.120000000000012
   330   1      10.740000000000002      37.590000000000003      51.910000000000004
   331   1      12.530000000000003      35.800000000000004      51.910000000000004
   332   1      12.530000000000003      37.590000000000003      50.120000000000012
   333   1      10.740000000000002      35.800000000000004      53.700000000000003
   334   1      10.740000000000002      37.590000000000003      55.490000000000009
   335   1      12.530000000000003      35.800000000000004      55.490000000000009
   336   1      12.530000000000003      37.590000000000003      53.700000000000003
   337   1      10.740000000000002      35.800000000000004      57.280000000000001
   338   1      10.740000000000002      37.590000000000003                   59.07
   339   1      12.530000000000003      35.800000000000004                   59.07
   340   1      12.530000000000003      37.590000000000003      57.280000000000001
   341   1      12.530000000000003      35.800000000000004      62.650000000000006
   342   1      12.530000000000003      37.590000000000003      60.859999999999999
   343   1      12.530000000000003      37.590000000000003      64.439999999999998
   344   1      12.530000000000003      39.380000000000003      34.009999999999998
   345   1      10.740000000000002      41.170000000000002      37.590000000000003
   346   1      12.530000000000003      39.380000000000003      37.590000000000003
   347   1      12.530000000000003      41.170000000000002      35.800000000000004
   348   1      10.740000000000002      39.380000000000003      39.380000000000003
   349   1      10.740000000000002      41.170000000000002      41.170000000000002
   350   1      12.530000000000003      39.380000000000003      41.170000000000002
   351   1      12.530000000000003      41.170000000000002      39.380000000000003
   352   1      10.740000000000002      39.380000000000003      42.960000000000001
   353   1      10.740000000000002      41.170000000000002                   44.75
   354   1      12.530000000000003      39.380000000000003                   44.75
   355   1      12.530000000000003      41.170000000000002      42.960000000000001
   356   1      10.740000000000002      39.380000000000003      46.540000000000006
   357   1      10.740000000000002      41.170000000000002      48.330000000000005
   358   1      12.530000000000003      39.380000000000003      48.330000000000005