model_files/PdCu/PdCu_30000/PdCu_533/PdCu_533_fcc_30085_temp.data (written by ASE) 

30085 	 atoms 
2  atom types
0.0                     111  xlo xhi
0.0                     111  ylo yhi
0.0                     111  zlo zhi


Atoms 

     1   1                       0      52.850000000000001      54.737499999999997
     2   1                       0      54.737499999999997      52.850000000000001
     3   1                       0      54.737499999999997      56.624999999999993
     4   1                       0      56.624999999999993      54.737499999999997
     5   1      3.7749999999999986      49.074999999999996      54.737499999999997
     6   1      1.8874999999999957      52.850000000000001      52.850000000000001
     7   1      3.7749999999999986      50.962499999999999      52.850000000000001
     8   1      3.7749999999999986      52.850000000000001      50.962499999999999
     9   1      1.8874999999999957      50.962499999999999      54.737499999999997
    10   1      1.8874999999999957      52.850000000000001      56.624999999999993
    11   1      3.7749999999999986      50.962499999999999      56.624999999999993
    12   1      3.7749999999999986      52.850000000000001      54.737499999999997
    13   1      3.7749999999999986      52.850000000000001      58.512499999999996
    14   1      3.7749999999999986      54.737499999999997      49.074999999999996
    15   1      1.8874999999999957      54.737499999999997      50.962499999999999
    16   1      1.8874999999999957      56.624999999999993      52.850000000000001
    17   1      3.7749999999999986      54.737499999999997      52.850000000000001
    18   1      3.7749999999999986      56.624999999999993      50.962499999999999
    19   1      1.8874999999999957      54.737499999999997      54.737499999999997
    20   1      1.8874999999999957      56.624999999999993      56.624999999999993
    21   1      3.7749999999999986      54.737499999999997      56.624999999999993
    22   1      3.7749999999999986      56.624999999999993      54.737499999999997
    23   1      1.8874999999999957      54.737499999999997      58.512499999999996
    24   1      3.7749999999999986      54.737499999999997      60.399999999999999
    25   1      3.7749999999999986      56.624999999999993      58.512499999999996
    26   1      3.7749999999999986      58.512499999999996      52.850000000000001
    27   1      1.8874999999999957      58.512499999999996      54.737499999999997
    28   1      3.7749999999999986      58.512499999999996      56.624999999999993
    29   1      3.7749999999999986      60.399999999999999      54.737499999999997
    30   1      7.5499999999999972      41.524999999999999      54.737499999999997
    31   1      5.6624999999999943      45.299999999999997      52.850000000000001
    32   1      7.5499999999999972      43.412499999999994      52.850000000000001
    33   1      7.5499999999999972      45.299999999999997      50.962499999999999
    34   1      5.6624999999999943      43.412499999999994      54.737499999999997
    35   1      5.6624999999999943      45.299999999999997      56.624999999999993
    36   1      7.5499999999999972      43.412499999999994      56.624999999999993
    37   1      7.5499999999999972      45.299999999999997      54.737499999999997
    38   1      7.5499999999999972      45.299999999999997      58.512499999999996
    39   1      5.6624999999999943      49.074999999999996      49.074999999999996
    40   1      7.5499999999999972      47.187499999999993      49.074999999999996
    41   1      7.5499999999999972      49.074999999999996      47.187499999999993
    42   1      5.6624999999999943      47.187499999999993      50.962499999999999
    43   1      5.6624999999999943      49.074999999999996      52.850000000000001
    44   1      7.5499999999999972      47.187499999999993      52.850000000000001
    45   1      7.5499999999999972      49.074999999999996      50.962499999999999
    46   1      5.6624999999999943      47.187499999999993      54.737499999999997
    47   1      5.6624999999999943      49.074999999999996      56.624999999999993
    48   1      7.5499999999999972      47.187499999999993      56.624999999999993
    49   1      7.5499999999999972      49.074999999999996      54.737499999999997
    50   1      5.6624999999999943      47.187499999999993      58.512499999999996
    51   1      5.6624999999999943      49.074999999999996      60.399999999999999
    52   1      7.5499999999999972      47.187499999999993      60.399999999999999
    53   1      7.5499999999999972      49.074999999999996      58.512499999999996
    54   1      7.5499999999999972      49.074999999999996      62.287499999999987
    55   1      5.6624999999999943      52.850000000000001      45.299999999999997
    56   1      7.5499999999999972      50.962499999999999      45.299999999999997
    57   1      7.5499999999999972      52.850000000000001      43.412499999999994
    58   1      5.6624999999999943      50.962499999999999      47.187499999999993
    59   1      5.6624999999999943      52.850000000000001      49.074999999999996
    60   1      7.5499999999999972      50.962499999999999      49.074999999999996
    61   1      7.5499999999999972      52.850000000000001      47.187499999999993
    62   1      5.6624999999999943      50.962499999999999      50.962499999999999
    63   1      5.6624999999999943      52.850000000000001      52.850000000000001
    64   1      7.5499999999999972      50.962499999999999      52.850000000000001
    65   1      7.5499999999999972      52.850000000000001      50.962499999999999
    66   1      5.6624999999999943      50.962499999999999      54.737499999999997
    67   1      5.6624999999999943      52.850000000000001      56.624999999999993
    68   1      7.5499999999999972      50.962499999999999      56.624999999999993
    69   1      7.5499999999999972      52.850000000000001      54.737499999999997
    70   1      5.6624999999999943      50.962499999999999      58.512499999999996
    71   1      5.6624999999999943      52.850000000000001      60.399999999999999
    72   1      7.5499999999999972      50.962499999999999      60.399999999999999
    73   1      7.5499999999999972      52.850000000000001      58.512499999999996
    74   1      5.6624999999999943      50.962499999999999      62.287499999999987
    75   1      5.6624999999999943      52.850000000000001      64.174999999999997
    76   1      7.5499999999999972      50.962499999999999      64.174999999999997
    77   1      7.5499999999999972      52.850000000000001      62.287499999999987
    78   1      7.5499999999999972      52.850000000000001                 66.0625
    79   1      7.5499999999999972      54.737499999999997      41.524999999999999
    80   1      5.6624999999999943      54.737499999999997      43.412499999999994
    81   1      5.6624999999999943      56.624999999999993      45.299999999999997
    82   1      7.5499999999999972      54.737499999999997      45.299999999999997
    83   1      7.5499999999999972      56.624999999999993      43.412499999999994
    84   1      5.6624999999999943      54.737499999999997      47.187499999999993
    85   1      5.6624999999999943      56.624999999999993      49.074999999999996
    86   1      7.5499999999999972      54.737499999999997      49.074999999999996
    87   1      7.5499999999999972      56.624999999999993      47.187499999999993
    88   1      5.6624999999999943      54.737499999999997      50.962499999999999
    89   1      5.6624999999999943      56.624999999999993      52.850000000000001
    90   1      7.5499999999999972      54.737499999999997      52.850000000000001
    91   1      7.5499999999999972      56.624999999999993      50.962499999999999
    92   1      5.6624999999999943      54.737499999999997      54.737499999999997
    93   1      5.6624999999999943      56.624999999999993      56.624999999999993
    94   1      7.5499999999999972      54.737499999999997      56.624999999999993
    95   1      7.5499999999999972      56.624999999999993      54.737499999999997
    96   1      5.6624999999999943      54.737499999999997      58.512499999999996
    97   1      5.6624999999999943      56.624999999999993      60.399999999999999
    98   1      7.5499999999999972      54.737499999999997      60.399999999999999
    99   1      7.5499999999999972      56.624999999999993      58.512499999999996
   100   1      5.6624999999999943      54.737499999999997      62.287499999999987
   101   1      5.6624999999999943      56.624999999999993      64.174999999999997
   102   1      7.5499999999999972      54.737499999999997      64.174999999999997
   103   1      7.5499999999999972      56.624999999999993      62.287499999999987
   104   1      5.6624999999999943      54.737499999999997                 66.0625
   105   1      7.5499999999999972      54.737499999999997      67.950000000000003
   106   1      7.5499999999999972      56.624999999999993                 66.0625
   107   1      7.5499999999999972      58.512499999999996      45.299999999999997
   108   1      5.6624999999999943      58.512499999999996      47.187499999999993
   109   1      5.6624999999999943      60.399999999999999      49.074999999999996
   110   1      7.5499999999999972      58.512499999999996      49.074999999999996
   111   1      7.5499999999999972      60.399999999999999      47.187499999999993
   112   1      5.6624999999999943      58.512499999999996      50.962499999999999
   113   1      5.6624999999999943      60.399999999999999      52.850000000000001
   114   1      7.5499999999999972      58.512499999999996      52.850000000000001
   115   1      7.5499999999999972      60.399999999999999      50.962499999999999
   116   1      5.6624999999999943      58.512499999999996      54.737499999999997
   117   1      5.6624999999999943      60.399999999999999      56.624999999999993
   118   1      7.5499999999999972      58.512499999999996      56.624999999999993
   119   1      7.5499999999999972      60.399999999999999      54.737499999999997
   120   1      5.6624999999999943      58.512499999999996      58.512499999999996
   121   1      5.6624999999999943      60.399999999999999      60.399999999999999
   122   1      7.5499999999999972      58.512499999999996      60.399999999999999
   123   1      7.5499999999999972      60.399999999999999      58.512499999999996
   124   1      5.6624999999999943      58.512499999999996      62.287499999999987
   125   1      7.5499999999999972      58.512499999999996      64.174999999999997
   126   1      7.5499999999999972      60.399999999999999      62.287499999999987
   127   1      7.5499999999999972      62.287499999999987      49.074999999999996
   128   1      5.6624999999999943      62.287499999999987      50.962499999999999
   129   1      5.6624999999999943      64.174999999999997      52.850000000000001
   130   1      7.5499999999999972      62.287499999999987      52.850000000000001
   131   1      7.5499999999999972      64.174999999999997      50.962499999999999
   132   1      5.6624999999999943      62.287499999999987      54.737499999999997
   133   1      5.6624999999999943      64.174999999999997      56.624999999999993
   134   1      7.5499999999999972      62.287499999999987      56.624999999999993
   135   1      7.5499999999999972      64.174999999999997      54.737499999999997
   136   1      5.6624999999999943      62.287499999999987      58.512499999999996
   137   1      7.5499999999999972      62.287499999999987      60.399999999999999
   138   1      7.5499999999999972      64.174999999999997      58.512499999999996
   139   1      7.5499999999999972                 66.0625      52.850000000000001
   140   1      5.6624999999999943                 66.0625      54.737499999999997
   141   1      7.5499999999999972                 66.0625      56.624999999999993
   142   1      7.5499999999999972      67.950000000000003      54.737499999999997
   143   1      11.324999999999996      33.975000000000001      54.737499999999997
   144   1      11.324999999999996      35.862499999999997      52.850000000000001
   145   1      11.324999999999996                   37.75      50.962499999999999
   146   1      11.324999999999996      35.862499999999997      56.624999999999993
   147   1      11.324999999999996                   37.75      54.737499999999997
   148   1      11.324999999999996                   37.75      58.512499999999996
   149   1      11.324999999999996      39.637499999999996      49.074999999999996
   150   1      11.324999999999996      41.524999999999999      47.187499999999993
   151   1                  9.4375      41.524999999999999      52.850000000000001
   152   1      11.324999999999996      39.637499999999996      52.850000000000001
   153   1      11.324999999999996      41.524999999999999      50.962499999999999
   154   1                  9.4375      39.637499999999996      54.737499999999997
   155   1                  9.4375      41.524999999999999      56.624999999999993
   156   1      11.324999999999996      39.637499999999996      56.624999999999993
   157   1      11.324999999999996      41.524999999999999      54.737499999999997
   158   1      11.324999999999996      39.637499999999996      60.399999999999999
   159   1      11.324999999999996      41.524999999999999      58.512499999999996
   160   1      11.324999999999996      41.524999999999999      62.287499999999987
   161   1      11.324999999999996      43.412499999999994      45.299999999999997
   162   1      11.324999999999996      45.299999999999997      43.412499999999994
   163   1                  9.4375      45.299999999999997      49.074999999999996
   164   1      11.324999999999996      43.412499999999994      49.074999999999996
   165   1      11.324999999999996      45.299999999999997      47.187499999999993
   166   1                  9.4375      43.412499999999994      50.962499999999999
   167   1                  9.4375      45.299999999999997      52.850000000000001
   168   1      11.324999999999996      43.412499999999994      52.850000000000001
   169   1      11.324999999999996      45.299999999999997      50.962499999999999
   170   1                  9.4375      43.412499999999994      54.737499999999997
   171   1                  9.4375      45.299999999999997      56.624999999999993
   172   1      11.324999999999996      43.412499999999994      56.624999999999993
   173   1      11.324999999999996      45.299999999999997      54.737499999999997
   174   1                  9.4375      43.412499999999994      58.512499999999996
   175   1                  9.4375      45.299999999999997      60.399999999999999
   176   1      11.324999999999996      43.412499999999994      60.399999999999999
   177   1      11.324999999999996      45.299999999999997      58.512499999999996
   178   1      11.324999999999996      43.412499999999994      64.174999999999997
   179   1      11.324999999999996      45.299999999999997      62.287499999999987
   180   1      11.324999999999996      45.299999999999997                 66.0625
   181   1      11.324999999999996      47.187499999999993      41.524999999999999
   182   1      11.324999999999996      49.074999999999996      39.637499999999996
   183   1                  9.4375      49.074999999999996      45.299999999999997
   184   1      11.324999999999996      47.187499999999993      45.299999999999997
   185   1      11.324999999999996      49.074999999999996      43.412499999999994
   186   1                  9.4375      47.187499999999993      47.187499999999993
   187   1                  9.4375      49.074999999999996      49.074999999999996
   188   1      11.324999999999996      47.187499999999993      49.074999999999996
   189   1      11.324999999999996      49.074999999999996      47.187499999999993
   190   1                  9.4375      47.187499999999993      50.962499999999999
   191   1                  9.4375      49.074999999999996      52.850000000000001
   192   1      11.324999999999996      47.187499999999993      52.850000000000001
   193   1      11.324999999999996      49.074999999999996      50.962499999999999
   194   1                  9.4375      47.187499999999993      54.737499999999997
   195   1                  9.4375      49.074999999999996      56.624999999999993
   196   1      11.324999999999996      47.187499999999993      56.624999999999993
   197   1      11.324999999999996      49.074999999999996      54.737499999999997
   198   1                  9.4375      47.187499999999993      58.512499999999996
   199   1                  9.4375      49.074999999999996      60.399999999999999
   200   1      11.324999999999996      47.187499999999993      60.399999999999999
   201   1      11.324999999999996      49.074999999999996      58.512499999999996
   202   1                  9.4375      47.187499999999993      62.287499999999987
   203   1                  9.4375      49.074999999999996      64.174999999999997
   204   1      11.324999999999996      47.187499999999993      64.174999999999997
   205   1      11.324999999999996      49.074999999999996      62.287499999999987
   206   1      11.324999999999996      47.187499999999993      67.950000000000003
   207   1      11.324999999999996      49.074999999999996                 66.0625
   208   1      11.324999999999996      49.074999999999996      69.837499999999991
   209   1      11.324999999999996      50.962499999999999                   37.75
   210   1      11.324999999999996      52.850000000000001      35.862499999999997
   211   1                  9.4375      52.850000000000001      41.524999999999999
   212   1      11.324999999999996      50.962499999999999      41.524999999999999
   213   1      11.324999999999996      52.850000000000001      39.637499999999996
   214   1                  9.4375      50.962499999999999      43.412499999999994
   215   1                  9.4375      52.850000000000001      45.299999999999997
   216   1      11.324999999999996      50.962499999999999      45.299999999999997
   217   1      11.324999999999996      52.850000000000001      43.412499999999994
   218   1                  9.4375      50.962499999999999      47.187499999999993
   219   1                  9.4375      52.850000000000001      49.074999999999996
   220   1      11.324999999999996      50.962499999999999      49.074999999999996
   221   1      11.324999999999996      52.850000000000001      47.187499999999993
   222   1                  9.4375      50.962499999999999      50.962499999999999
   223   1                  9.4375      52.850000000000001      52.850000000000001
   224   1      11.324999999999996      50.962499999999999      52.850000000000001
   225   1      11.324999999999996      52.850000000000001      50.962499999999999
   226   1                  9.4375      50.962499999999999      54.737499999999997
   227   1                  9.4375      52.850000000000001      56.624999999999993
   228   1      11.324999999999996      50.962499999999999      56.624999999999993
   229   1      11.324999999999996      52.850000000000001      54.737499999999997
   230   1                  9.4375      50.962499999999999      58.512499999999996
   231   1                  9.4375      52.850000000000001      60.399999999999999
   232   1      11.324999999999996      50.962499999999999      60.399999999999999
   233   1      11.324999999999996      52.850000000000001      58.512499999999996
   234   1                  9.4375      50.962499999999999      62.287499999999987
   235   1                  9.4375      52.850000000000001      64.174999999999997
   236   1      11.324999999999996      50.962499999999999      64.174999999999997
   237   1      11.324999999999996      52.850000000000001      62.287499999999987
   238   1                  9.4375      50.962499999999999                 66.0625
   239   1                  9.4375      52.850000000000001      67.950000000000003
   240   1      11.324999999999996      50.962499999999999      67.950000000000003
   241   1      11.324999999999996      52.850000000000001                 66.0625
   242   1      11.324999999999996      50.962499999999999      71.724999999999994
   243   1      11.324999999999996      52.850000000000001      69.837499999999991
   244   1      11.324999999999996      52.850000000000001      73.612499999999997
   245   1      11.324999999999996      54.737499999999997      33.975000000000001
   246   1      11.324999999999996      54.737499999999997                   37.75
   247   1      11.324999999999996      56.624999999999993      35.862499999999997
   248   1                  9.4375      54.737499999999997      39.637499999999996
   249   1                  9.4375      56.624999999999993      41.524999999999999
   250   1      11.324999999999996      54.737499999999997      41.524999999999999
   251   1      11.324999999999996      56.624999999999993      39.637499999999996
   252   1                  9.4375      54.737499999999997      43.412499999999994
   253   1                  9.4375      56.624999999999993      45.299999999999997
   254   1      11.324999999999996      54.737499999999997      45.299999999999997
   255   1      11.324999999999996      56.624999999999993      43.412499999999994
   256   1                  9.4375      54.737499999999997      47.187499999999993
   257   1                  9.4375      56.624999999999993      49.074999999999996
   258   1      11.324999999999996      54.737499999999997      49.074999999999996
   259   1      11.324999999999996      56.624999999999993      47.187499999999993
   260   1                  9.4375      54.737499999999997      50.962499999999999
   261   1                  9.4375      56.624999999999993      52.850000000000001
   262   1      11.324999999999996      54.737499999999997      52.850000000000001
   263   1      11.324999999999996      56.624999999999993      50.962499999999999
   264   1                  9.4375      54.737499999999997      54.737499999999997
   265   1                  9.4375      56.624999999999993      56.624999999999993
   266   1      11.324999999999996      54.737499999999997      56.624999999999993
   267   1      11.324999999999996      56.624999999999993      54.737499999999997
   268   1                  9.4375      54.737499999999997      58.512499999999996
   269   1                  9.4375      56.624999999999993      60.399999999999999
   270   1      11.324999999999996      54.737499999999997      60.399999999999999
   271   1      11.324999999999996      56.624999999999993      58.512499999999996
   272   1                  9.4375      54.737499999999997      62.287499999999987
   273   1                  9.4375      56.624999999999993      64.174999999999997
   274   1      11.324999999999996      54.737499999999997      64.174999999999997
   275   1      11.324999999999996      56.624999999999993      62.287499999999987
   276   1                  9.4375      54.737499999999997                 66.0625
   277   1                  9.4375      56.624999999999993      67.950000000000003
   278   1      11.324999999999996      54.737499999999997      67.950000000000003
   279   1      11.324999999999996      56.624999999999993                 66.0625
   280   1                  9.4375      54.737499999999997      69.837499999999991
   281   1      11.324999999999996      54.737499999999997      71.724999999999994
   282   1      11.324999999999996      56.624999999999993      69.837499999999991
   283   1      11.324999999999996      54.737499999999997                    75.5
   284   1      11.324999999999996      56.624999999999993      73.612499999999997
   285   1      11.324999999999996      58.512499999999996                   37.75
   286   1      11.324999999999996      58.512499999999996      41.524999999999999
   287   1      11.324999999999996      60.399999999999999      39.637499999999996
   288   1                  9.4375      58.512499999999996      43.412499999999994
   289   1                  9.4375      60.399999999999999      45.299999999999997
   290   1      11.324999999999996      58.512499999999996      45.299999999999997
   291   1      11.324999999999996      60.399999999999999      43.412499999999994
   292   1                  9.4375      58.512499999999996      47.187499999999993
   293   1                  9.4375      60.399999999999999      49.074999999999996
   294   1      11.324999999999996      58.512499999999996      49.074999999999996
   295   1      11.324999999999996      60.399999999999999      47.187499999999993
   296   1                  9.4375      58.512499999999996      50.962499999999999
   297   1                  9.4375      60.399999999999999      52.850000000000001
   298   1      11.324999999999996      58.512499999999996      52.850000000000001
   299   1      11.324999999999996      60.399999999999999      50.962499999999999
   300   1                  9.4375      58.512499999999996      54.737499999999997
   301   1                  9.4375      60.399999999999999      56.624999999999993
   302   1      11.324999999999996      58.512499999999996      56.624999999999993
   303   1      11.324999999999996      60.399999999999999      54.737499999999997
   304   1                  9.4375      58.512499999999996      58.512499999999996
   305   1                  9.4375      60.399999999999999      60.399999999999999
   306   1      11.324999999999996      58.512499999999996      60.399999999999999
   307   1      11.324999999999996      60.399999999999999      58.512499999999996
   308   1                  9.4375      58.512499999999996      62.287499999999987
   309   1                  9.4375      60.399999999999999      64.174999999999997
   310   1      11.324999999999996      58.512499999999996      64.174999999999997
   311   1      11.324999999999996      60.399999999999999      62.287499999999987
   312   1                  9.4375      58.512499999999996                 66.0625
   313   1      11.324999999999996      58.512499999999996      67.950000000000003
   314   1      11.324999999999996      60.399999999999999                 66.0625
   315   1      11.324999999999996      58.512499999999996      71.724999999999994
   316   1      11.324999999999996      60.399999999999999      69.837499999999991
   317   1      11.324999999999996      62.287499999999987      41.524999999999999
   318   1      11.324999999999996      62.287499999999987      45.299999999999997
   319   1      11.324999999999996      64.174999999999997      43.412499999999994
   320   1                  9.4375      62.287499999999987      47.187499999999993
   321   1                  9.4375      64.174999999999997      49.074999999999996
   322   1      11.324999999999996      62.287499999999987      49.074999999999996
   323   1      11.324999999999996      64.174999999999997      47.187499999999993
   324   1                  9.4375      62.287499999999987      50.962499999999999
   325   1                  9.4375      64.174999999999997      52.850000000000001
   326   1      11.324999999999996      62.287499999999987      52.850000000000001
   327   1      11.324999999999996      64.174999999999997      50.962499999999999
   328   1                  9.4375      62.287499999999987      54.737499999999997
   329   1                  9.4375      64.174999999999997      56.624999999999993
   330   1      11.324999999999996      62.287499999999987      56.624999999999993
   331   1      11.324999999999996      64.174999999999997      54.737499999999997
   332   1                  9.4375      62.287499999999987      58.512499999999996
   333   1                  9.4375      64.174999999999997      60.399999999999999
   334   1      11.324999999999996      62.287499999999987      60.399999999999999
   335   1      11.324999999999996      64.174999999999997      58.512499999999996
   336   1                  9.4375      62.287499999999987      62.287499999999987
   337   1      11.324999999999996      62.287499999999987      64.174999999999997
   338   1      11.324999999999996      64.174999999999997      62.287499999999987
   339   1      11.324999999999996      62.287499999999987      67.950000000000003
   340   1      11.324999999999996      64.174999999999997                 66.0625
   341   1      11.324999999999996                 66.0625      45.299999999999997
   342   1      11.324999999999996                 66.0625      49.074999999999996
   343   1      11.324999999999996      67.950000000000003      47.187499999999993
   344   1                  9.4375                 66.0625      50.962499999999999
   345   1                  9.4375      67.950000000000003      52.850000000000001
   346   1      11.324999999999996                 66.0625      52.850000000000001
   347   1      11.324999999999996      67.950000000000003      50.962499999999999
   348   1                  9.4375                 66.0625      54.737499999999997
   349   1                  9.4375      67.950000000000003      56.624999999999993
   350   1      11.324999999999996                 66.0625      56.624999999999993
   351   1      11.324999999999996      67.950000000000003      54.737499999999997
   352   1                  9.4375                 66.0625      58.512499999999996
   353   1      11.324999999999996                 66.0625      60.399999999999999
   354   1      11.324999999999996      67.950000000000003      58.512499999999996
   355   1      11.324999999999996                 66.0625      64.174999999999997
   356   1      11.324999999999996      67.950000000000003      62.287499999999987
   357   1      11.324999999999996      69.837499999999991      49.074999999999996
   358   1      11.324999999999996      69.837499999999991      52.850000000000001