model_files/Ag/Ag_30000/Ag_511/data.Ag_511_fcc_30527 (written by ASE) 

30527 	 atoms 
1  atom types
0.0                      94  xlo xhi
0.0                      94  ylo yhi
0.0                      94  zlo zhi


Atoms 

     1   1                       0      44.989999999999995      47.034999999999997
     2   1                       0      47.034999999999997      44.989999999999995
     3   1                       0      47.034999999999997      49.079999999999998
     4   1                       0      49.079999999999998      47.034999999999997
     5   1      4.0899999999999963      24.539999999999999      47.034999999999997
     6   1      4.0899999999999963      26.584999999999994      44.989999999999995
     7   1      4.0899999999999963      28.629999999999995      42.944999999999993
     8   1      4.0899999999999963      26.584999999999994      49.079999999999998
     9   1      4.0899999999999963      28.629999999999995      47.034999999999997
    10   1      4.0899999999999963      28.629999999999995      51.124999999999993
    11   1      4.0899999999999963      30.674999999999994      40.899999999999999
    12   1      4.0899999999999963      32.719999999999999      38.854999999999997
    13   1      4.0899999999999963      30.674999999999994      44.989999999999995
    14   1      4.0899999999999963      32.719999999999999      42.944999999999993
    15   1      4.0899999999999963      30.674999999999994      49.079999999999998
    16   1      4.0899999999999963      32.719999999999999      47.034999999999997
    17   1      4.0899999999999963      30.674999999999994      53.170000000000002
    18   1      4.0899999999999963      32.719999999999999      51.124999999999993
    19   1      4.0899999999999963      32.719999999999999      55.214999999999996
    20   1      4.0899999999999963      34.765000000000001      36.810000000000002
    21   1      4.0899999999999963      36.810000000000002      34.765000000000001
    22   1      4.0899999999999963      34.765000000000001      40.899999999999999
    23   1      4.0899999999999963      36.810000000000002      38.854999999999997
    24   1      2.0450000000000017      36.810000000000002      44.989999999999995
    25   1      4.0899999999999963      34.765000000000001      44.989999999999995
    26   1      4.0899999999999963      36.810000000000002      42.944999999999993
    27   1      2.0450000000000017      34.765000000000001      47.034999999999997
    28   1      2.0450000000000017      36.810000000000002      49.079999999999998
    29   1      4.0899999999999963      34.765000000000001      49.079999999999998
    30   1      4.0899999999999963      36.810000000000002      47.034999999999997
    31   1      4.0899999999999963      34.765000000000001      53.170000000000002
    32   1      4.0899999999999963      36.810000000000002      51.124999999999993
    33   1      4.0899999999999963      34.765000000000001      57.259999999999991
    34   1      4.0899999999999963      36.810000000000002      55.214999999999996
    35   1      4.0899999999999963      36.810000000000002      59.304999999999993
    36   1      4.0899999999999963      38.854999999999997      32.719999999999999
    37   1      4.0899999999999963      40.899999999999999      30.674999999999994
    38   1      4.0899999999999963      38.854999999999997      36.810000000000002
    39   1      4.0899999999999963      40.899999999999999      34.765000000000001
    40   1      2.0450000000000017      40.899999999999999      40.899999999999999
    41   1      4.0899999999999963      38.854999999999997      40.899999999999999
    42   1      4.0899999999999963      40.899999999999999      38.854999999999997
    43   1      2.0450000000000017      38.854999999999997      42.944999999999993
    44   1      2.0450000000000017      40.899999999999999      44.989999999999995
    45   1      4.0899999999999963      38.854999999999997      44.989999999999995
    46   1      4.0899999999999963      40.899999999999999      42.944999999999993
    47   1      2.0450000000000017      38.854999999999997      47.034999999999997
    48   1      2.0450000000000017      40.899999999999999      49.079999999999998
    49   1      4.0899999999999963      38.854999999999997      49.079999999999998
    50   1      4.0899999999999963      40.899999999999999      47.034999999999997
    51   1      2.0450000000000017      38.854999999999997      51.124999999999993
    52   1      2.0450000000000017      40.899999999999999      53.170000000000002
    53   1      4.0899999999999963      38.854999999999997      53.170000000000002
    54   1      4.0899999999999963      40.899999999999999      51.124999999999993
    55   1      4.0899999999999963      38.854999999999997      57.259999999999991
    56   1      4.0899999999999963      40.899999999999999      55.214999999999996
    57   1      4.0899999999999963      38.854999999999997      61.349999999999987
    58   1      4.0899999999999963      40.899999999999999      59.304999999999993
    59   1      4.0899999999999963      40.899999999999999      63.394999999999996
    60   1      4.0899999999999963      42.944999999999993      28.629999999999995
    61   1      4.0899999999999963      44.989999999999995      26.584999999999994
    62   1      4.0899999999999963      42.944999999999993      32.719999999999999
    63   1      4.0899999999999963      44.989999999999995      30.674999999999994
    64   1      2.0450000000000017      44.989999999999995      36.810000000000002
    65   1      4.0899999999999963      42.944999999999993      36.810000000000002
    66   1      4.0899999999999963      44.989999999999995      34.765000000000001
    67   1      2.0450000000000017      42.944999999999993      38.854999999999997
    68   1      2.0450000000000017      44.989999999999995      40.899999999999999
    69   1      4.0899999999999963      42.944999999999993      40.899999999999999
    70   1      4.0899999999999963      44.989999999999995      38.854999999999997
    71   1      2.0450000000000017      42.944999999999993      42.944999999999993
    72   1      2.0450000000000017      44.989999999999995      44.989999999999995
    73   1      4.0899999999999963      42.944999999999993      44.989999999999995
    74   1      4.0899999999999963      44.989999999999995      42.944999999999993
    75   1      2.0450000000000017      42.944999999999993      47.034999999999997
    76   1      2.0450000000000017      44.989999999999995      49.079999999999998
    77   1      4.0899999999999963      42.944999999999993      49.079999999999998
    78   1      4.0899999999999963      44.989999999999995      47.034999999999997
    79   1      2.0450000000000017      42.944999999999993      51.124999999999993
    80   1      2.0450000000000017      44.989999999999995      53.170000000000002
    81   1      4.0899999999999963      42.944999999999993      53.170000000000002
    82   1      4.0899999999999963      44.989999999999995      51.124999999999993
    83   1      2.0450000000000017      42.944999999999993      55.214999999999996
    84   1      2.0450000000000017      44.989999999999995      57.259999999999991
    85   1      4.0899999999999963      42.944999999999993      57.259999999999991
    86   1      4.0899999999999963      44.989999999999995      55.214999999999996
    87   1      4.0899999999999963      42.944999999999993      61.349999999999987
    88   1      4.0899999999999963      44.989999999999995      59.304999999999993
    89   1      4.0899999999999963      42.944999999999993      65.439999999999998
    90   1      4.0899999999999963      44.989999999999995      63.394999999999996
    91   1      4.0899999999999963      44.989999999999995      67.484999999999999
    92   1      4.0899999999999963      47.034999999999997      24.539999999999999
    93   1      4.0899999999999963      47.034999999999997      28.629999999999995
    94   1      4.0899999999999963      49.079999999999998      26.584999999999994
    95   1      4.0899999999999963      47.034999999999997      32.719999999999999
    96   1      4.0899999999999963      49.079999999999998      30.674999999999994
    97   1      2.0450000000000017      47.034999999999997      34.765000000000001
    98   1      2.0450000000000017      49.079999999999998      36.810000000000002
    99   1      4.0899999999999963      47.034999999999997      36.810000000000002
   100   1      4.0899999999999963      49.079999999999998      34.765000000000001
   101   1      2.0450000000000017      47.034999999999997      38.854999999999997
   102   1      2.0450000000000017      49.079999999999998      40.899999999999999
   103   1      4.0899999999999963      47.034999999999997      40.899999999999999
   104   1      4.0899999999999963      49.079999999999998      38.854999999999997
   105   1      2.0450000000000017      47.034999999999997      42.944999999999993
   106   1      2.0450000000000017      49.079999999999998      44.989999999999995
   107   1      4.0899999999999963      47.034999999999997      44.989999999999995
   108   1      4.0899999999999963      49.079999999999998      42.944999999999993
   109   1      2.0450000000000017      47.034999999999997      47.034999999999997
   110   1      2.0450000000000017      49.079999999999998      49.079999999999998
   111   1      4.0899999999999963      47.034999999999997      49.079999999999998
   112   1      4.0899999999999963      49.079999999999998      47.034999999999997
   113   1      2.0450000000000017      47.034999999999997      51.124999999999993
   114   1      2.0450000000000017      49.079999999999998      53.170000000000002
   115   1      4.0899999999999963      47.034999999999997      53.170000000000002
   116   1      4.0899999999999963      49.079999999999998      51.124999999999993
   117   1      2.0450000000000017      47.034999999999997      55.214999999999996
   118   1      2.0450000000000017      49.079999999999998      57.259999999999991
   119   1      4.0899999999999963      47.034999999999997      57.259999999999991
   120   1      4.0899999999999963      49.079999999999998      55.214999999999996
   121   1      2.0450000000000017      47.034999999999997      59.304999999999993
   122   1      4.0899999999999963      47.034999999999997      61.349999999999987
   123   1      4.0899999999999963      49.079999999999998      59.304999999999993
   124   1      4.0899999999999963      47.034999999999997      65.439999999999998
   125   1      4.0899999999999963      49.079999999999998      63.394999999999996
   126   1      4.0899999999999963      47.034999999999997      69.530000000000001
   127   1      4.0899999999999963      49.079999999999998      67.484999999999999
   128   1      4.0899999999999963      51.124999999999993      28.629999999999995
   129   1      4.0899999999999963      51.124999999999993      32.719999999999999
   130   1      4.0899999999999963      53.170000000000002      30.674999999999994
   131   1      4.0899999999999963      51.124999999999993      36.810000000000002
   132   1      4.0899999999999963      53.170000000000002      34.765000000000001
   133   1      2.0450000000000017      51.124999999999993      38.854999999999997
   134   1      2.0450000000000017      53.170000000000002      40.899999999999999
   135   1      4.0899999999999963      51.124999999999993      40.899999999999999
   136   1      4.0899999999999963      53.170000000000002      38.854999999999997
   137   1      2.0450000000000017      51.124999999999993      42.944999999999993
   138   1      2.0450000000000017      53.170000000000002      44.989999999999995
   139   1      4.0899999999999963      51.124999999999993      44.989999999999995
   140   1      4.0899999999999963      53.170000000000002      42.944999999999993
   141   1      2.0450000000000017      51.124999999999993      47.034999999999997
   142   1      2.0450000000000017      53.170000000000002      49.079999999999998
   143   1      4.0899999999999963      51.124999999999993      49.079999999999998
   144   1      4.0899999999999963      53.170000000000002      47.034999999999997
   145   1      2.0450000000000017      51.124999999999993      51.124999999999993
   146   1      2.0450000000000017      53.170000000000002      53.170000000000002
   147   1      4.0899999999999963      51.124999999999993      53.170000000000002
   148   1      4.0899999999999963      53.170000000000002      51.124999999999993
   149   1      2.0450000000000017      51.124999999999993      55.214999999999996
   150   1      4.0899999999999963      51.124999999999993      57.259999999999991
   151   1      4.0899999999999963      53.170000000000002      55.214999999999996
   152   1      4.0899999999999963      51.124999999999993      61.349999999999987
   153   1      4.0899999999999963      53.170000000000002      59.304999999999993
   154   1      4.0899999999999963      51.124999999999993      65.439999999999998
   155   1      4.0899999999999963      53.170000000000002      63.394999999999996
   156   1      4.0899999999999963      55.214999999999996      32.719999999999999
   157   1      4.0899999999999963      55.214999999999996      36.810000000000002
   158   1      4.0899999999999963      57.259999999999991      34.765000000000001
   159   1      4.0899999999999963      55.214999999999996      40.899999999999999
   160   1      4.0899999999999963      57.259999999999991      38.854999999999997
   161   1      2.0450000000000017      55.214999999999996      42.944999999999993
   162   1      2.0450000000000017      57.259999999999991      44.989999999999995
   163   1      4.0899999999999963      55.214999999999996      44.989999999999995
   164   1      4.0899999999999963      57.259999999999991      42.944999999999993
   165   1      2.0450000000000017      55.214999999999996      47.034999999999997
   166   1      2.0450000000000017      57.259999999999991      49.079999999999998
   167   1      4.0899999999999963      55.214999999999996      49.079999999999998
   168   1      4.0899999999999963      57.259999999999991      47.034999999999997
   169   1      2.0450000000000017      55.214999999999996      51.124999999999993
   170   1      4.0899999999999963      55.214999999999996      53.170000000000002
   171   1      4.0899999999999963      57.259999999999991      51.124999999999993
   172   1      4.0899999999999963      55.214999999999996      57.259999999999991
   173   1      4.0899999999999963      57.259999999999991      55.214999999999996
   174   1      4.0899999999999963      55.214999999999996      61.349999999999987
   175   1      4.0899999999999963      57.259999999999991      59.304999999999993
   176   1      4.0899999999999963      59.304999999999993      36.810000000000002
   177   1      4.0899999999999963      59.304999999999993      40.899999999999999
   178   1      4.0899999999999963      61.349999999999987      38.854999999999997
   179   1      4.0899999999999963      59.304999999999993      44.989999999999995
   180   1      4.0899999999999963      61.349999999999987      42.944999999999993
   181   1      2.0450000000000017      59.304999999999993      47.034999999999997
   182   1      4.0899999999999963      59.304999999999993      49.079999999999998
   183   1      4.0899999999999963      61.349999999999987      47.034999999999997
   184   1      4.0899999999999963      59.304999999999993      53.170000000000002
   185   1      4.0899999999999963      61.349999999999987      51.124999999999993
   186   1      4.0899999999999963      59.304999999999993      57.259999999999991
   187   1      4.0899999999999963      61.349999999999987      55.214999999999996
   188   1      4.0899999999999963      63.394999999999996      40.899999999999999
   189   1      4.0899999999999963      63.394999999999996      44.989999999999995
   190   1      4.0899999999999963      65.439999999999998      42.944999999999993
   191   1      4.0899999999999963      63.394999999999996      49.079999999999998
   192   1      4.0899999999999963      65.439999999999998      47.034999999999997
   193   1      4.0899999999999963      63.394999999999996      53.170000000000002
   194   1      4.0899999999999963      65.439999999999998      51.124999999999993
   195   1      4.0899999999999963      67.484999999999999      44.989999999999995
   196   1      4.0899999999999963      67.484999999999999      49.079999999999998
   197   1      4.0899999999999963      69.530000000000001      47.034999999999997
   198   1      8.1799999999999997      8.1799999999999997      42.944999999999993
   199   1      8.1799999999999997      8.1799999999999997      47.034999999999997
   200   1      8.1799999999999997      8.1799999999999997      51.124999999999993
   201   1      8.1799999999999997      10.224999999999994      40.899999999999999
   202   1      8.1799999999999997      12.269999999999996      38.854999999999997
   203   1      8.1799999999999997      10.224999999999994      44.989999999999995
   204   1      8.1799999999999997      12.269999999999996      42.944999999999993
   205   1      8.1799999999999997      10.224999999999994      49.079999999999998
   206   1      8.1799999999999997      12.269999999999996      47.034999999999997
   207   1      8.1799999999999997      10.224999999999994      53.170000000000002
   208   1      8.1799999999999997      12.269999999999996      51.124999999999993
   209   1      8.1799999999999997      12.269999999999996      55.214999999999996
   210   1      8.1799999999999997      14.314999999999998      36.810000000000002
   211   1      8.1799999999999997      16.359999999999999      34.765000000000001
   212   1      8.1799999999999997      14.314999999999998      40.899999999999999
   213   1      8.1799999999999997      16.359999999999999      38.854999999999997
   214   1       6.134999999999998      16.359999999999999      44.989999999999995
   215   1      8.1799999999999997      14.314999999999998      44.989999999999995
   216   1      8.1799999999999997      16.359999999999999      42.944999999999993
   217   1       6.134999999999998      14.314999999999998      47.034999999999997
   218   1       6.134999999999998      16.359999999999999      49.079999999999998
   219   1      8.1799999999999997      14.314999999999998      49.079999999999998
   220   1      8.1799999999999997      16.359999999999999      47.034999999999997
   221   1      8.1799999999999997      14.314999999999998      53.170000000000002
   222   1      8.1799999999999997      16.359999999999999      51.124999999999993
   223   1      8.1799999999999997      14.314999999999998      57.259999999999991
   224   1      8.1799999999999997      16.359999999999999      55.214999999999996
   225   1      8.1799999999999997      16.359999999999999      59.304999999999993
   226   1      8.1799999999999997      18.404999999999998      32.719999999999999
   227   1      8.1799999999999997      20.449999999999996      30.674999999999994
   228   1      8.1799999999999997      18.404999999999998      36.810000000000002
   229   1      8.1799999999999997      20.449999999999996      34.765000000000001
   230   1       6.134999999999998      20.449999999999996      40.899999999999999
   231   1      8.1799999999999997      18.404999999999998      40.899999999999999
   232   1      8.1799999999999997      20.449999999999996      38.854999999999997
   233   1       6.134999999999998      18.404999999999998      42.944999999999993
   234   1       6.134999999999998      20.449999999999996      44.989999999999995
   235   1      8.1799999999999997      18.404999999999998      44.989999999999995
   236   1      8.1799999999999997      20.449999999999996      42.944999999999993
   237   1       6.134999999999998      18.404999999999998      47.034999999999997
   238   1       6.134999999999998      20.449999999999996      49.079999999999998
   239   1      8.1799999999999997      18.404999999999998      49.079999999999998
   240   1      8.1799999999999997      20.449999999999996      47.034999999999997
   241   1       6.134999999999998      18.404999999999998      51.124999999999993
   242   1       6.134999999999998      20.449999999999996      53.170000000000002
   243   1      8.1799999999999997      18.404999999999998      53.170000000000002
   244   1      8.1799999999999997      20.449999999999996      51.124999999999993
   245   1      8.1799999999999997      18.404999999999998      57.259999999999991
   246   1      8.1799999999999997      20.449999999999996      55.214999999999996
   247   1      8.1799999999999997      18.404999999999998      61.349999999999987
   248   1      8.1799999999999997      20.449999999999996      59.304999999999993
   249   1      8.1799999999999997      20.449999999999996      63.394999999999996
   250   1      8.1799999999999997      22.494999999999997      28.629999999999995
   251   1      8.1799999999999997      24.539999999999999      26.584999999999994
   252   1      8.1799999999999997      22.494999999999997      32.719999999999999
   253   1      8.1799999999999997      24.539999999999999      30.674999999999994
   254   1       6.134999999999998      24.539999999999999      36.810000000000002
   255   1      8.1799999999999997      22.494999999999997      36.810000000000002
   256   1      8.1799999999999997      24.539999999999999      34.765000000000001
   257   1       6.134999999999998      22.494999999999997      38.854999999999997
   258   1       6.134999999999998      24.539999999999999      40.899999999999999
   259   1      8.1799999999999997      22.494999999999997      40.899999999999999
   260   1      8.1799999999999997      24.539999999999999      38.854999999999997
   261   1       6.134999999999998      22.494999999999997      42.944999999999993
   262   1       6.134999999999998      24.539999999999999      44.989999999999995
   263   1      8.1799999999999997      22.494999999999997      44.989999999999995
   264   1      8.1799999999999997      24.539999999999999      42.944999999999993
   265   1       6.134999999999998      22.494999999999997      47.034999999999997
   266   1       6.134999999999998      24.539999999999999      49.079999999999998
   267   1      8.1799999999999997      22.494999999999997      49.079999999999998
   268   1      8.1799999999999997      24.539999999999999      47.034999999999997
   269   1       6.134999999999998      22.494999999999997      51.124999999999993
   270   1       6.134999999999998      24.539999999999999      53.170000000000002
   271   1      8.1799999999999997      22.494999999999997      53.170000000000002
   272   1      8.1799999999999997      24.539999999999999      51.124999999999993
   273   1       6.134999999999998      22.494999999999997      55.214999999999996
   274   1       6.134999999999998      24.539999999999999      57.259999999999991
   275   1      8.1799999999999997      22.494999999999997      57.259999999999991
   276   1      8.1799999999999997      24.539999999999999      55.214999999999996
   277   1      8.1799999999999997      22.494999999999997      61.349999999999987
   278   1      8.1799999999999997      24.539999999999999      59.304999999999993
   279   1      8.1799999999999997      22.494999999999997      65.439999999999998
   280   1      8.1799999999999997      24.539999999999999      63.394999999999996
   281   1      8.1799999999999997      24.539999999999999      67.484999999999999
   282   1      8.1799999999999997      26.584999999999994      24.539999999999999
   283   1      8.1799999999999997      28.629999999999995      22.494999999999997
   284   1      8.1799999999999997      26.584999999999994      28.629999999999995
   285   1      8.1799999999999997      28.629999999999995      26.584999999999994
   286   1       6.134999999999998      28.629999999999995      32.719999999999999
   287   1      8.1799999999999997      26.584999999999994      32.719999999999999
   288   1      8.1799999999999997      28.629999999999995      30.674999999999994
   289   1       6.134999999999998      26.584999999999994      34.765000000000001
   290   1       6.134999999999998      28.629999999999995      36.810000000000002
   291   1      8.1799999999999997      26.584999999999994      36.810000000000002
   292   1      8.1799999999999997      28.629999999999995      34.765000000000001
   293   1       6.134999999999998      26.584999999999994      38.854999999999997
   294   1       6.134999999999998      28.629999999999995      40.899999999999999
   295   1      8.1799999999999997      26.584999999999994      40.899999999999999
   296   1      8.1799999999999997      28.629999999999995      38.854999999999997
   297   1       6.134999999999998      26.584999999999994      42.944999999999993
   298   1       6.134999999999998      28.629999999999995      44.989999999999995
   299   1      8.1799999999999997      26.584999999999994      44.989999999999995
   300   1      8.1799999999999997      28.629999999999995      42.944999999999993
   301   1       6.134999999999998      26.584999999999994      47.034999999999997
   302   1       6.134999999999998      28.629999999999995      49.079999999999998
   303   1      8.1799999999999997      26.584999999999994      49.079999999999998
   304   1      8.1799999999999997      28.629999999999995      47.034999999999997
   305   1       6.134999999999998      26.584999999999994      51.124999999999993
   306   1       6.134999999999998      28.629999999999995      53.170000000000002
   307   1      8.1799999999999997      26.584999999999994      53.170000000000002
   308   1      8.1799999999999997      28.629999999999995      51.124999999999993
   309   1       6.134999999999998      26.584999999999994      55.214999999999996
   310   1       6.134999999999998      28.629999999999995      57.259999999999991
   311   1      8.1799999999999997      26.584999999999994      57.259999999999991
   312   1      8.1799999999999997      28.629999999999995      55.214999999999996
   313   1       6.134999999999998      26.584999999999994      59.304999999999993
   314   1       6.134999999999998      28.629999999999995      61.349999999999987
   315   1      8.1799999999999997      26.584999999999994      61.349999999999987
   316   1      8.1799999999999997      28.629999999999995      59.304999999999993
   317   1      8.1799999999999997      26.584999999999994      65.439999999999998
   318   1      8.1799999999999997      28.629999999999995      63.394999999999996
   319   1      8.1799999999999997      26.584999999999994      69.530000000000001
   320   1      8.1799999999999997      28.629999999999995      67.484999999999999
   321   1      8.1799999999999997      28.629999999999995      71.575000000000003
   322   1      8.1799999999999997      30.674999999999994      20.449999999999996
   323   1      8.1799999999999997      32.719999999999999      18.404999999999998
   324   1      8.1799999999999997      30.674999999999994      24.539999999999999
   325   1      8.1799999999999997      32.719999999999999      22.494999999999997
   326   1       6.134999999999998      32.719999999999999      28.629999999999995
   327   1      8.1799999999999997      30.674999999999994      28.629999999999995
   328   1      8.1799999999999997      32.719999999999999      26.584999999999994
   329   1       6.134999999999998      30.674999999999994      30.674999999999994
   330   1       6.134999999999998      32.719999999999999      32.719999999999999
   331   1      8.1799999999999997      30.674999999999994      32.719999999999999
   332   1      8.1799999999999997      32.719999999999999      30.674999999999994
   333   1       6.134999999999998      30.674999999999994      34.765000000000001
   334   1       6.134999999999998      32.719999999999999      36.810000000000002
   335   1      8.1799999999999997      30.674999999999994      36.810000000000002
   336   1      8.1799999999999997      32.719999999999999      34.765000000000001
   337   1       6.134999999999998      30.674999999999994      38.854999999999997
   338   1       6.134999999999998      32.719999999999999      40.899999999999999
   339   1      8.1799999999999997      30.674999999999994      40.899999999999999
   340   1      8.1799999999999997      32.719999999999999      38.854999999999997
   341   1       6.134999999999998      30.674999999999994      42.944999999999993
   342   1       6.134999999999998      32.719999999999999      44.989999999999995
   343   1      8.1799999999999997      30.674999999999994      44.989999999999995
   344   1      8.1799999999999997      32.719999999999999      42.944999999999993
   345   1       6.134999999999998      30.674999999999994      47.034999999999997
   346   1       6.134999999999998      32.719999999999999      49.079999999999998
   347   1      8.1799999999999997      30.674999999999994      49.079999999999998
   348   1      8.1799999999999997      32.719999999999999      47.034999999999997
   349   1       6.134999999999998      30.674999999999994      51.124999999999993
   350   1       6.134999999999998      32.719999999999999      53.170000000000002
   351   1      8.1799999999999997      30.674999999999994      53.170000000000002
   352   1      8.1799999999999997      32.719999999999999      51.124999999999993
   353   1       6.134999999999998      30.674999999999994      55.214999999999996
   354   1       6.134999999999998      32.719999999999999      57.259999999999991
   355   1      8.1799999999999997      30.674999999999994      57.259999999999991
   356   1      8.1799999999999997      32.719999999999999      55.214999999999996
   357   1       6.134999999999998      30.674999999999994      59.304999999999993
   358   1       6.134999999999998      32.719999999999999      61.349999999999987