LAMMPS data file via write_data, version 30 Nov 2020, timestep = 0

30527 atoms
5 atom types

0 82 xlo xhi
0 82 ylo yhi
0 82 zlo zhi

Masses

1 58.69
2 58.933
3 51.96
4 55.847
5 54.94

Atoms # atomic

1 5 0 37.7475 39.545 0 0 0
2 2 0 39.545 37.7475 0 0 0
13 3 3.5949999999999993 26.962500000000002 28.76 0 0 0
14 3 3.5949999999999993 28.76 26.962500000000002 0 0 0
15 3 3.5949999999999993 26.962500000000002 32.355000000000004 0 0 0
16 4 3.5949999999999993 28.76 30.557500000000008 0 0 0
17 3 3.5949999999999993 26.962500000000002 35.95 0 0 0
18 1 3.5949999999999993 28.76 34.1525 0 0 0
19 3 3.5949999999999993 26.962500000000002 39.545 0 0 0
20 1 3.5949999999999993 28.76 37.7475 0 0 0
30 1 3.5949999999999993 30.557500000000008 28.76 0 0 0
31 5 3.5949999999999993 32.355000000000004 26.962500000000002 0 0 0
32 2 1.7974999999999997 32.355000000000004 32.355000000000004 0 0 0
33 2 3.5949999999999993 30.557500000000008 32.355000000000004 0 0 0
34 4 3.5949999999999993 32.355000000000004 30.557500000000008 0 0 0
35 1 1.7974999999999997 32.355000000000004 35.95 0 0 0
36 2 3.5949999999999993 30.557500000000008 35.95 0 0 0
37 3 3.5949999999999993 32.355000000000004 34.1525 0 0 0
38 3 1.7974999999999997 32.355000000000004 39.545 0 0 0
39 3 3.5949999999999993 30.557500000000008 39.545 0 0 0
40 1 3.5949999999999993 32.355000000000004 37.7475 0 0 0
53 3 3.5949999999999993 34.1525 28.76 0 0 0
54 2 3.5949999999999993 35.95 26.962500000000002 0 0 0
55 5 1.7974999999999997 35.95 32.355000000000004 0 0 0
56 5 3.5949999999999993 34.1525 32.355000000000004 0 0 0
57 2 3.5949999999999993 35.95 30.557500000000008 0 0 0
58 5 1.7974999999999997 34.1525 34.1525 0 0 0
59 1 1.7974999999999997 35.95 35.95 0 0 0
60 2 3.5949999999999993 34.1525 35.95 0 0 0
61 3 3.5949999999999993 35.95 34.1525 0 0 0
62 3 1.7974999999999997 34.1525 37.7475 0 0 0
63 5 1.7974999999999997 35.95 39.545 0 0 0
64 2 3.5949999999999993 34.1525 39.545 0 0 0
65 5 3.5949999999999993 35.95 37.7475 0 0 0
81 3 3.5949999999999993 37.7475 28.76 0 0 0
82 3 3.5949999999999993 39.545 26.962500000000002 0 0 0
83 3 1.7974999999999997 39.545 32.355000000000004 0 0 0
84 5 3.5949999999999993 37.7475 32.355000000000004 0 0 0
85 1 3.5949999999999993 39.545 30.557500000000008 0 0 0
86 5 1.7974999999999997 37.7475 34.1525 0 0 0
87 3 1.7974999999999997 39.545 35.95 0 0 0
88 4 3.5949999999999993 37.7475 35.95 0 0 0
89 5 3.5949999999999993 39.545 34.1525 0 0 0
90 2 1.7974999999999997 37.7475 37.7475 0 0 0
91 3 1.7974999999999997 39.545 39.545 0 0 0
92 5 3.5949999999999993 37.7475 39.545 0 0 0
93 3 3.5949999999999993 39.545 37.7475 0 0 0
218 1 7.189999999999999 16.177500000000002 17.975 0 0 0
219 4 7.189999999999999 17.975 16.177500000000002 0 0 0
220 1 7.189999999999999 16.177500000000002 21.57 0 0 0
221 3 7.189999999999999 17.975 19.7725 0 0 0
222 1 7.189999999999999 16.177500000000002 25.165000000000003 0 0 0
223 4 7.189999999999999 17.975 23.367500000000003 0 0 0
224 1 7.189999999999999 16.177500000000002 28.76 0 0 0
225 4 7.189999999999999 17.975 26.962500000000002 0 0 0
226 5 7.189999999999999 16.177500000000002 32.355000000000004 0 0 0
227 1 7.189999999999999 17.975 30.557500000000008 0 0 0
228 1 7.189999999999999 16.177500000000002 35.95 0 0 0
229 1 7.189999999999999 17.975 34.1525 0 0 0
230 2 7.189999999999999 16.177500000000002 39.545 0 0 0
231 5 7.189999999999999 17.975 37.7475 0 0 0
247 5 7.189999999999999 19.7725 17.975 0 0 0
248 5 7.189999999999999 21.57 16.177500000000002 0 0 0
249 5 5.392499999999998 21.57 21.57 0 0 0
250 5 7.189999999999999 19.7725 21.57 0 0 0
251 3 7.189999999999999 21.57 19.7725 0 0 0
252 4 5.392499999999998 21.57 25.165000000000003 0 0 0
253 4 7.189999999999999 19.7725 25.165000000000003 0 0 0
254 5 7.189999999999999 21.57 23.367500000000003 0 0 0
255 2 5.392499999999998 21.57 28.76 0 0 0
256 5 7.189999999999999 19.7725 28.76 0 0 0
257 5 7.189999999999999 21.57 26.962500000000002 0 0 0
258 2 5.392499999999998 21.57 32.355000000000004 0 0 0
259 5 7.189999999999999 19.7725 32.355000000000004 0 0 0
260 3 7.189999999999999 21.57 30.557500000000008 0 0 0
261 2 5.392499999999998 21.57 35.95 0 0 0
262 3 7.189999999999999 19.7725 35.95 0 0 0
263 2 7.189999999999999 21.57 34.1525 0 0 0
264 4 5.392499999999998 21.57 39.545 0 0 0
265 5 7.189999999999999 19.7725 39.545 0 0 0
266 1 7.189999999999999 21.57 37.7475 0 0 0
288 4 7.189999999999999 23.367500000000003 17.975 0 0 0
289 2 7.189999999999999 25.165000000000003 16.177500000000002 0 0 0
290 2 5.392499999999998 25.165000000000003 21.57 0 0 0
291 3 7.189999999999999 23.367500000000003 21.57 0 0 0
292 4 7.189999999999999 25.165000000000003 19.7725 0 0 0
293 4 5.392499999999998 23.367500000000003 23.367500000000003 0 0 0
294 5 5.392499999999998 25.165000000000003 25.165000000000003 0 0 0
295 5 7.189999999999999 23.367500000000003 25.165000000000003 0 0 0
296 5 7.189999999999999 25.165000000000003 23.367500000000003 0 0 0
297 2 5.392499999999998 23.367500000000003 26.962500000000002 0 0 0
298 2 5.392499999999998 25.165000000000003 28.76 0 0 0
299 4 7.189999999999999 23.367500000000003 28.76 0 0 0
300 3 7.189999999999999 25.165000000000003 26.962500000000002 0 0 0
301 1 5.392499999999998 23.367500000000003 30.557500000000008 0 0 0
302 2 5.392499999999998 25.165000000000003 32.355000000000004 0 0 0
303 1 7.189999999999999 23.367500000000003 32.355000000000004 0 0 0
304 5 7.189999999999999 25.165000000000003 30.557500000000008 0 0 0
305 1 5.392499999999998 23.367500000000003 34.1525 0 0 0
306 5 5.392499999999998 25.165000000000003 35.95 0 0 0
307 4 7.189999999999999 23.367500000000003 35.95 0 0 0
308 1 7.189999999999999 25.165000000000003 34.1525 0 0 0
309 4 5.392499999999998 23.367500000000003 37.7475 0 0 0
310 3 5.392499999999998 25.165000000000003 39.545 0 0 0
311 1 7.189999999999999 23.367500000000003 39.545 0 0 0
312 2 7.189999999999999 25.165000000000003 37.7475 0 0 0
340 2 7.189999999999999 26.962500000000002 17.975 0 0 0
341 4 7.189999999999999 28.76 16.177500000000002 0 0 0
342 3 5.392499999999998 28.76 21.57 0 0 0
343 1 7.189999999999999 26.962500000000002 21.57 0 0 0
344 2 7.189999999999999 28.76 19.7725 0 0 0
345 5 5.392499999999998 26.962500000000002 23.367500000000003 0 0 0
346 1 5.392499999999998 28.76 25.165000000000003 0 0 0
347 1 7.189999999999999 26.962500000000002 25.165000000000003 0 0 0
348 5 7.189999999999999 28.76 23.367500000000003 0 0 0
349 4 5.392499999999998 26.962500000000002 26.962500000000002 0 0 0
350 5 5.392499999999998 28.76 28.76 0 0 0
351 4 7.189999999999999 26.962500000000002 28.76 0 0 0
352 5 7.189999999999999 28.76 26.962500000000002 0 0 0
353 4 5.392499999999998 26.962500000000002 30.557500000000008 0 0 0
354 4 5.392499999999998 28.76 32.355000000000004 0 0 0
355 1 7.189999999999999 26.962500000000002 32.355000000000004 0 0 0
356 2 7.189999999999999 28.76 30.557500000000008 0 0 0
357 5 5.392499999999998 26.962500000000002 34.1525 0 0 0
358 5 5.392499999999998 28.76 35.95 0 0 0
359 4 7.189999999999999 26.962500000000002 35.95 0 0 0
360 1 7.189999999999999 28.76 34.1525 0 0 0
361 5 5.392499999999998 26.962500000000002 37.7475 0 0 0
362 1 5.392499999999998 28.76 39.545 0 0 0
363 1 7.189999999999999 26.962500000000002 39.545 0 0 0
364 4 7.189999999999999 28.76 37.7475 0 0 0
392 4 7.189999999999999 30.557500000000008 17.975 0 0 0
393 2 7.189999999999999 32.355000000000004 16.177500000000002 0 0 0
394 2 5.392499999999998 32.355000000000004 21.57 0 0 0
395 1 7.189999999999999 30.557500000000008 21.57 0 0 0
396 4 7.189999999999999 32.355000000000004 19.7725 0 0 0
397 4 5.392499999999998 30.557500000000008 23.367500000000003 0 0 0
398 3 5.392499999999998 32.355000000000004 25.165000000000003 0 0 0
399 2 7.189999999999999 30.557500000000008 25.165000000000003 0 0 0
400 2 7.189999999999999 32.355000000000004 23.367500000000003 0 0 0
401 3 5.392499999999998 30.557500000000008 26.962500000000002 0 0 0
402 2 5.392499999999998 32.355000000000004 28.76 0 0 0
403 3 7.189999999999999 30.557500000000008 28.76 0 0 0
404 4 7.189999999999999 32.355000000000004 26.962500000000002 0 0 0
405 3 5.392499999999998 30.557500000000008 30.557500000000008 0 0 0
406 3 5.392499999999998 32.355000000000004 32.355000000000004 0 0 0
407 2 7.189999999999999 30.557500000000008 32.355000000000004 0 0 0
408 2 7.189999999999999 32.355000000000004 30.557500000000008 0 0 0
409 1 5.392499999999998 30.557500000000008 34.1525 0 0 0
410 5 5.392499999999998 32.355000000000004 35.95 0 0 0
411 4 7.189999999999999 30.557500000000008 35.95 0 0 0
412 1 7.189999999999999 32.355000000000004 34.1525 0 0 0
413 3 5.392499999999998 30.557500000000008 37.7475 0 0 0
414 1 5.392499999999998 32.355000000000004 39.545 0 0 0
415 1 7.189999999999999 30.557500000000008 39.545 0 0 0
416 3 7.189999999999999 32.355000000000004 37.7475 0 0 0
444 1 7.189999999999999 34.1525 17.975 0 0 0
445 1 7.189999999999999 35.95 16.177500000000002 0 0 0
446 2 5.392499999999998 35.95 21.57 0 0 0
447 3 7.189999999999999 34.1525 21.57 0 0 0
448 4 7.189999999999999 35.95 19.7725 0 0 0
449 3 5.392499999999998 34.1525 23.367500000000003 0 0 0
450 1 5.392499999999998 35.95 25.165000000000003 0 0 0
451 1 7.189999999999999 34.1525 25.165000000000003 0 0 0
452 3 7.189999999999999 35.95 23.367500000000003 0 0 0
453 4 5.392499999999998 34.1525 26.962500000000002 0 0 0
454 5 5.392499999999998 35.95 28.76 0 0 0
455 2 7.189999999999999 34.1525 28.76 0 0 0
456 2 7.189999999999999 35.95 26.962500000000002 0 0 0
457 2 5.392499999999998 34.1525 30.557500000000008 0 0 0
458 3 5.392499999999998 35.95 32.355000000000004 0 0 0
459 4 7.189999999999999 34.1525 32.355000000000004 0 0 0
460 1 7.189999999999999 35.95 30.557500000000008 0 0 0
461 2 5.392499999999998 34.1525 34.1525 0 0 0
462 5 5.392499999999998 35.95 35.95 0 0 0
463 5 7.189999999999999 34.1525 35.95 0 0 0
464 5 7.189999999999999 35.95 34.1525 0 0 0
465 1 5.392499999999998 34.1525 37.7475 0 0 0
466 3 5.392499999999998 35.95 39.545 0 0 0
467 1 7.189999999999999 34.1525 39.545 0 0 0
468 5 7.189999999999999 35.95 37.7475 0 0 0
496 1 7.189999999999999 37.7475 17.975 0 0 0
497 3 7.189999999999999 39.545 16.177500000000002 0 0 0
498 2 5.392499999999998 39.545 21.57 0 0 0
499 2 7.189999999999999 37.7475 21.57 0 0 0
500 4 7.189999999999999 39.545 19.7725 0 0 0
501 4 5.392499999999998 37.7475 23.367500000000003 0 0 0
502 1 5.392499999999998 39.545 25.165000000000003 0 0 0
503 4 7.189999999999999 37.7475 25.165000000000003 0 0 0
504 1 7.189999999999999 39.545 23.367500000000003 0 0 0
505 3 5.392499999999998 37.7475 26.962500000000002 0 0 0
506 3 5.392499999999998 39.545 28.76 0 0 0
507 4 7.189999999999999 37.7475 28.76 0 0 0
508 5 7.189999999999999 39.545 26.962500000000002 0 0 0
509 1 5.392499999999998 37.7475 30.557500000000008 0 0 0
510 2 5.392499999999998 39.545 32.355000000000004 0 0 0
511 1 7.189999999999999 37.7475 32.355000000000004 0 0 0
512 4 7.189999999999999 39.545 30.557500000000008 0 0 0
513 3 5.392499999999998 37.7475 34.1525 0 0 0
514 4 5.392499999999998 39.545 35.95 0 0 0
515 2 7.189999999999999 37.7475 35.95 0 0 0
516 1 7.189999999999999 39.545 34.1525 0 0 0
517 3 5.392499999999998 37.7475 37.7475 0 0 0
518 1 5.392499999999998 39.545 39.545 0 0 0
519 4 7.189999999999999 37.7475 39.545 0 0 0
520 2 7.189999999999999 39.545 37.7475 0 0 0
903 2 8.987499999999997 10.785 10.785 0 0 0
904 3 10.785 8.987499999999997 10.785 0 0 0
905 2 10.785 10.785 8.987499999999997 0 0 0
906 2 8.987499999999997 10.785 14.380000000000004 0 0 0
907 4 10.785 8.987499999999997 14.380000000000004 0 0 0
908 3 10.785 10.785 12.582500000000005 0 0 0
909 1 8.987499999999997 10.785 17.975 0 0 0
910 5 10.785 8.987499999999997 17.975 0 0 0
911 1 10.785 10.785 16.177500000000002 0 0 0
912 1 8.987499999999997 10.785 21.57 0 0 0
913 2 10.785 8.987499999999997 21.57 0 0 0
914 1 10.785 10.785 19.7725 0 0 0
915 1 8.987499999999997 10.785 25.165000000000003 0 0 0
916 1 10.785 8.987499999999997 25.165000000000003 0 0 0
917 2 10.785 10.785 23.367500000000003 0 0 0
918 1 8.987499999999997 10.785 28.76 0 0 0
919 2 10.785 8.987499999999997 28.76 0 0 0
920 4 10.785 10.785 26.962500000000002 0 0 0
921 4 8.987499999999997 10.785 32.355000000000004 0 0 0
922 5 10.785 8.987499999999997 32.355000000000004 0 0 0
923 1 10.785 10.785 30.557500000000008 0 0 0
924 3 8.987499999999997 10.785 35.95 0 0 0
925 1 10.785 8.987499999999997 35.95 0 0 0
926 1 10.785 10.785 34.1525 0 0 0
927 3 8.987499999999997 10.785 39.545 0 0 0
928 5 10.785 8.987499999999997 39.545 0 0 0
929 4 10.785 10.785 37.7475 0 0 0
958 3 8.987499999999997 14.380000000000004 10.785 0 0 0
959 4 10.785 12.582500000000005 10.785 0 0 0
960 4 10.785 14.380000000000004 8.987499999999997 0 0 0
961 4 8.987499999999997 12.582500000000005 12.582500000000005 0 0 0
962 1 8.987499999999997 14.380000000000004 14.380000000000004 0 0 0
963 3 10.785 12.582500000000005 14.380000000000004 0 0 0
964 2 10.785 14.380000000000004 12.582500000000005 0 0 0
965 1 8.987499999999997 12.582500000000005 16.177500000000002 0 0 0
966 5 8.987499999999997 14.380000000000004 17.975 0 0 0
967 3 10.785 12.582500000000005 17.975 0 0 0
968 1 10.785 14.380000000000004 16.177500000000002 0 0 0
969 4 8.987499999999997 12.582500000000005 19.7725 0 0 0
970 1 8.987499999999997 14.380000000000004 21.57 0 0 0
971 5 10.785 12.582500000000005 21.57 0 0 0
972 5 10.785 14.380000000000004 19.7725 0 0 0
973 4 8.987499999999997 12.582500000000005 23.367500000000003 0 0 0
974 2 8.987499999999997 14.380000000000004 25.165000000000003 0 0 0
975 4 10.785 12.582500000000005 25.165000000000003 0 0 0
976 2 10.785 14.380000000000004 23.367500000000003 0 0 0
977 1 8.987499999999997 12.582500000000005 26.962500000000002 0 0 0
978 5 8.987499999999997 14.380000000000004 28.76 0 0 0
979 3 10.785 12.582500000000005 28.76 0 0 0
980 3 10.785 14.380000000000004 26.962500000000002 0 0 0
981 3 8.987499999999997 12.582500000000005 30.557500000000008 0 0 0
982 2 8.987499999999997 14.380000000000004 32.355000000000004 0 0 0
983 1 10.785 12.582500000000005 32.355000000000004 0 0 0
984 4 10.785 14.380000000000004 30.557500000000008 0 0 0
985 3 8.987499999999997 12.582500000000005 34.1525 0 0 0
986 5 8.987499999999997 14.380000000000004 35.95 0 0 0
987 2 10.785 12.582500000000005 35.95 0 0 0
988 1 10.785 14.380000000000004 34.1525 0 0 0
989 2 8.987499999999997 12.582500000000005 37.7475 0 0 0
990 3 8.987499999999997 14.380000000000004 39.545 0 0 0
991 4 10.785 12.582500000000005 39.545 0 0 0
992 3 10.785 14.380000000000004 37.7475 0 0 0
1030 2 8.987499999999997 17.975 10.785 0 0 0
1031 4 10.785 16.177500000000002 10.785 0 0 0
1032 1 10.785 17.975 8.987499999999997 0 0 0
1033 2 8.987499999999997 16.177500000000002 12.582500000000005 0 0 0
1034 4 8.987499999999997 17.975 14.380000000000004 0 0 0
1035 4 10.785 16.177500000000002 14.380000000000004 0 0 0
1036 2 10.785 17.975 12.582500000000005 0 0 0
1037 4 8.987499999999997 16.177500000000002 16.177500000000002 0 0 0
1038 1 8.987499999999997 17.975 17.975 0 0 0
1039 3 10.785 16.177500000000002 17.975 0 0 0
1040 2 10.785 17.975 16.177500000000002 0 0 0
1041 1 8.987499999999997 16.177500000000002 19.7725 0 0 0
1042 3 8.987499999999997 17.975 21.57 0 0 0
1043 5 10.785 16.177500000000002 21.57 0 0 0
1044 3 10.785 17.975 19.7725 0 0 0
1045 2 8.987499999999997 16.177500000000002 23.367500000000003 0 0 0
1046 4 8.987499999999997 17.975 25.165000000000003 0 0 0
1047 1 10.785 16.177500000000002 25.165000000000003 0 0 0
1048 5 10.785 17.975 23.367500000000003 0 0 0
1049 1 8.987499999999997 16.177500000000002 26.962500000000002 0 0 0
1050 4 8.987499999999997 17.975 28.76 0 0 0
1051 2 10.785 16.177500000000002 28.76 0 0 0
1052 1 10.785 17.975 26.962500000000002 0 0 0
1053 5 8.987499999999997 16.177500000000002 30.557500000000008 0 0 0
1054 3 8.987499999999997 17.975 32.355000000000004 0 0 0
1055 5 10.785 16.177500000000002 32.355000000000004 0 0 0
1056 1 10.785 17.975 30.557500000000008 0 0 0
1057 4 8.987499999999997 16.177500000000002 34.1525 0 0 0
1058 4 8.987499999999997 17.975 35.95 0 0 0
1059 3 10.785 16.177500000000002 35.95 0 0 0
1060 2 10.785 17.975 34.1525 0 0 0
1061 1 8.987499999999997 16.177500000000002 37.7475 0 0 0
1062 1 8.987499999999997 17.975 39.545 0 0 0
1063 2 10.785 16.177500000000002 39.545 0 0 0
1064 2 10.785 17.975 37.7475 0 0 0
1102 2 8.987499999999997 21.57 10.785 0 0 0
1103 2 10.785 19.7725 10.785 0 0 0
1104 3 10.785 21.57 8.987499999999997 0 0 0
1105 1 8.987499999999997 19.7725 12.582500000000005 0 0 0
1106 1 8.987499999999997 21.57 14.380000000000004 0 0 0
1107 1 10.785 19.7725 14.380000000000004 0 0 0
1108 2 10.785 21.57 12.582500000000005 0 0 0
1109 5 8.987499999999997 19.7725 16.177500000000002 0 0 0
1110 4 8.987499999999997 21.57 17.975 0 0 0
1111 1 10.785 19.7725 17.975 0 0 0
1112 1 10.785 21.57 16.177500000000002 0 0 0
1113 4 8.987499999999997 19.7725 19.7725 0 0 0
1114 3 8.987499999999997 21.57 21.57 0 0 0
1115 3 10.785 19.7725 21.57 0 0 0
1116 1 10.785 21.57 19.7725 0 0 0
1117 1 8.987499999999997 19.7725 23.367500000000003 0 0 0
1118 5 8.987499999999997 21.57 25.165000000000003 0 0 0
1119 2 10.785 19.7725 25.165000000000003 0 0 0
1120 2 10.785 21.57 23.367500000000003 0 0 0
1121 3 8.987499999999997 19.7725 26.962500000000002 0 0 0
1122 3 8.987499999999997 21.57 28.76 0 0 0
1123 3 10.785 19.7725 28.76 0 0 0
1124 5 10.785 21.57 26.962500000000002 0 0 0
1125 5 8.987499999999997 19.7725 30.557500000000008 0 0 0
1126 4 8.987499999999997 21.57 32.355000000000004 0 0 0
1127 5 10.785 19.7725 32.355000000000004 0 0 0
1128 1 10.785 21.57 30.557500000000008 0 0 0
1129 3 8.987499999999997 19.7725 34.1525 0 0 0
1130 2 8.987499999999997 21.57 35.95 0 0 0
1131 5 10.785 19.7725 35.95 0 0 0
1132 4 10.785 21.57 34.1525 0 0 0
1133 2 8.987499999999997 19.7725 37.7475 0 0 0
1134 3 8.987499999999997 21.57 39.545 0 0 0
1135 2 10.785 19.7725 39.545 0 0 0
1136 4 10.785 21.57 37.7475 0 0 0
1174 5 8.987499999999997 25.165000000000003 10.785 0 0 0
1175 2 10.785 23.367500000000003 10.785 0 0 0
1176 1 10.785 25.165000000000003 8.987499999999997 0 0 0
1177 3 8.987499999999997 23.367500000000003 12.582500000000005 0 0 0
1178 5 8.987499999999997 25.165000000000003 14.380000000000004 0 0 0
1179 3 10.785 23.367500000000003 14.380000000000004 0 0 0
1180 2 10.785 25.165000000000003 12.582500000000005 0 0 0
1181 3 8.987499999999997 23.367500000000003 16.177500000000002 0 0 0
1182 2 8.987499999999997 25.165000000000003 17.975 0 0 0
1183 3 10.785 23.367500000000003 17.975 0 0 0
1184 4 10.785 25.165000000000003 16.177500000000002 0 0 0
1185 3 8.987499999999997 23.367500000000003 19.7725 0 0 0
1186 2 8.987499999999997 25.165000000000003 21.57 0 0 0
1187 1 10.785 23.367500000000003 21.57 0 0 0
1188 5 10.785 25.165000000000003 19.7725 0 0 0
1189 3 8.987499999999997 23.367500000000003 23.367500000000003 0 0 0
1190 3 8.987499999999997 25.165000000000003 25.165000000000003 0 0 0
1191 4 10.785 23.367500000000003 25.165000000000003 0 0 0
1192 2 10.785 25.165000000000003 23.367500000000003 0 0 0
1193 4 8.987499999999997 23.367500000000003 26.962500000000002 0 0 0
1194 3 8.987499999999997 25.165000000000003 28.76 0 0 0
1195 5 10.785 23.367500000000003 28.76 0 0 0
1196 3 10.785 25.165000000000003 26.962500000000002 0 0 0
1197 4 8.987499999999997 23.367500000000003 30.557500000000008 0 0 0
1198 1 8.987499999999997 25.165000000000003 32.355000000000004 0 0 0
1199 4 10.785 23.367500000000003 32.355000000000004 0 0 0
1200 5 10.785 25.165000000000003 30.557500000000008 0 0 0
1201 2 8.987499999999997 23.367500000000003 34.1525 0 0 0
1202 1 8.987499999999997 25.165000000000003 35.95 0 0 0
1203 3 10.785 23.367500000000003 35.95 0 0 0
1204 5 10.785 25.165000000000003 34.1525 0 0 0
1205 3 8.987499999999997 23.367500000000003 37.7475 0 0 0
1206 3 8.987499999999997 25.165000000000003 39.545 0 0 0
1207 4 10.785 23.367500000000003 39.545 0 0 0
1208 2 10.785 25.165000000000003 37.7475 0 0 0
1246 5 8.987499999999997 28.76 10.785 0 0 0
1247 5 10.785 26.962500000000002 10.785 0 0 0
1248 1 10.785 28.76 8.987499999999997 0 0 0
1249 4 8.987499999999997 26.962500000000002 12.582500000000005 0 0 0
1250 5 8.987499999999997 28.76 14.380000000000004 0 0 0
1251 4 10.785 26.962500000000002 14.380000000000004 0 0 0
1252 3 10.785 28.76 12.582500000000005 0 0 0
1253 4 8.987499999999997 26.962500000000002 16.177500000000002 0 0 0
1254 5 8.987499999999997 28.76 17.975 0 0 0
1255 5 10.785 26.962500000000002 17.975 0 0 0
1256 1 10.785 28.76 16.177500000000002 0 0 0
1257 4 8.987499999999997 26.962500000000002 19.7725 0 0 0
1258 1 8.987499999999997 28.76 21.57 0 0 0
1259 2 10.785 26.962500000000002 21.57 0 0 0
1260 3 10.785 28.76 19.7725 0 0 0
1261 2 8.987499999999997 26.962500000000002 23.367500000000003 0 0 0
1262 2 8.987499999999997 28.76 25.165000000000003 0 0 0
1263 4 10.785 26.962500000000002 25.165000000000003 0 0 0
1264 1 10.785 28.76 23.367500000000003 0 0 0
1265 4 8.987499999999997 26.962500000000002 26.962500000000002 0 0 0
1266 3 8.987499999999997 28.76 28.76 0 0 0
1267 2 10.785 26.962500000000002 28.76 0 0 0
1268 2 10.785 28.76 26.962500000000002 0 0 0
1269 2 8.987499999999997 26.962500000000002 30.557500000000008 0 0 0
1270 5 8.987499999999997 28.76 32.355000000000004 0 0 0
1271 1 10.785 26.962500000000002 32.355000000000004 0 0 0
1272 1 10.785 28.76 30.557500000000008 0 0 0
1273 5 8.987499999999997 26.962500000000002 34.1525 0 0 0
1274 3 8.987499999999997 28.76 35.95 0 0 0
1275 4 10.785 26.962500000000002 35.95 0 0 0
1276 1 10.785 28.76 34.1525 0 0 0
1277 4 8.987499999999997 26.962500000000002 37.7475 0 0 0
1278 1 8.987499999999997 28.76 39.545 0 0 0
1279 5 10.785 26.962500000000002 39.545 0 0 0
1280 1 10.785 28.76 37.7475 0 0 0
1318 4 8.987499999999997 32.355000000000004 10.785 0 0 0
1319 1 10.785 30.557500000000008 10.785 0 0 0
1320 1 10.785 32.355000000000004 8.987499999999997 0 0 0
1321 1 8.987499999999997 30.557500000000008 12.582500000000005 0 0 0
1322 3 8.987499999999997 32.355000000000004 14.380000000000004 0 0 0
1323 1 10.785 30.557500000000008 14.380000000000004 0 0 0
1324 3 10.785 32.355000000000004 12.582500000000005 0 0 0
1325 4 8.987499999999997 30.557500000000008 16.177500000000002 0 0 0
1326 4 8.987499999999997 32.355000000000004 17.975 0 0 0
1327 1 10.785 30.557500000000008 17.975 0 0 0
1328 2 10.785 32.355000000000004 16.177500000000002 0 0 0
1329 3 8.987499999999997 30.557500000000008 19.7725 0 0 0
1330 2 8.987499999999997 32.355000000000004 21.57 0 0 0
1331 3 10.785 30.557500000000008 21.57 0 0 0
1332 1 10.785 32.355000000000004 19.7725 0 0 0
1333 1 8.987499999999997 30.557500000000008 23.367500000000003 0 0 0
1334 1 8.987499999999997 32.355000000000004 25.165000000000003 0 0 0
1335 1 10.785 30.557500000000008 25.165000000000003 0 0 0
1336 5 10.785 32.355000000000004 23.367500000000003 0 0 0
1337 5 8.987499999999997 30.557500000000008 26.962500000000002 0 0 0
1338 2 8.987499999999997 32.355000000000004 28.76 0 0 0
1339 1 10.785 30.557500000000008 28.76 0 0 0
1340 4 10.785 32.355000000000004 26.962500000000002 0 0 0
1341 4 8.987499999999997 30.557500000000008 30.557500000000008 0 0 0
1342 4 8.987499999999997 32.355000000000004 32.355000000000004 0 0 0
1343 2 10.785 30.557500000000008 32.355000000000004 0 0 0
1344 2 10.785 32.355000000000004 30.557500000000008 0 0 0
1345 4 8.987499999999997 30.557500000000008 34.1525 0 0 0
1346 3 8.987499999999997 32.355000000000004 35.95 0 0 0
1347 1 10.785 30.557500000000008 35.95 0 0 0
1348 2 10.785 32.355000000000004 34.1525 0 0 0
1349 5 8.987499999999997 30.557500000000008 37.7475 0 0 0
1350 5 8.987499999999997 32.355000000000004 39.545 0 0 0
1351 3 10.785 30.557500000000008 39.545 0 0 0
1352 5 10.785 32.355000000000004 37.7475 0 0 0
1390 5 8.987499999999997 35.95 10.785 0 0 0
1391 5 10.785 34.1525 10.785 0 0 0
1392 4 10.785 35.95 8.987499999999997 0 0 0
1393 4 8.987499999999997 34.1525 12.582500000000005 0 0 0
1394 2 8.987499999999997 35.95 14.380000000000004 0 0 0
1395 2 10.785 34.1525 14.380000000000004 0 0 0
1396 5 10.785 35.95 12.582500000000005 0 0 0
1397 5 8.987499999999997 34.1525 16.177500000000002 0 0 0
1398 4 8.987499999999997 35.95 17.975 0 0 0
1399 4 10.785 34.1525 17.975 0 0 0
1400 4 10.785 35.95 16.177500000000002 0 0 0
1401 1 8.987499999999997 34.1525 19.7725 0 0 0
1402 4 8.987499999999997 35.95 21.57 0 0 0
1403 5 10.785 34.1525 21.57 0 0 0
1404 3 10.785 35.95 19.7725 0 0 0
1405 1 8.987499999999997 34.1525 23.367500000000003 0 0 0
1406 4 8.987499999999997 35.95 25.165000000000003 0 0 0
1407 2 10.785 34.1525 25.165000000000003 0 0 0
1408 1 10.785 35.95 23.367500000000003 0 0 0
1409 4 8.987499999999997 34.1525 26.962500000000002 0 0 0
1410 5 8.987499999999997 35.95 28.76 0 0 0
1411 3 10.785 34.1525 28.76 0 0 0
1412 2 10.785 35.95 26.962500000000002 0 0 0
1413 1 8.987499999999997 34.1525 30.557500000000008 0 0 0
1414 5 8.987499999999997 35.95 32.355000000000004 0 0 0
1415 1 10.785 34.1525 32.355000000000004 0 0 0
1416 2 10.785 35.95 30.557500000000008 0 0 0
1417 4 8.987499999999997 34.1525 34.1525 0 0 0
1418 4 8.987499999999997 35.95 35.95 0 0 0
1419 2 10.785 34.1525 35.95 0 0 0
1420 4 10.785 35.95 34.1525 0 0 0
1421 3 8.987499999999997 34.1525 37.7475 0 0 0
1422 3 8.987499999999997 35.95 39.545 0 0 0
1423 2 10.785 34.1525 39.545 0 0 0
1424 1 10.785 35.95 37.7475 0 0 0
1462 1 8.987499999999997 39.545 10.785 0 0 0
1463 2 10.785 37.7475 10.785 0 0 0
1464 3 10.785 39.545 8.987499999999997 0 0 0
1465 5 8.987499999999997 37.7475 12.582500000000005 0 0 0
1466 3 8.987499999999997 39.545 14.380000000000004 0 0 0
1467 1 10.785 37.7475 14.380000000000004 0 0 0
1468 5 10.785 39.545 12.582500000000005 0 0 0
1469 5 8.987499999999997 37.7475 16.177500000000002 0 0 0
1470 2 8.987499999999997 39.545 17.975 0 0 0
1471 5 10.785 37.7475 17.975 0 0 0
1472 3 10.785 39.545 16.177500000000002 0 0 0
1473 1 8.987499999999997 37.7475 19.7725 0 0 0
1474 1 8.987499999999997 39.545 21.57 0 0 0
1475 1 10.785 37.7475 21.57 0 0 0
1476 3 10.785 39.545 19.7725 0 0 0
1477 4 8.987499999999997 37.7475 23.367500000000003 0 0 0
1478 2 8.987499999999997 39.545 25.165000000000003 0 0 0
1479 1 10.785 37.7475 25.165000000000003 0 0 0
1480 3 10.785 39.545 23.367500000000003 0 0 0
1481 4 8.987499999999997 37.7475 26.962500000000002 0 0 0
1482 2 8.987499999999997 39.545 28.76 0 0 0
1483 4 10.785 37.7475 28.76 0 0 0
1484 1 10.785 39.545 26.962500000000002 0 0 0
1485 4 8.987499999999997 37.7475 30.557500000000008 0 0 0
1486 3 8.987499999999997 39.545 32.355000000000004 0 0 0
1487 4 10.785 37.7475 32.355000000000004 0 0 0
1488 5 10.785 39.545 30.557500000000008 0 0 0
1489 2 8.987499999999997 37.7475 34.1525 0 0 0
1490 5 8.987499999999997 39.545 35.95 0 0 0
1491 5 10.785 37.7475 35.95 0 0 0
1492 2 10.785 39.545 34.1525 0 0 0
1493 1 8.987499999999997 37.7475 37.7475 0 0 0
1494 4 8.987499999999997 39.545 39.545 0 0 0
1495 2 10.785 37.7475 39.545 0 0 0
1496 4 10.785 39.545 37.7475 0 0 0
2200 3 12.582500000000005 10.785 10.785 0 0 0
2201 1 14.380000000000004 8.987499999999997 10.785 0 0 0
2202 4 14.380000000000004 10.785 8.987499999999997 0 0 0
2203 3 12.582500000000005 8.987499999999997 12.582500000000005 0 0 0
2204 3 12.582500000000005 10.785 14.380000000000004 0 0 0
2205 4 14.380000000000004 8.987499999999997 14.380000000000004 0 0 0
2206 3 14.380000000000004 10.785 12.582500000000005 0 0 0
2207 3 12.582500000000005 8.987499999999997 16.177500000000002 0 0 0
2208 3 12.582500000000005 10.785 17.975 0 0 0
2209 1 14.380000000000004 8.987499999999997 17.975 0 0 0
2210 2 14.380000000000004 10.785 16.177500000000002 0 0 0
2211 5 12.582500000000005 8.987499999999997 19.7725 0 0 0
2212 2 12.582500000000005 10.785 21.57 0 0 0
2213 5 14.380000000000004 8.987499999999997 21.57 0 0 0
2214 4 14.380000000000004 10.785 19.7725 0 0 0
2215 5 12.582500000000005 8.987499999999997 23.367500000000003 0 0 0
2216 4 12.582500000000005 10.785 25.165000000000003 0 0 0
2217 1 14.380000000000004 8.987499999999997 25.165000000000003 0 0 0
2218 1 14.380000000000004 10.785 23.367500000000003 0 0 0
2219 1 12.582500000000005 8.987499999999997 26.962500000000002 0 0 0
2220 5 12.582500000000005 10.785 28.76 0 0 0
2221 5 14.380000000000004 8.987499999999997 28.76 0 0 0
2222 1 14.380000000000004 10.785 26.962500000000002 0 0 0
2223 1 12.582500000000005 8.987499999999997 30.557500000000008 0 0 0
2224 2 12.582500000000005 10.785 32.355000000000004 0 0 0
2225 4 14.380000000000004 8.987499999999997 32.355000000000004 0 0 0
2226 3 14.380000000000004 10.785 30.557500000000008 0 0 0
2227 5 12.582500000000005 8.987499999999997 34.1525 0 0 0
2228 3 12.582500000000005 10.785 35.95 0 0 0
2229 5 14.380000000000004 8.987499999999997 35.95 0 0 0
2230 1 14.380000000000004 10.785 34.1525 0 0 0
2231 2 12.582500000000005 8.987499999999997 37.7475 0 0 0
2232 2 12.582500000000005 10.785 39.545 0 0 0
2233 4 14.380000000000004 8.987499999999997 39.545 0 0 0
2234 3 14.380000000000004 10.785 37.7475 0 0 0
2272 3 12.582500000000005 12.582500000000005 8.987499999999997 0 0 0
2273 2 12.582500000000005 14.380000000000004 10.785 0 0 0
2274 4 14.380000000000004 12.582500000000005 10.785 0 0 0
2275 3 14.380000000000004 14.380000000000004 8.987499999999997 0 0 0
2276 4 12.582500000000005 12.582500000000005 12.582500000000005 0 0 0
2277 3 12.582500000000005 14.380000000000004 14.380000000000004 0 0 0
2278 4 14.380000000000004 12.582500000000005 14.380000000000004 0 0 0
2279 1 14.380000000000004 14.380000000000004 12.582500000000005 0 0 0
2280 2 12.582500000000005 12.582500000000005 16.177500000000002 0 0 0
2281 2 12.582500000000005 14.380000000000004 17.975 0 0 0
2282 2 14.380000000000004 12.582500000000005 17.975 0 0 0
2283 3 14.380000000000004 14.380000000000004 16.177500000000002 0 0 0
2284 1 12.582500000000005 12.582500000000005 19.7725 0 0 0
2285 1 12.582500000000005 14.380000000000004 21.57 0 0 0
2286 4 14.380000000000004 12.582500000000005 21.57 0 0 0
2287 2 14.380000000000004 14.380000000000004 19.7725 0 0 0
2288 2 12.582500000000005 12.582500000000005 23.367500000000003 0 0 0
2289 3 12.582500000000005 14.380000000000004 25.165000000000003 0 0 0
2290 5 14.380000000000004 12.582500000000005 25.165000000000003 0 0 0