LAMMPS data file via write_data, version 30 Nov 2020, timestep = 0

29881 atoms
5 atom types

0 117 xlo xhi
0 117 ylo yhi
0 117 zlo zhi

Masses

1 58.69
2 58.933
3 51.96
4 55.847
5 54.94

Atoms # atomic

1 4 0 55.72250000000001 55.72250000000001 0 0 0
2 1 1.7974999999999997 53.92500000000001 55.72250000000001 0 0 0
3 1 1.7974999999999997 55.72250000000001 53.92500000000001 0 0 0
6 5 1.7974999999999997 55.72250000000001 57.52000000000001 0 0 0
9 5 1.7974999999999997 57.52000000000001 55.72250000000001 0 0 0
11 5 0 57.52000000000001 57.52000000000001 0 0 0
18 4 3.5949999999999993 52.127500000000005 55.72250000000001 0 0 0
19 1 5.392500000000005 50.33000000000001 55.72250000000001 0 0 0
20 4 5.392500000000005 52.127500000000005 53.92500000000001 0 0 0
23 3 5.392500000000005 52.127500000000005 57.52000000000001 0 0 0
25 5 3.5949999999999993 55.72250000000001 52.127500000000005 0 0 0
26 1 5.392500000000005 53.92500000000001 52.127500000000005 0 0 0
27 5 5.392500000000005 55.72250000000001 50.33000000000001 0 0 0
28 2 3.5949999999999993 53.92500000000001 53.92500000000001 0 0 0
29 4 3.5949999999999993 55.72250000000001 55.72250000000001 0 0 0
30 2 5.392500000000005 53.92500000000001 55.72250000000001 0 0 0
31 4 5.392500000000005 55.72250000000001 53.92500000000001 0 0 0
32 5 3.5949999999999993 53.92500000000001 57.52000000000001 0 0 0
35 4 5.392500000000005 55.72250000000001 57.52000000000001 0 0 0
42 3 5.392500000000005 57.52000000000001 52.127500000000005 0 0 0
44 5 3.5949999999999993 57.52000000000001 53.92500000000001 0 0 0
46 3 5.392500000000005 57.52000000000001 55.72250000000001 0 0 0
48 5 3.5949999999999993 57.52000000000001 57.52000000000001 0 0 0
71 3 7.190000000000006 48.532500000000006 55.72250000000001 0 0 0
72 5 8.987500000000006 46.735000000000014 55.72250000000001 0 0 0
73 1 8.987500000000006 48.532500000000006 53.92500000000001 0 0 0
76 3 8.987500000000006 48.532500000000006 57.52000000000001 0 0 0
78 4 7.190000000000006 52.127500000000005 52.127500000000005 0 0 0
79 4 8.987500000000006 50.33000000000001 52.127500000000005 0 0 0
80 4 8.987500000000006 52.127500000000005 50.33000000000001 0 0 0
81 3 7.190000000000006 50.33000000000001 53.92500000000001 0 0 0
82 1 7.190000000000006 52.127500000000005 55.72250000000001 0 0 0
83 5 8.987500000000006 50.33000000000001 55.72250000000001 0 0 0
84 2 8.987500000000006 52.127500000000005 53.92500000000001 0 0 0
85 1 7.190000000000006 50.33000000000001 57.52000000000001 0 0 0
88 4 8.987500000000006 52.127500000000005 57.52000000000001 0 0 0
94 4 7.190000000000006 55.72250000000001 48.532500000000006 0 0 0
95 3 8.987500000000006 53.92500000000001 48.532500000000006 0 0 0
96 2 8.987500000000006 55.72250000000001 46.735000000000014 0 0 0
97 2 7.190000000000006 53.92500000000001 50.33000000000001 0 0 0
98 5 7.190000000000006 55.72250000000001 52.127500000000005 0 0 0
99 1 8.987500000000006 53.92500000000001 52.127500000000005 0 0 0
100 2 8.987500000000006 55.72250000000001 50.33000000000001 0 0 0
101 1 7.190000000000006 53.92500000000001 53.92500000000001 0 0 0
102 4 7.190000000000006 55.72250000000001 55.72250000000001 0 0 0
103 1 8.987500000000006 53.92500000000001 55.72250000000001 0 0 0
104 4 8.987500000000006 55.72250000000001 53.92500000000001 0 0 0
105 3 7.190000000000006 53.92500000000001 57.52000000000001 0 0 0
108 4 8.987500000000006 55.72250000000001 57.52000000000001 0 0 0
119 5 8.987500000000006 57.52000000000001 48.532500000000006 0 0 0
121 1 7.190000000000006 57.52000000000001 50.33000000000001 0 0 0
123 4 8.987500000000006 57.52000000000001 52.127500000000005 0 0 0
125 4 7.190000000000006 57.52000000000001 53.92500000000001 0 0 0
127 5 8.987500000000006 57.52000000000001 55.72250000000001 0 0 0
129 1 7.190000000000006 57.52000000000001 57.52000000000001 0 0 0
176 1 10.785000000000005 44.9375 55.72250000000001 0 0 0
177 2 12.582500000000005 43.14000000000001 55.72250000000001 0 0 0
178 4 12.582500000000005 44.9375 53.92500000000001 0 0 0
181 5 12.582500000000005 44.9375 57.52000000000001 0 0 0
183 2 10.785000000000005 48.532500000000006 52.127500000000005 0 0 0
184 2 12.582500000000005 46.735000000000014 52.127500000000005 0 0 0
185 1 12.582500000000005 48.532500000000006 50.33000000000001 0 0 0
186 4 10.785000000000005 46.735000000000014 53.92500000000001 0 0 0
187 5 10.785000000000005 48.532500000000006 55.72250000000001 0 0 0
188 5 12.582500000000005 46.735000000000014 55.72250000000001 0 0 0
189 4 12.582500000000005 48.532500000000006 53.92500000000001 0 0 0
190 3 10.785000000000005 46.735000000000014 57.52000000000001 0 0 0
193 4 12.582500000000005 48.532500000000006 57.52000000000001 0 0 0
199 4 10.785000000000005 52.127500000000005 48.532500000000006 0 0 0
200 3 12.582500000000005 50.33000000000001 48.532500000000006 0 0 0
201 5 12.582500000000005 52.127500000000005 46.735000000000014 0 0 0
202 5 10.785000000000005 50.33000000000001 50.33000000000001 0 0 0
203 4 10.785000000000005 52.127500000000005 52.127500000000005 0 0 0
204 4 12.582500000000005 50.33000000000001 52.127500000000005 0 0 0
205 2 12.582500000000005 52.127500000000005 50.33000000000001 0 0 0
206 4 10.785000000000005 50.33000000000001 53.92500000000001 0 0 0
207 4 10.785000000000005 52.127500000000005 55.72250000000001 0 0 0
208 5 12.582500000000005 50.33000000000001 55.72250000000001 0 0 0
209 3 12.582500000000005 52.127500000000005 53.92500000000001 0 0 0
210 5 10.785000000000005 50.33000000000001 57.52000000000001 0 0 0
213 4 12.582500000000005 52.127500000000005 57.52000000000001 0 0 0
223 2 10.785000000000005 55.72250000000001 44.9375 0 0 0
224 1 12.582500000000005 53.92500000000001 44.9375 0 0 0
225 2 12.582500000000005 55.72250000000001 43.14000000000001 0 0 0
226 3 10.785000000000005 53.92500000000001 46.735000000000014 0 0 0
227 4 10.785000000000005 55.72250000000001 48.532500000000006 0 0 0
228 4 12.582500000000005 53.92500000000001 48.532500000000006 0 0 0
229 3 12.582500000000005 55.72250000000001 46.735000000000014 0 0 0
230 4 10.785000000000005 53.92500000000001 50.33000000000001 0 0 0
231 4 10.785000000000005 55.72250000000001 52.127500000000005 0 0 0
232 3 12.582500000000005 53.92500000000001 52.127500000000005 0 0 0
233 4 12.582500000000005 55.72250000000001 50.33000000000001 0 0 0
234 1 10.785000000000005 53.92500000000001 53.92500000000001 0 0 0
235 5 10.785000000000005 55.72250000000001 55.72250000000001 0 0 0
236 5 12.582500000000005 53.92500000000001 55.72250000000001 0 0 0
237 2 12.582500000000005 55.72250000000001 53.92500000000001 0 0 0
238 3 10.785000000000005 53.92500000000001 57.52000000000001 0 0 0
241 1 12.582500000000005 55.72250000000001 57.52000000000001 0 0 0
256 4 12.582500000000005 57.52000000000001 44.9375 0 0 0
258 2 10.785000000000005 57.52000000000001 46.735000000000014 0 0 0
260 4 12.582500000000005 57.52000000000001 48.532500000000006 0 0 0
262 1 10.785000000000005 57.52000000000001 50.33000000000001 0 0 0
264 2 12.582500000000005 57.52000000000001 52.127500000000005 0 0 0
266 1 10.785000000000005 57.52000000000001 53.92500000000001 0 0 0
268 3 12.582500000000005 57.52000000000001 55.72250000000001 0 0 0
270 1 10.785000000000005 57.52000000000001 57.52000000000001 0 0 0
349 5 14.380000000000004 41.3425 55.72250000000001 0 0 0
350 3 16.177500000000006 39.54500000000001 55.72250000000001 0 0 0
351 3 16.177500000000006 41.3425 53.92500000000001 0 0 0
354 1 16.177500000000006 41.3425 57.52000000000001 0 0 0
356 5 16.177500000000006 44.9375 46.735000000000014 0 0 0
357 4 14.380000000000004 44.9375 52.127500000000005 0 0 0
358 1 16.177500000000006 43.14000000000001 52.127500000000005 0 0 0
359 5 16.177500000000006 44.9375 50.33000000000001 0 0 0
360 4 14.380000000000004 43.14000000000001 53.92500000000001 0 0 0
361 5 14.380000000000004 44.9375 55.72250000000001 0 0 0
362 1 16.177500000000006 43.14000000000001 55.72250000000001 0 0 0
363 3 16.177500000000006 44.9375 53.92500000000001 0 0 0
364 5 14.380000000000004 43.14000000000001 57.52000000000001 0 0 0
367 5 16.177500000000006 44.9375 57.52000000000001 0 0 0
374 1 16.177500000000006 46.735000000000014 44.9375 0 0 0
375 5 14.380000000000004 46.735000000000014 46.735000000000014 0 0 0
376 1 14.380000000000004 48.532500000000006 48.532500000000006 0 0 0
377 3 16.177500000000006 46.735000000000014 48.532500000000006 0 0 0
378 5 16.177500000000006 48.532500000000006 46.735000000000014 0 0 0
379 4 14.380000000000004 46.735000000000014 50.33000000000001 0 0 0
380 4 14.380000000000004 48.532500000000006 52.127500000000005 0 0 0
381 4 16.177500000000006 46.735000000000014 52.127500000000005 0 0 0
382 2 16.177500000000006 48.532500000000006 50.33000000000001 0 0 0
383 5 14.380000000000004 46.735000000000014 53.92500000000001 0 0 0
384 3 14.380000000000004 48.532500000000006 55.72250000000001 0 0 0
385 5 16.177500000000006 46.735000000000014 55.72250000000001 0 0 0
386 2 16.177500000000006 48.532500000000006 53.92500000000001 0 0 0
387 4 14.380000000000004 46.735000000000014 57.52000000000001 0 0 0
390 1 16.177500000000006 48.532500000000006 57.52000000000001 0 0 0
402 2 14.380000000000004 52.127500000000005 44.9375 0 0 0
403 1 16.177500000000006 50.33000000000001 44.9375 0 0 0
404 2 16.177500000000006 52.127500000000005 43.14000000000001 0 0 0
405 3 14.380000000000004 50.33000000000001 46.735000000000014 0 0 0
406 1 14.380000000000004 52.127500000000005 48.532500000000006 0 0 0
407 1 16.177500000000006 50.33000000000001 48.532500000000006 0 0 0
408 1 16.177500000000006 52.127500000000005 46.735000000000014 0 0 0
409 3 14.380000000000004 50.33000000000001 50.33000000000001 0 0 0
410 2 14.380000000000004 52.127500000000005 52.127500000000005 0 0 0
411 2 16.177500000000006 50.33000000000001 52.127500000000005 0 0 0
412 5 16.177500000000006 52.127500000000005 50.33000000000001 0 0 0
413 3 14.380000000000004 50.33000000000001 53.92500000000001 0 0 0
414 1 14.380000000000004 52.127500000000005 55.72250000000001 0 0 0
415 2 16.177500000000006 50.33000000000001 55.72250000000001 0 0 0
416 2 16.177500000000006 52.127500000000005 53.92500000000001 0 0 0
417 5 14.380000000000004 50.33000000000001 57.52000000000001 0 0 0
420 2 16.177500000000006 52.127500000000005 57.52000000000001 0 0 0
434 1 14.380000000000004 55.72250000000001 41.3425 0 0 0
435 5 16.177500000000006 53.92500000000001 41.3425 0 0 0
436 1 16.177500000000006 55.72250000000001 39.54500000000001 0 0 0
437 2 14.380000000000004 53.92500000000001 43.14000000000001 0 0 0
438 4 14.380000000000004 55.72250000000001 44.9375 0 0 0
439 4 16.177500000000006 53.92500000000001 44.9375 0 0 0
440 2 16.177500000000006 55.72250000000001 43.14000000000001 0 0 0
441 5 14.380000000000004 53.92500000000001 46.735000000000014 0 0 0
442 2 14.380000000000004 55.72250000000001 48.532500000000006 0 0 0
443 1 16.177500000000006 53.92500000000001 48.532500000000006 0 0 0
444 2 16.177500000000006 55.72250000000001 46.735000000000014 0 0 0
445 5 14.380000000000004 53.92500000000001 50.33000000000001 0 0 0
446 2 14.380000000000004 55.72250000000001 52.127500000000005 0 0 0
447 1 16.177500000000006 53.92500000000001 52.127500000000005 0 0 0
448 4 16.177500000000006 55.72250000000001 50.33000000000001 0 0 0
449 4 14.380000000000004 53.92500000000001 53.92500000000001 0 0 0
450 1 14.380000000000004 55.72250000000001 55.72250000000001 0 0 0
451 3 16.177500000000006 53.92500000000001 55.72250000000001 0 0 0
452 4 16.177500000000006 55.72250000000001 53.92500000000001 0 0 0
453 2 14.380000000000004 53.92500000000001 57.52000000000001 0 0 0
456 5 16.177500000000006 55.72250000000001 57.52000000000001 0 0 0
475 2 16.177500000000006 57.52000000000001 41.3425 0 0 0
477 2 14.380000000000004 57.52000000000001 43.14000000000001 0 0 0
479 1 16.177500000000006 57.52000000000001 44.9375 0 0 0
481 4 14.380000000000004 57.52000000000001 46.735000000000014 0 0 0
483 4 16.177500000000006 57.52000000000001 48.532500000000006 0 0 0
485 4 14.380000000000004 57.52000000000001 50.33000000000001 0 0 0
487 5 16.177500000000006 57.52000000000001 52.127500000000005 0 0 0
489 1 14.380000000000004 57.52000000000001 53.92500000000001 0 0 0
491 3 16.177500000000006 57.52000000000001 55.72250000000001 0 0 0
493 5 14.380000000000004 57.52000000000001 57.52000000000001 0 0 0
618 1 17.975000000000005 37.7475 55.72250000000001 0 0 0
619 2 19.772500000000004 35.95000000000001 55.72250000000001 0 0 0
620 4 19.772500000000004 37.7475 53.92500000000001 0 0 0
623 1 19.772500000000004 37.7475 57.52000000000001 0 0 0
625 3 19.772500000000004 41.3425 46.735000000000014 0 0 0
626 5 17.975000000000005 41.3425 52.127500000000005 0 0 0
627 3 19.772500000000004 39.54500000000001 52.127500000000005 0 0 0
628 2 19.772500000000004 41.3425 50.33000000000001 0 0 0
629 4 17.975000000000005 39.54500000000001 53.92500000000001 0 0 0
630 1 17.975000000000005 41.3425 55.72250000000001 0 0 0
631 2 19.772500000000004 39.54500000000001 55.72250000000001 0 0 0
632 2 19.772500000000004 41.3425 53.92500000000001 0 0 0
633 5 17.975000000000005 39.54500000000001 57.52000000000001 0 0 0
636 4 19.772500000000004 41.3425 57.52000000000001 0 0 0
643 1 17.975000000000005 44.9375 44.9375 0 0 0
644 5 19.772500000000004 43.14000000000001 44.9375 0 0 0
645 4 19.772500000000004 44.9375 43.14000000000001 0 0 0
646 4 17.975000000000005 43.14000000000001 46.735000000000014 0 0 0
647 3 17.975000000000005 44.9375 48.532500000000006 0 0 0
648 5 19.772500000000004 43.14000000000001 48.532500000000006 0 0 0
649 4 19.772500000000004 44.9375 46.735000000000014 0 0 0
650 1 17.975000000000005 43.14000000000001 50.33000000000001 0 0 0
651 1 17.975000000000005 44.9375 52.127500000000005 0 0 0
652 2 19.772500000000004 43.14000000000001 52.127500000000005 0 0 0
653 1 19.772500000000004 44.9375 50.33000000000001 0 0 0
654 5 17.975000000000005 43.14000000000001 53.92500000000001 0 0 0
655 2 17.975000000000005 44.9375 55.72250000000001 0 0 0
656 5 19.772500000000004 43.14000000000001 55.72250000000001 0 0 0
657 1 19.772500000000004 44.9375 53.92500000000001 0 0 0
658 1 17.975000000000005 43.14000000000001 57.52000000000001 0 0 0
661 4 19.772500000000004 44.9375 57.52000000000001 0 0 0
675 2 19.772500000000004 46.735000000000014 41.3425 0 0 0
676 1 17.975000000000005 46.735000000000014 43.14000000000001 0 0 0
677 2 17.975000000000005 48.532500000000006 44.9375 0 0 0
678 4 19.772500000000004 46.735000000000014 44.9375 0 0 0
679 3 19.772500000000004 48.532500000000006 43.14000000000001 0 0 0
680 5 17.975000000000005 46.735000000000014 46.735000000000014 0 0 0
681 3 17.975000000000005 48.532500000000006 48.532500000000006 0 0 0
682 1 19.772500000000004 46.735000000000014 48.532500000000006 0 0 0
683 4 19.772500000000004 48.532500000000006 46.735000000000014 0 0 0
684 4 17.975000000000005 46.735000000000014 50.33000000000001 0 0 0
685 5 17.975000000000005 48.532500000000006 52.127500000000005 0 0 0
686 5 19.772500000000004 46.735000000000014 52.127500000000005 0 0 0
687 2 19.772500000000004 48.532500000000006 50.33000000000001 0 0 0
688 5 17.975000000000005 46.735000000000014 53.92500000000001 0 0 0
689 1 17.975000000000005 48.532500000000006 55.72250000000001 0 0 0
690 2 19.772500000000004 46.735000000000014 55.72250000000001 0 0 0
691 3 19.772500000000004 48.532500000000006 53.92500000000001 0 0 0
692 1 17.975000000000005 46.735000000000014 57.52000000000001 0 0 0
695 3 19.772500000000004 48.532500000000006 57.52000000000001 0 0 0
711 5 17.975000000000005 52.127500000000005 41.3425 0 0 0
712 2 19.772500000000004 50.33000000000001 41.3425 0 0 0
713 1 19.772500000000004 52.127500000000005 39.54500000000001 0 0 0
714 2 17.975000000000005 50.33000000000001 43.14000000000001 0 0 0
715 3 17.975000000000005 52.127500000000005 44.9375 0 0 0
716 2 19.772500000000004 50.33000000000001 44.9375 0 0 0
717 3 19.772500000000004 52.127500000000005 43.14000000000001 0 0 0
718 2 17.975000000000005 50.33000000000001 46.735000000000014 0 0 0
719 4 17.975000000000005 52.127500000000005 48.532500000000006 0 0 0
720 4 19.772500000000004 50.33000000000001 48.532500000000006 0 0 0
721 5 19.772500000000004 52.127500000000005 46.735000000000014 0 0 0
722 3 17.975000000000005 50.33000000000001 50.33000000000001 0 0 0
723 3 17.975000000000005 52.127500000000005 52.127500000000005 0 0 0
724 4 19.772500000000004 50.33000000000001 52.127500000000005 0 0 0
725 3 19.772500000000004 52.127500000000005 50.33000000000001 0 0 0
726 4 17.975000000000005 50.33000000000001 53.92500000000001 0 0 0
727 3 17.975000000000005 52.127500000000005 55.72250000000001 0 0 0
728 4 19.772500000000004 50.33000000000001 55.72250000000001 0 0 0
729 2 19.772500000000004 52.127500000000005 53.92500000000001 0 0 0
730 4 17.975000000000005 50.33000000000001 57.52000000000001 0 0 0
733 1 19.772500000000004 52.127500000000005 57.52000000000001 0 0 0
751 3 17.975000000000005 55.72250000000001 37.7475 0 0 0
752 3 19.772500000000004 53.92500000000001 37.7475 0 0 0
753 4 19.772500000000004 55.72250000000001 35.95000000000001 0 0 0
754 5 17.975000000000005 53.92500000000001 39.54500000000001 0 0 0
755 4 17.975000000000005 55.72250000000001 41.3425 0 0 0
756 2 19.772500000000004 53.92500000000001 41.3425 0 0 0
757 1 19.772500000000004 55.72250000000001 39.54500000000001 0 0 0
758 2 17.975000000000005 53.92500000000001 43.14000000000001 0 0 0
759 1 17.975000000000005 55.72250000000001 44.9375 0 0 0
760 2 19.772500000000004 53.92500000000001 44.9375 0 0 0
761 5 19.772500000000004 55.72250000000001 43.14000000000001 0 0 0
762 5 17.975000000000005 53.92500000000001 46.735000000000014 0 0 0
763 1 17.975000000000005 55.72250000000001 48.532500000000006 0 0 0
764 4 19.772500000000004 53.92500000000001 48.532500000000006 0 0 0
765 4 19.772500000000004 55.72250000000001 46.735000000000014 0 0 0
766 4 17.975000000000005 53.92500000000001 50.33000000000001 0 0 0
767 1 17.975000000000005 55.72250000000001 52.127500000000005 0 0 0
768 2 19.772500000000004 53.92500000000001 52.127500000000005 0 0 0
769 3 19.772500000000004 55.72250000000001 50.33000000000001 0 0 0
770 2 17.975000000000005 53.92500000000001 53.92500000000001 0 0 0
771 2 17.975000000000005 55.72250000000001 55.72250000000001 0 0 0
772 5 19.772500000000004 53.92500000000001 55.72250000000001 0 0 0
773 4 19.772500000000004 55.72250000000001 53.92500000000001 0 0 0
774 2 17.975000000000005 53.92500000000001 57.52000000000001 0 0 0
777 3 19.772500000000004 55.72250000000001 57.52000000000001 0 0 0
800 1 19.772500000000004 57.52000000000001 37.7475 0 0 0
802 4 17.975000000000005 57.52000000000001 39.54500000000001 0 0 0
804 5 19.772500000000004 57.52000000000001 41.3425 0 0 0
806 1 17.975000000000005 57.52000000000001 43.14000000000001 0 0 0
808 2 19.772500000000004 57.52000000000001 44.9375 0 0 0
810 1 17.975000000000005 57.52000000000001 46.735000000000014 0 0 0
812 5 19.772500000000004 57.52000000000001 48.532500000000006 0 0 0
814 2 17.975000000000005 57.52000000000001 50.33000000000001 0 0 0
816 2 19.772500000000004 57.52000000000001 52.127500000000005 0 0 0
818 1 17.975000000000005 57.52000000000001 53.92500000000001 0 0 0
820 4 19.772500000000004 57.52000000000001 55.72250000000001 0 0 0
822 4 17.975000000000005 57.52000000000001 57.52000000000001 0 0 0
1003 2 21.570000000000004 34.1525 55.72250000000001 0 0 0
1004 1 23.367500000000003 32.35500000000001 55.72250000000001 0 0 0
1005 5 23.367500000000003 34.1525 53.92500000000001 0 0 0
1008 5 23.367500000000003 34.1525 57.52000000000001 0 0 0
1010 4 23.367500000000003 37.7475 46.735000000000014 0 0 0
1011 3 21.570000000000004 37.7475 52.127500000000005 0 0 0
1012 2 23.367500000000003 35.95000000000001 52.127500000000005 0 0 0
1013 3 23.367500000000003 37.7475 50.33000000000001 0 0 0
1014 1 21.570000000000004 35.95000000000001 53.92500000000001 0 0 0
1015 5 21.570000000000004 37.7475 55.72250000000001 0 0 0
1016 4 23.367500000000003 35.95000000000001 55.72250000000001 0 0 0
1017 2 23.367500000000003 37.7475 53.92500000000001 0 0 0
1018 3 21.570000000000004 35.95000000000001 57.52000000000001 0 0 0
1021 5 23.367500000000003 37.7475 57.52000000000001 0 0 0
1028 5 21.570000000000004 41.3425 44.9375 0 0 0
1029 5 23.367500000000003 39.54500000000001 44.9375 0 0 0
1030 2 23.367500000000003 41.3425 43.14000000000001 0 0 0
1031 4 21.570000000000004 39.54500000000001 46.735000000000014 0 0 0
1032 3 21.570000000000004 41.3425 48.532500000000006 0 0 0
1033 5 23.367500000000003 39.54500000000001 48.532500000000006 0 0 0
1034 2 23.367500000000003 41.3425 46.735000000000014 0 0 0
1035 3 21.570000000000004 39.54500000000001 50.33000000000001 0 0 0
1036 4 21.570000000000004 41.3425 52.127500000000005 0 0 0
1037 2 23.367500000000003 39.54500000000001 52.127500000000005 0 0 0
1038 5 23.367500000000003 41.3425 50.33000000000001 0 0 0
1039 5 21.570000000000004 39.54500000000001 53.92500000000001 0 0 0
1040 1 21.570000000000004 41.3425 55.72250000000001 0 0 0
1041 1 23.367500000000003 39.54500000000001 55.72250000000001 0 0 0
1042 2 23.367500000000003 41.3425 53.92500000000001 0 0 0
1043 4 21.570000000000004 39.54500000000001 57.52000000000001 0 0 0
1046 2 23.367500000000003 41.3425 57.52000000000001 0 0 0
1060 1 21.570000000000004 44.9375 41.3425 0 0 0
1061 4 23.367500000000003 43.14000000000001 41.3425 0 0 0
1062 3 23.367500000000003 44.9375 39.54500000000001 0 0 0
1063 1 21.570000000000004 43.14000000000001 43.14000000000001 0 0 0
1064 2 21.570000000000004 44.9375 44.9375 0 0 0
1065 3 23.367500000000003 43.14000000000001 44.9375 0 0 0
1066 4 23.367500000000003 44.9375 43.14000000000001 0 0 0
1067 2 21.570000000000004 43.14000000000001 46.735000000000014 0 0 0
1068 1 21.570000000000004 44.9375 48.532500000000006 0 0 0
1069 5 23.367500000000003 43.14000000000001 48.532500000000006 0 0 0
1070 1 23.367500000000003 44.9375 46.735000000000014 0 0 0
1071 1 21.570000000000004 43.14000000000001 50.33000000000001 0 0 0
1072 4 21.570000000000004 44.9375 52.127500000000005 0 0 0
1073 5 23.367500000000003 43.14000000000001 52.127500000000005 0 0 0
1074 4 23.367500000000003 44.9375 50.33000000000001 0 0 0
1075 5 21.570000000000004 43.14000000000001 53.92500000000001 0 0 0
1076 1 21.570000000000004 44.9375 55.72250000000001 0 0 0
1077 2 23.367500000000003 43.14000000000001 55.72250000000001 0 0 0
1078 3 23.367500000000003 44.9375 53.92500000000001 0 0 0
1079 2 21.570000000000004 43.14000000000001 57.52000000000001 0 0 0
1082 2 23.367500000000003 44.9375 57.52000000000001 0 0 0
1100 1 23.367500000000003 46.735000000000014 37.7475 0 0 0
1101 4 21.570000000000004 46.735000000000014 39.54500000000001 0 0 0
1102 3 21.570000000000004 48.532500000000006 41.3425 0 0 0
1103 4 23.367500000000003 46.735000000000014 41.3425 0 0 0
1104 1 23.367500000000003 48.532500000000006 39.54500000000001 0 0 0
1105 1 21.570000000000004 46.735000000000014 43.14000000000001 0 0 0
1106 3 21.570000000000004 48.532500000000006 44.9375 0 0 0
1107 4 23.367500000000003 46.735000000000014 44.9375 0 0 0
1108 1 23.367500000000003 48.532500000000006 43.14000000000001 0 0 0
1109 4 21.570000000000004 46.735000000000014 46.735000000000014 0 0 0
1110 5 21.570000000000004 48.532500000000006 48.532500000000006 0 0 0
1111 5 23.367500000000003 46.735000000000014 48.532500000000006 0 0 0
1112 2 23.367500000000003 48.532500000000006 46.735000000000014 0 0 0
1113 5 21.570000000000004 46.735000000000014 50.33000000000001 0 0 0
1114 5 21.570000000000004 48.532500000000006 52.127500000000005 0 0 0
1115 5 23.367500000000003 46.735000000000014 52.127500000000005 0 0 0
1116 2 23.367500000000003 48.532500000000006 50.33000000000001 0 0 0
1117 1 21.570000000000004 46.735000000000014 53.92500000000001 0 0 0
1118 1 21.570000000000004 48.532500000000006 55.72250000000001 0 0 0
1119 1 23.367500000000003 46.735000000000014 55.72250000000001 0 0 0
1120 1 23.367500000000003 48.532500000000006 53.92500000000001 0 0 0
1121 3 21.570000000000004 46.735000000000014 57.52000000000001 0 0 0
1124 3 23.367500000000003 48.532500000000006 57.52000000000001 0 0 0
1144 2 21.570000000000004 52.127500000000005 37.7475 0 0 0
1145 4 23.367500000000003 50.33000000000001 37.7475 0 0 0
1146 1 23.367500000000003 52.127500000000005 35.95000000000001 0 0 0
1147 3 21.570000000000004 50.33000000000001 39.54500000000001 0 0 0
1148 3 21.570000000000004 52.127500000000005 41.3425 0 0 0
1149 3 23.367500000000003 50.33000000000001 41.3425 0 0 0
1150 2 23.367500000000003 52.127500000000005 39.54500000000001 0 0 0
1151 2 21.570000000000004 50.33000000000001 43.14000000000001 0 0 0
1152 2 21.570000000000004 52.127500000000005 44.9375 0 0 0
1153 5 23.367500000000003 50.33000000000001 44.9375 0 0 0
1154 4 23.367500000000003 52.127500000000005 43.14000000000001 0 0 0
1155 4 21.570000000000004 50.33000000000001 46.735000000000014 0 0 0
1156 2 21.570000000000004 52.127500000000005 48.532500000000006 0 0 0
1157 2 23.367500000000003 50.33000000000001 48.532500000000006 0 0 0
1158 5 23.367500000000003 52.127500000000005 46.735000000000014 0 0 0
1159 2 21.570000000000004 50.33000000000001 50.33000000000001 0 0 0
1160 4 21.570000000000004 52.127500000000005 52.127500000000005 0 0 0
1161 2 23.367500000000003 50.33000000000001 52.127500000000005 0 0 0
1162 1 23.367500000000003 52.127500000000005 50.33000000000001 0 0 0
1163 2 21.570000000000004 50.33000000000001 53.92500000000001 0 0 0
1164 3 21.570000000000004 52.127500000000005 55.72250000000001 0 0 0
1165 4 23.367500000000003 50.33000000000001 55.72250000000001 0 0 0
1166 4 23.367500000000003 52.127500000000005 53.92500000000001 0 0 0
1167 5 21.570000000000004 50.33000000000001 57.52000000000001 0 0 0
1170 5 23.367500000000003 52.127500000000005 57.52000000000001 0 0 0
1192 4 21.570000000000004 55.72250000000001 34.1525 0 0 0
1193 4 23.367500000000003 53.92500000000001 34.1525 0 0 0
1194 5 23.367500000000003 55.72250000000001 32.35500000000001 0 0 0
1195 4 21.570000000000004 53.92500000000001 35.95000000000001 0 0 0
1196 5 21.570000000000004 55.72250000000001 37.7475 0 0 0
1197 4 23.367500000000003 53.92500000000001 37.7475 0 0 0
1198 1 23.367500000000003 55.72250000000001 35.95000000000001 0 0 0
1199 2 21.570000000000004 53.92500000000001 39.54500000000001 0 0 0
1200 2 21.570000000000004 55.72250000000001 41.3425 0 0 0
1201 1 23.367500000000003 53.92500000000001 41.3425 0 0 0
1202 5 23.367500000000003 55.72250000000001 39.54500000000001 0 0 0
1203 5 21.570000000000004 53.92500000000001 43.14000000000001 0 0 0
1204 1 21.570000000000004 55.72250000000001 44.9375 0 0 0
1205 1 23.367500000000003 53.92500000000001 44.9375 0 0 0
1206 3 23.367500000000003 55.72250000000001 43.14000000000001 0 0 0
1207 1 21.570000000000004 53.92500000000001 46.735000000000014 0 0 0
1208 4 21.570000000000004 55.72250000000001 48.532500000000006 0 0 0
1209 1 23.367500000000003 53.92500000000001 48.532500000000006 0 0 0
1210 5 23.367500000000003 55.72250000000001 46.735000000000014 0 0 0
1211 3 21.570000000000004 53.92500000000001 50.33000000000001 0 0 0
1212 2 21.570000000000004 55.72250000000001 52.127500000000005 0 0 0
1213 2 23.367500000000003 53.92500000000001 52.127500000000005 0 0 0
1214 5 23.367500000000003 55.72250000000001 50.33000000000001 0 0 0
1215 4 21.570000000000004 53.92500000000001 53.92500000000001 0 0 0
1216 5 21.570000000000004 55.72250000000001 55.72250000000001 0 0 0
1217 3 23.367500000000003 53.92500000000001 55.72250000000001 0 0 0
1218 3 23.367500000000003 55.72250000000001 53.92500000000001 0 0 0
1219 5 21.570000000000004 53.92500000000001 57.52000000000001 0 0 0
1222 3 23.367500000000003 55.72250000000001 57.52000000000001 0 0 0
1249 5 23.367500000000003 57.52000000000001 34.1525 0 0 0
1251 4 21.570000000000004 57.52000000000001 35.95000000000001 0 0 0
1253 5 23.367500000000003 57.52000000000001 37.7475 0 0 0
1255 1 21.570000000000004 57.52000000000001 39.54500000000001 0 0 0
1257 4 23.367500000000003 57.52000000000001 41.3425 0 0 0
1259 3 21.570000000000004 57.52000000000001 43.14000000000001 0 0 0
1261 1 23.367500000000003 57.52000000000001 44.9375 0 0 0
1263 5 21.570000000000004 57.52000000000001 46.735000000000014 0 0 0
1265 3 23.367500000000003 57.52000000000001 48.532500000000006 0 0 0
1267 2 21.570000000000004 57.52000000000001 50.33000000000001 0 0 0
1269 1 23.367500000000003 57.52000000000001 52.127500000000005 0 0 0
1271 5 21.570000000000004 57.52000000000001 53.92500000000001 0 0 0
1273 5 23.367500000000003 57.52000000000001 55.72250000000001 0 0 0
1275 2 21.570000000000004 57.52000000000001 57.52000000000001 0 0 0
1520 1 25.165000000000003 30.557500000000008 55.72250000000001 0 0 0
1521 2 26.962500000000006 28.76000000000001 55.72250000000001 0 0 0
1522 5 26.962500000000006 30.557500000000008 53.92500000000001 0 0 0
1525 1 26.962500000000006 30.557500000000008 57.52000000000001 0 0 0
1527 1 26.962500000000006 34.1525 46.735000000000014 0 0 0
1528 5 25.165000000000003 34.1525 52.127500000000005 0 0 0
1529 2 26.962500000000006 32.35500000000001 52.127500000000005 0 0 0
1530 4 26.962500000000006 34.1525 50.33000000000001 0 0 0
1531 3 25.165000000000003 32.35500000000001 53.92500000000001 0 0 0
1532 1 25.165000000000003 34.1525 55.72250000000001 0 0 0
1533 5 26.962500000000006 32.35500000000001 55.72250000000001 0 0 0
1534 3 26.962500000000006 34.1525 53.92500000000001 0 0 0
1535 3 25.165000000000003 32.35500000000001 57.52000000000001 0 0 0
1538 4 26.962500000000006 34.1525 57.52000000000001 0 0 0
1545 2 25.165000000000003 37.7475 44.9375 0 0 0
1546 1 26.962500000000006 35.95000000000001 44.9375 0 0 0
1547 5 26.962500000000006 37.7475 43.14000000000001 0 0 0
1548 5 25.165000000000003 35.95000000000001 46.735000000000014 0 0 0
1549 3 25.165000000000003 37.7475 48.532500000000006 0 0 0
1550 5 26.962500000000006 35.95000000000001 48.532500000000006 0 0 0
1551 3 26.962500000000006 37.7475 46.735000000000014 0 0 0
1552 1 25.165000000000003 35.95000000000001 50.33000000000001 0 0 0
1553 5 25.165000000000003 37.7475 52.127500000000005 0 0 0
1554 4 26.962500000000006 35.95000000000001 52.127500000000005 0 0 0
1555 2 26.962500000000006 37.7475 50.33000000000001 0 0 0
1556 2 25.165000000000003 35.95000000000001 53.92500000000001 0 0 0