model_files/NiCoCrFeMn/NiCoCrFeMn_30000/NiCoCrFeMn_553/NiCoCrFeMn_553_fcc_29881_temp.data (written by ASE) 

29881 	 atoms 
5  atom types
0.0                     117  xlo xhi
0.0                     117  ylo yhi
0.0                     117  zlo zhi


Atoms 

     1   1                       0      55.722500000000011      55.722500000000011
     2   1      1.7974999999999997      53.925000000000011      55.722500000000011
     3   1      1.7974999999999997      55.722500000000011      53.925000000000011
     4   1                       0      55.722500000000011      59.317500000000003
     5   1      1.7974999999999997      53.925000000000011      59.317500000000003
     6   1      1.7974999999999997      55.722500000000011       57.52000000000001
     7   1      1.7974999999999997      55.722500000000011      61.115000000000016
     8   1                       0      59.317500000000003      55.722500000000011
     9   1      1.7974999999999997       57.52000000000001      55.722500000000011
    10   1      1.7974999999999997      59.317500000000003      53.925000000000011
    11   1                       0       57.52000000000001       57.52000000000001
    12   1                       0      59.317500000000003      59.317500000000003
    13   1      1.7974999999999997       57.52000000000001      59.317500000000003
    14   1      1.7974999999999997      59.317500000000003       57.52000000000001
    15   1      1.7974999999999997      59.317500000000003      61.115000000000016
    16   1      1.7974999999999997      61.115000000000016      55.722500000000011
    17   1      1.7974999999999997      61.115000000000016      59.317500000000003
    18   1      3.5949999999999993      52.127500000000005      55.722500000000011
    19   1      5.3925000000000054      50.330000000000013      55.722500000000011
    20   1      5.3925000000000054      52.127500000000005      53.925000000000011
    21   1      3.5949999999999993      52.127500000000005      59.317500000000003
    22   1      5.3925000000000054      50.330000000000013      59.317500000000003
    23   1      5.3925000000000054      52.127500000000005       57.52000000000001
    24   1      5.3925000000000054      52.127500000000005      61.115000000000016
    25   1      3.5949999999999993      55.722500000000011      52.127500000000005
    26   1      5.3925000000000054      53.925000000000011      52.127500000000005
    27   1      5.3925000000000054      55.722500000000011      50.330000000000013
    28   1      3.5949999999999993      53.925000000000011      53.925000000000011
    29   1      3.5949999999999993      55.722500000000011      55.722500000000011
    30   1      5.3925000000000054      53.925000000000011      55.722500000000011
    31   1      5.3925000000000054      55.722500000000011      53.925000000000011
    32   1      3.5949999999999993      53.925000000000011       57.52000000000001
    33   1      3.5949999999999993      55.722500000000011      59.317500000000003
    34   1      5.3925000000000054      53.925000000000011      59.317500000000003
    35   1      5.3925000000000054      55.722500000000011       57.52000000000001
    36   1      3.5949999999999993      53.925000000000011      61.115000000000016
    37   1      3.5949999999999993      55.722500000000011      62.912500000000009
    38   1      5.3925000000000054      53.925000000000011      62.912500000000009
    39   1      5.3925000000000054      55.722500000000011      61.115000000000016
    40   1      5.3925000000000054      55.722500000000011      64.710000000000022
    41   1      3.5949999999999993      59.317500000000003      52.127500000000005
    42   1      5.3925000000000054       57.52000000000001      52.127500000000005
    43   1      5.3925000000000054      59.317500000000003      50.330000000000013
    44   1      3.5949999999999993       57.52000000000001      53.925000000000011
    45   1      3.5949999999999993      59.317500000000003      55.722500000000011
    46   1      5.3925000000000054       57.52000000000001      55.722500000000011
    47   1      5.3925000000000054      59.317500000000003      53.925000000000011
    48   1      3.5949999999999993       57.52000000000001       57.52000000000001
    49   1      3.5949999999999993      59.317500000000003      59.317500000000003
    50   1      5.3925000000000054       57.52000000000001      59.317500000000003
    51   1      5.3925000000000054      59.317500000000003       57.52000000000001
    52   1      3.5949999999999993       57.52000000000001      61.115000000000016
    53   1      3.5949999999999993      59.317500000000003      62.912500000000009
    54   1      5.3925000000000054       57.52000000000001      62.912500000000009
    55   1      5.3925000000000054      59.317500000000003      61.115000000000016
    56   1      5.3925000000000054      59.317500000000003      64.710000000000022
    57   1      5.3925000000000054      61.115000000000016      52.127500000000005
    58   1      3.5949999999999993      61.115000000000016      53.925000000000011
    59   1      3.5949999999999993      62.912500000000009      55.722500000000011
    60   1      5.3925000000000054      61.115000000000016      55.722500000000011
    61   1      5.3925000000000054      62.912500000000009      53.925000000000011
    62   1      3.5949999999999993      61.115000000000016       57.52000000000001
    63   1      3.5949999999999993      62.912500000000009      59.317500000000003
    64   1      5.3925000000000054      61.115000000000016      59.317500000000003
    65   1      5.3925000000000054      62.912500000000009       57.52000000000001
    66   1      3.5949999999999993      61.115000000000016      61.115000000000016
    67   1      5.3925000000000054      61.115000000000016      62.912500000000009
    68   1      5.3925000000000054      62.912500000000009      61.115000000000016
    69   1      5.3925000000000054      64.710000000000022      55.722500000000011
    70   1      5.3925000000000054      64.710000000000022      59.317500000000003
    71   1      7.1900000000000057      48.532500000000006      55.722500000000011
    72   1       8.987500000000006      46.735000000000014      55.722500000000011
    73   1       8.987500000000006      48.532500000000006      53.925000000000011
    74   1      7.1900000000000057      48.532500000000006      59.317500000000003
    75   1       8.987500000000006      46.735000000000014      59.317500000000003
    76   1       8.987500000000006      48.532500000000006       57.52000000000001
    77   1       8.987500000000006      48.532500000000006      61.115000000000016
    78   1      7.1900000000000057      52.127500000000005      52.127500000000005
    79   1       8.987500000000006      50.330000000000013      52.127500000000005
    80   1       8.987500000000006      52.127500000000005      50.330000000000013
    81   1      7.1900000000000057      50.330000000000013      53.925000000000011
    82   1      7.1900000000000057      52.127500000000005      55.722500000000011
    83   1       8.987500000000006      50.330000000000013      55.722500000000011
    84   1       8.987500000000006      52.127500000000005      53.925000000000011
    85   1      7.1900000000000057      50.330000000000013       57.52000000000001
    86   1      7.1900000000000057      52.127500000000005      59.317500000000003
    87   1       8.987500000000006      50.330000000000013      59.317500000000003
    88   1       8.987500000000006      52.127500000000005       57.52000000000001
    89   1      7.1900000000000057      50.330000000000013      61.115000000000016
    90   1      7.1900000000000057      52.127500000000005      62.912500000000009
    91   1       8.987500000000006      50.330000000000013      62.912500000000009
    92   1       8.987500000000006      52.127500000000005      61.115000000000016
    93   1       8.987500000000006      52.127500000000005      64.710000000000022
    94   1      7.1900000000000057      55.722500000000011      48.532500000000006
    95   1       8.987500000000006      53.925000000000011      48.532500000000006
    96   1       8.987500000000006      55.722500000000011      46.735000000000014
    97   1      7.1900000000000057      53.925000000000011      50.330000000000013
    98   1      7.1900000000000057      55.722500000000011      52.127500000000005
    99   1       8.987500000000006      53.925000000000011      52.127500000000005
   100   1       8.987500000000006      55.722500000000011      50.330000000000013
   101   1      7.1900000000000057      53.925000000000011      53.925000000000011
   102   1      7.1900000000000057      55.722500000000011      55.722500000000011
   103   1       8.987500000000006      53.925000000000011      55.722500000000011
   104   1       8.987500000000006      55.722500000000011      53.925000000000011
   105   1      7.1900000000000057      53.925000000000011       57.52000000000001
   106   1      7.1900000000000057      55.722500000000011      59.317500000000003
   107   1       8.987500000000006      53.925000000000011      59.317500000000003
   108   1       8.987500000000006      55.722500000000011       57.52000000000001
   109   1      7.1900000000000057      53.925000000000011      61.115000000000016
   110   1      7.1900000000000057      55.722500000000011      62.912500000000009
   111   1       8.987500000000006      53.925000000000011      62.912500000000009
   112   1       8.987500000000006      55.722500000000011      61.115000000000016
   113   1      7.1900000000000057      53.925000000000011      64.710000000000022
   114   1      7.1900000000000057      55.722500000000011      66.507500000000022
   115   1       8.987500000000006      53.925000000000011      66.507500000000022
   116   1       8.987500000000006      55.722500000000011      64.710000000000022
   117   1       8.987500000000006      55.722500000000011      68.305000000000007
   118   1      7.1900000000000057      59.317500000000003      48.532500000000006
   119   1       8.987500000000006       57.52000000000001      48.532500000000006
   120   1       8.987500000000006      59.317500000000003      46.735000000000014
   121   1      7.1900000000000057       57.52000000000001      50.330000000000013
   122   1      7.1900000000000057      59.317500000000003      52.127500000000005
   123   1       8.987500000000006       57.52000000000001      52.127500000000005
   124   1       8.987500000000006      59.317500000000003      50.330000000000013
   125   1      7.1900000000000057       57.52000000000001      53.925000000000011
   126   1      7.1900000000000057      59.317500000000003      55.722500000000011
   127   1       8.987500000000006       57.52000000000001      55.722500000000011
   128   1       8.987500000000006      59.317500000000003      53.925000000000011
   129   1      7.1900000000000057       57.52000000000001       57.52000000000001
   130   1      7.1900000000000057      59.317500000000003      59.317500000000003
   131   1       8.987500000000006       57.52000000000001      59.317500000000003
   132   1       8.987500000000006      59.317500000000003       57.52000000000001
   133   1      7.1900000000000057       57.52000000000001      61.115000000000016
   134   1      7.1900000000000057      59.317500000000003      62.912500000000009
   135   1       8.987500000000006       57.52000000000001      62.912500000000009
   136   1       8.987500000000006      59.317500000000003      61.115000000000016
   137   1      7.1900000000000057       57.52000000000001      64.710000000000022
   138   1      7.1900000000000057      59.317500000000003      66.507500000000022
   139   1       8.987500000000006       57.52000000000001      66.507500000000022
   140   1       8.987500000000006      59.317500000000003      64.710000000000022
   141   1       8.987500000000006      59.317500000000003      68.305000000000007
   142   1       8.987500000000006      61.115000000000016      48.532500000000006
   143   1      7.1900000000000057      61.115000000000016      50.330000000000013
   144   1      7.1900000000000057      62.912500000000009      52.127500000000005
   145   1       8.987500000000006      61.115000000000016      52.127500000000005
   146   1       8.987500000000006      62.912500000000009      50.330000000000013
   147   1      7.1900000000000057      61.115000000000016      53.925000000000011
   148   1      7.1900000000000057      62.912500000000009      55.722500000000011
   149   1       8.987500000000006      61.115000000000016      55.722500000000011
   150   1       8.987500000000006      62.912500000000009      53.925000000000011
   151   1      7.1900000000000057      61.115000000000016       57.52000000000001
   152   1      7.1900000000000057      62.912500000000009      59.317500000000003
   153   1       8.987500000000006      61.115000000000016      59.317500000000003
   154   1       8.987500000000006      62.912500000000009       57.52000000000001
   155   1      7.1900000000000057      61.115000000000016      61.115000000000016
   156   1      7.1900000000000057      62.912500000000009      62.912500000000009
   157   1       8.987500000000006      61.115000000000016      62.912500000000009
   158   1       8.987500000000006      62.912500000000009      61.115000000000016
   159   1      7.1900000000000057      61.115000000000016      64.710000000000022
   160   1       8.987500000000006      61.115000000000016      66.507500000000022
   161   1       8.987500000000006      62.912500000000009      64.710000000000022
   162   1       8.987500000000006      64.710000000000022      52.127500000000005
   163   1      7.1900000000000057      64.710000000000022      53.925000000000011
   164   1      7.1900000000000057      66.507500000000022      55.722500000000011
   165   1       8.987500000000006      64.710000000000022      55.722500000000011
   166   1       8.987500000000006      66.507500000000022      53.925000000000011
   167   1      7.1900000000000057      64.710000000000022       57.52000000000001
   168   1      7.1900000000000057      66.507500000000022      59.317500000000003
   169   1       8.987500000000006      64.710000000000022      59.317500000000003
   170   1       8.987500000000006      66.507500000000022       57.52000000000001
   171   1      7.1900000000000057      64.710000000000022      61.115000000000016
   172   1       8.987500000000006      64.710000000000022      62.912500000000009
   173   1       8.987500000000006      66.507500000000022      61.115000000000016
   174   1       8.987500000000006      68.305000000000007      55.722500000000011
   175   1       8.987500000000006      68.305000000000007      59.317500000000003
   176   1      10.785000000000005                 44.9375      55.722500000000011
   177   1      12.582500000000005      43.140000000000008      55.722500000000011
   178   1      12.582500000000005                 44.9375      53.925000000000011
   179   1      10.785000000000005                 44.9375      59.317500000000003
   180   1      12.582500000000005      43.140000000000008      59.317500000000003
   181   1      12.582500000000005                 44.9375       57.52000000000001
   182   1      12.582500000000005                 44.9375      61.115000000000016
   183   1      10.785000000000005      48.532500000000006      52.127500000000005
   184   1      12.582500000000005      46.735000000000014      52.127500000000005
   185   1      12.582500000000005      48.532500000000006      50.330000000000013
   186   1      10.785000000000005      46.735000000000014      53.925000000000011
   187   1      10.785000000000005      48.532500000000006      55.722500000000011
   188   1      12.582500000000005      46.735000000000014      55.722500000000011
   189   1      12.582500000000005      48.532500000000006      53.925000000000011
   190   1      10.785000000000005      46.735000000000014       57.52000000000001
   191   1      10.785000000000005      48.532500000000006      59.317500000000003
   192   1      12.582500000000005      46.735000000000014      59.317500000000003
   193   1      12.582500000000005      48.532500000000006       57.52000000000001
   194   1      10.785000000000005      46.735000000000014      61.115000000000016
   195   1      10.785000000000005      48.532500000000006      62.912500000000009
   196   1      12.582500000000005      46.735000000000014      62.912500000000009
   197   1      12.582500000000005      48.532500000000006      61.115000000000016
   198   1      12.582500000000005      48.532500000000006      64.710000000000022
   199   1      10.785000000000005      52.127500000000005      48.532500000000006
   200   1      12.582500000000005      50.330000000000013      48.532500000000006
   201   1      12.582500000000005      52.127500000000005      46.735000000000014
   202   1      10.785000000000005      50.330000000000013      50.330000000000013
   203   1      10.785000000000005      52.127500000000005      52.127500000000005
   204   1      12.582500000000005      50.330000000000013      52.127500000000005
   205   1      12.582500000000005      52.127500000000005      50.330000000000013
   206   1      10.785000000000005      50.330000000000013      53.925000000000011
   207   1      10.785000000000005      52.127500000000005      55.722500000000011
   208   1      12.582500000000005      50.330000000000013      55.722500000000011
   209   1      12.582500000000005      52.127500000000005      53.925000000000011
   210   1      10.785000000000005      50.330000000000013       57.52000000000001
   211   1      10.785000000000005      52.127500000000005      59.317500000000003
   212   1      12.582500000000005      50.330000000000013      59.317500000000003
   213   1      12.582500000000005      52.127500000000005       57.52000000000001
   214   1      10.785000000000005      50.330000000000013      61.115000000000016
   215   1      10.785000000000005      52.127500000000005      62.912500000000009
   216   1      12.582500000000005      50.330000000000013      62.912500000000009
   217   1      12.582500000000005      52.127500000000005      61.115000000000016
   218   1      10.785000000000005      50.330000000000013      64.710000000000022
   219   1      10.785000000000005      52.127500000000005      66.507500000000022
   220   1      12.582500000000005      50.330000000000013      66.507500000000022
   221   1      12.582500000000005      52.127500000000005      64.710000000000022
   222   1      12.582500000000005      52.127500000000005      68.305000000000007
   223   1      10.785000000000005      55.722500000000011                 44.9375
   224   1      12.582500000000005      53.925000000000011                 44.9375
   225   1      12.582500000000005      55.722500000000011      43.140000000000008
   226   1      10.785000000000005      53.925000000000011      46.735000000000014
   227   1      10.785000000000005      55.722500000000011      48.532500000000006
   228   1      12.582500000000005      53.925000000000011      48.532500000000006
   229   1      12.582500000000005      55.722500000000011      46.735000000000014
   230   1      10.785000000000005      53.925000000000011      50.330000000000013
   231   1      10.785000000000005      55.722500000000011      52.127500000000005
   232   1      12.582500000000005      53.925000000000011      52.127500000000005
   233   1      12.582500000000005      55.722500000000011      50.330000000000013
   234   1      10.785000000000005      53.925000000000011      53.925000000000011
   235   1      10.785000000000005      55.722500000000011      55.722500000000011
   236   1      12.582500000000005      53.925000000000011      55.722500000000011
   237   1      12.582500000000005      55.722500000000011      53.925000000000011
   238   1      10.785000000000005      53.925000000000011       57.52000000000001
   239   1      10.785000000000005      55.722500000000011      59.317500000000003
   240   1      12.582500000000005      53.925000000000011      59.317500000000003
   241   1      12.582500000000005      55.722500000000011       57.52000000000001
   242   1      10.785000000000005      53.925000000000011      61.115000000000016
   243   1      10.785000000000005      55.722500000000011      62.912500000000009
   244   1      12.582500000000005      53.925000000000011      62.912500000000009
   245   1      12.582500000000005      55.722500000000011      61.115000000000016
   246   1      10.785000000000005      53.925000000000011      64.710000000000022
   247   1      10.785000000000005      55.722500000000011      66.507500000000022
   248   1      12.582500000000005      53.925000000000011      66.507500000000022
   249   1      12.582500000000005      55.722500000000011      64.710000000000022
   250   1      10.785000000000005      53.925000000000011      68.305000000000007
   251   1      10.785000000000005      55.722500000000011      70.102500000000006
   252   1      12.582500000000005      53.925000000000011      70.102500000000006
   253   1      12.582500000000005      55.722500000000011      68.305000000000007
   254   1      12.582500000000005      55.722500000000011       71.90000000000002
   255   1      10.785000000000005      59.317500000000003                 44.9375
   256   1      12.582500000000005       57.52000000000001                 44.9375
   257   1      12.582500000000005      59.317500000000003      43.140000000000008
   258   1      10.785000000000005       57.52000000000001      46.735000000000014
   259   1      10.785000000000005      59.317500000000003      48.532500000000006
   260   1      12.582500000000005       57.52000000000001      48.532500000000006
   261   1      12.582500000000005      59.317500000000003      46.735000000000014
   262   1      10.785000000000005       57.52000000000001      50.330000000000013
   263   1      10.785000000000005      59.317500000000003      52.127500000000005
   264   1      12.582500000000005       57.52000000000001      52.127500000000005
   265   1      12.582500000000005      59.317500000000003      50.330000000000013
   266   1      10.785000000000005       57.52000000000001      53.925000000000011
   267   1      10.785000000000005      59.317500000000003      55.722500000000011
   268   1      12.582500000000005       57.52000000000001      55.722500000000011
   269   1      12.582500000000005      59.317500000000003      53.925000000000011
   270   1      10.785000000000005       57.52000000000001       57.52000000000001
   271   1      10.785000000000005      59.317500000000003      59.317500000000003
   272   1      12.582500000000005       57.52000000000001      59.317500000000003
   273   1      12.582500000000005      59.317500000000003       57.52000000000001
   274   1      10.785000000000005       57.52000000000001      61.115000000000016
   275   1      10.785000000000005      59.317500000000003      62.912500000000009
   276   1      12.582500000000005       57.52000000000001      62.912500000000009
   277   1      12.582500000000005      59.317500000000003      61.115000000000016
   278   1      10.785000000000005       57.52000000000001      64.710000000000022
   279   1      10.785000000000005      59.317500000000003      66.507500000000022
   280   1      12.582500000000005       57.52000000000001      66.507500000000022
   281   1      12.582500000000005      59.317500000000003      64.710000000000022
   282   1      10.785000000000005       57.52000000000001      68.305000000000007
   283   1      10.785000000000005      59.317500000000003      70.102500000000006
   284   1      12.582500000000005       57.52000000000001      70.102500000000006
   285   1      12.582500000000005      59.317500000000003      68.305000000000007
   286   1      12.582500000000005      59.317500000000003       71.90000000000002
   287   1      12.582500000000005      61.115000000000016                 44.9375
   288   1      10.785000000000005      61.115000000000016      46.735000000000014
   289   1      10.785000000000005      62.912500000000009      48.532500000000006
   290   1      12.582500000000005      61.115000000000016      48.532500000000006
   291   1      12.582500000000005      62.912500000000009      46.735000000000014
   292   1      10.785000000000005      61.115000000000016      50.330000000000013
   293   1      10.785000000000005      62.912500000000009      52.127500000000005
   294   1      12.582500000000005      61.115000000000016      52.127500000000005
   295   1      12.582500000000005      62.912500000000009      50.330000000000013
   296   1      10.785000000000005      61.115000000000016      53.925000000000011
   297   1      10.785000000000005      62.912500000000009      55.722500000000011
   298   1      12.582500000000005      61.115000000000016      55.722500000000011
   299   1      12.582500000000005      62.912500000000009      53.925000000000011
   300   1      10.785000000000005      61.115000000000016       57.52000000000001
   301   1      10.785000000000005      62.912500000000009      59.317500000000003
   302   1      12.582500000000005      61.115000000000016      59.317500000000003
   303   1      12.582500000000005      62.912500000000009       57.52000000000001
   304   1      10.785000000000005      61.115000000000016      61.115000000000016
   305   1      10.785000000000005      62.912500000000009      62.912500000000009
   306   1      12.582500000000005      61.115000000000016      62.912500000000009
   307   1      12.582500000000005      62.912500000000009      61.115000000000016
   308   1      10.785000000000005      61.115000000000016      64.710000000000022
   309   1      10.785000000000005      62.912500000000009      66.507500000000022
   310   1      12.582500000000005      61.115000000000016      66.507500000000022
   311   1      12.582500000000005      62.912500000000009      64.710000000000022
   312   1      10.785000000000005      61.115000000000016      68.305000000000007
   313   1      12.582500000000005      61.115000000000016      70.102500000000006
   314   1      12.582500000000005      62.912500000000009      68.305000000000007
   315   1      12.582500000000005      64.710000000000022      48.532500000000006
   316   1      10.785000000000005      64.710000000000022      50.330000000000013
   317   1      10.785000000000005      66.507500000000022      52.127500000000005
   318   1      12.582500000000005      64.710000000000022      52.127500000000005
   319   1      12.582500000000005      66.507500000000022      50.330000000000013
   320   1      10.785000000000005      64.710000000000022      53.925000000000011
   321   1      10.785000000000005      66.507500000000022      55.722500000000011
   322   1      12.582500000000005      64.710000000000022      55.722500000000011
   323   1      12.582500000000005      66.507500000000022      53.925000000000011
   324   1      10.785000000000005      64.710000000000022       57.52000000000001
   325   1      10.785000000000005      66.507500000000022      59.317500000000003
   326   1      12.582500000000005      64.710000000000022      59.317500000000003
   327   1      12.582500000000005      66.507500000000022       57.52000000000001
   328   1      10.785000000000005      64.710000000000022      61.115000000000016
   329   1      10.785000000000005      66.507500000000022      62.912500000000009
   330   1      12.582500000000005      64.710000000000022      62.912500000000009
   331   1      12.582500000000005      66.507500000000022      61.115000000000016
   332   1      10.785000000000005      64.710000000000022      64.710000000000022
   333   1      12.582500000000005      64.710000000000022      66.507500000000022
   334   1      12.582500000000005      66.507500000000022      64.710000000000022
   335   1      12.582500000000005      68.305000000000007      52.127500000000005
   336   1      10.785000000000005      68.305000000000007      53.925000000000011
   337   1      10.785000000000005      70.102500000000006      55.722500000000011
   338   1      12.582500000000005      68.305000000000007      55.722500000000011
   339   1      12.582500000000005      70.102500000000006      53.925000000000011
   340   1      10.785000000000005      68.305000000000007       57.52000000000001
   341   1      10.785000000000005      70.102500000000006      59.317500000000003
   342   1      12.582500000000005      68.305000000000007      59.317500000000003
   343   1      12.582500000000005      70.102500000000006       57.52000000000001
   344   1      10.785000000000005      68.305000000000007      61.115000000000016
   345   1      12.582500000000005      68.305000000000007      62.912500000000009
   346   1      12.582500000000005      70.102500000000006      61.115000000000016
   347   1      12.582500000000005       71.90000000000002      55.722500000000011
   348   1      12.582500000000005       71.90000000000002      59.317500000000003
   349   1      14.380000000000004      41.342500000000001      55.722500000000011
   350   1      16.177500000000006      39.545000000000009      55.722500000000011
   351   1      16.177500000000006      41.342500000000001      53.925000000000011
   352   1      14.380000000000004      41.342500000000001      59.317500000000003
   353   1      16.177500000000006      39.545000000000009      59.317500000000003
   354   1      16.177500000000006      41.342500000000001       57.52000000000001
   355   1      16.177500000000006      41.342500000000001      61.115000000000016
   356   1      16.177500000000006                 44.9375      46.735000000000014
   357   1      14.380000000000004                 44.9375      52.127500000000005
   358   1      16.177500000000006      43.140000000000008      52.127500000000005