model_files/CuFeNi/CuFeNi_30000/CuFeNi_510/CuFeNi_510_fcc_29899_temp.data (written by ASE) 

29899 	 atoms 
3  atom types
0.0                      78  xlo xhi
0.0                      78  ylo yhi
0.0                      78  zlo zhi


Atoms 

     1   1      1.7899999999999991                   30.43      32.219999999999999
     2   1      1.7899999999999991                   30.43      35.800000000000004
     3   1      1.7899999999999991                   30.43      39.380000000000003
     4   1      1.7899999999999991                   30.43      42.960000000000001
     5   1      1.7899999999999991                   30.43      46.539999999999999
     6   1      1.7899999999999991      32.219999999999999                   30.43
     7   1      1.7899999999999991      32.219999999999999      34.009999999999998
     8   1      1.7899999999999991      34.009999999999998      32.219999999999999
     9   1      1.7899999999999991      32.219999999999999      37.590000000000003
    10   1      1.7899999999999991      34.009999999999998      35.800000000000004
    11   1      1.7899999999999991      32.219999999999999      41.169999999999995
    12   1      1.7899999999999991      34.009999999999998      39.380000000000003
    13   1      1.7899999999999991      32.219999999999999                   44.75
    14   1      1.7899999999999991      34.009999999999998      42.960000000000001
    15   1      1.7899999999999991      32.219999999999999      48.330000000000005
    16   1      1.7899999999999991      34.009999999999998      46.539999999999999
    17   1      1.7899999999999991      35.800000000000004                   30.43
    18   1      1.7899999999999991      35.800000000000004      34.009999999999998
    19   1      1.7899999999999991      37.590000000000003      32.219999999999999
    20   1      1.7899999999999991      35.800000000000004      37.590000000000003
    21   1      1.7899999999999991      37.590000000000003      35.800000000000004
    22   1      1.7899999999999991      35.800000000000004      41.169999999999995
    23   1      1.7899999999999991      37.590000000000003      39.380000000000003
    24   1      1.7899999999999991      35.800000000000004                   44.75
    25   1      1.7899999999999991      37.590000000000003      42.960000000000001
    26   1      1.7899999999999991      35.800000000000004      48.330000000000005
    27   1      1.7899999999999991      37.590000000000003      46.539999999999999
    28   1      1.7899999999999991      39.380000000000003                   30.43
    29   1      1.7899999999999991      39.380000000000003      34.009999999999998
    30   1      1.7899999999999991      41.169999999999995      32.219999999999999
    31   1      1.7899999999999991      39.380000000000003      37.590000000000003
    32   1      1.7899999999999991      41.169999999999995      35.800000000000004
    33   1                       0      39.380000000000003      39.380000000000003
    34   1      1.7899999999999991      39.380000000000003      41.169999999999995
    35   1      1.7899999999999991      41.169999999999995      39.380000000000003
    36   1      1.7899999999999991      39.380000000000003                   44.75
    37   1      1.7899999999999991      41.169999999999995      42.960000000000001
    38   1      1.7899999999999991      39.380000000000003      48.330000000000005
    39   1      1.7899999999999991      41.169999999999995      46.539999999999999
    40   1      1.7899999999999991      42.960000000000001                   30.43
    41   1      1.7899999999999991      42.960000000000001      34.009999999999998
    42   1      1.7899999999999991                   44.75      32.219999999999999
    43   1      1.7899999999999991      42.960000000000001      37.590000000000003
    44   1      1.7899999999999991                   44.75      35.800000000000004
    45   1      1.7899999999999991      42.960000000000001      41.169999999999995
    46   1      1.7899999999999991                   44.75      39.380000000000003
    47   1      1.7899999999999991      42.960000000000001                   44.75
    48   1      1.7899999999999991                   44.75      42.960000000000001
    49   1      1.7899999999999991      42.960000000000001      48.330000000000005
    50   1      1.7899999999999991                   44.75      46.539999999999999
    51   1      1.7899999999999991      46.539999999999999                   30.43
    52   1      1.7899999999999991      46.539999999999999      34.009999999999998
    53   1      1.7899999999999991      48.330000000000005      32.219999999999999
    54   1      1.7899999999999991      46.539999999999999      37.590000000000003
    55   1      1.7899999999999991      48.330000000000005      35.800000000000004
    56   1      1.7899999999999991      46.539999999999999      41.169999999999995
    57   1      1.7899999999999991      48.330000000000005      39.380000000000003
    58   1      1.7899999999999991      46.539999999999999                   44.75
    59   1      1.7899999999999991      48.330000000000005      42.960000000000001
    60   1      1.7899999999999991      46.539999999999999      48.330000000000005
    61   1      1.7899999999999991      48.330000000000005      46.539999999999999
    62   1      5.3699999999999966      12.529999999999999                   14.32
    63   1      5.3699999999999966      12.529999999999999      17.900000000000002
    64   1      5.3699999999999966      12.529999999999999      21.480000000000004
    65   1      5.3699999999999966      12.529999999999999      25.059999999999999
    66   1      5.3699999999999966      12.529999999999999      28.640000000000001
    67   1      5.3699999999999966      12.529999999999999      32.219999999999999
    68   1      5.3699999999999966      12.529999999999999      35.800000000000004
    69   1      5.3699999999999966      12.529999999999999      39.380000000000003
    70   1      5.3699999999999966      12.529999999999999      42.960000000000001
    71   1      5.3699999999999966      12.529999999999999      46.539999999999999
    72   1      5.3699999999999966      12.529999999999999      50.119999999999997
    73   1      5.3699999999999966      12.529999999999999      53.700000000000003
    74   1      5.3699999999999966      12.529999999999999      57.280000000000001
    75   1      5.3699999999999966      12.529999999999999      60.859999999999999
    76   1      5.3699999999999966      12.529999999999999      64.439999999999998
    77   1      5.3699999999999966                   14.32      12.529999999999999
    78   1      5.3699999999999966                   14.32      16.109999999999999
    79   1      5.3699999999999966      16.109999999999999                   14.32
    80   1      5.3699999999999966                   14.32      19.690000000000001
    81   1      5.3699999999999966      16.109999999999999      17.900000000000002
    82   1      5.3699999999999966                   14.32                   23.27
    83   1      5.3699999999999966      16.109999999999999      21.480000000000004
    84   1      5.3699999999999966                   14.32      26.850000000000001
    85   1      5.3699999999999966      16.109999999999999      25.059999999999999
    86   1      5.3699999999999966                   14.32                   30.43
    87   1      5.3699999999999966      16.109999999999999      28.640000000000001
    88   1      5.3699999999999966                   14.32      34.009999999999998
    89   1      5.3699999999999966      16.109999999999999      32.219999999999999
    90   1      5.3699999999999966                   14.32      37.590000000000003
    91   1      5.3699999999999966      16.109999999999999      35.800000000000004
    92   1      5.3699999999999966                   14.32      41.169999999999995
    93   1      5.3699999999999966      16.109999999999999      39.380000000000003
    94   1      5.3699999999999966                   14.32                   44.75
    95   1      5.3699999999999966      16.109999999999999      42.960000000000001
    96   1      5.3699999999999966                   14.32      48.330000000000005
    97   1      5.3699999999999966      16.109999999999999      46.539999999999999
    98   1      5.3699999999999966                   14.32      51.910000000000004
    99   1      5.3699999999999966      16.109999999999999      50.119999999999997
   100   1      5.3699999999999966                   14.32      55.490000000000002
   101   1      5.3699999999999966      16.109999999999999      53.700000000000003
   102   1      5.3699999999999966                   14.32      59.069999999999993
   103   1      5.3699999999999966      16.109999999999999      57.280000000000001
   104   1      5.3699999999999966                   14.32      62.650000000000006
   105   1      5.3699999999999966      16.109999999999999      60.859999999999999
   106   1      5.3699999999999966                   14.32      66.230000000000004
   107   1      5.3699999999999966      16.109999999999999      64.439999999999998
   108   1      5.3699999999999966      17.900000000000002      12.529999999999999
   109   1      5.3699999999999966      17.900000000000002      16.109999999999999
   110   1      5.3699999999999966      19.690000000000001                   14.32
   111   1      5.3699999999999966      17.900000000000002      19.690000000000001
   112   1      5.3699999999999966      19.690000000000001      17.900000000000002
   113   1      5.3699999999999966      17.900000000000002                   23.27
   114   1      5.3699999999999966      19.690000000000001      21.480000000000004
   115   1      5.3699999999999966      17.900000000000002      26.850000000000001
   116   1      5.3699999999999966      19.690000000000001      25.059999999999999
   117   1      5.3699999999999966      17.900000000000002                   30.43
   118   1      5.3699999999999966      19.690000000000001      28.640000000000001
   119   1      5.3699999999999966      17.900000000000002      34.009999999999998
   120   1      5.3699999999999966      19.690000000000001      32.219999999999999
   121   1      5.3699999999999966      17.900000000000002      37.590000000000003
   122   1      5.3699999999999966      19.690000000000001      35.800000000000004
   123   1      5.3699999999999966      17.900000000000002      41.169999999999995
   124   1      5.3699999999999966      19.690000000000001      39.380000000000003
   125   1      5.3699999999999966      17.900000000000002                   44.75
   126   1      5.3699999999999966      19.690000000000001      42.960000000000001
   127   1      5.3699999999999966      17.900000000000002      48.330000000000005
   128   1      5.3699999999999966      19.690000000000001      46.539999999999999
   129   1      5.3699999999999966      17.900000000000002      51.910000000000004
   130   1      5.3699999999999966      19.690000000000001      50.119999999999997
   131   1      5.3699999999999966      17.900000000000002      55.490000000000002
   132   1      5.3699999999999966      19.690000000000001      53.700000000000003
   133   1      5.3699999999999966      17.900000000000002      59.069999999999993
   134   1      5.3699999999999966      19.690000000000001      57.280000000000001
   135   1      5.3699999999999966      17.900000000000002      62.650000000000006
   136   1      5.3699999999999966      19.690000000000001      60.859999999999999
   137   1      5.3699999999999966      17.900000000000002      66.230000000000004
   138   1      5.3699999999999966      19.690000000000001      64.439999999999998
   139   1      5.3699999999999966      21.480000000000004      12.529999999999999
   140   1      5.3699999999999966      21.480000000000004      16.109999999999999
   141   1      5.3699999999999966                   23.27                   14.32
   142   1      5.3699999999999966      21.480000000000004      19.690000000000001
   143   1      5.3699999999999966                   23.27      17.900000000000002
   144   1      3.5800000000000054      21.480000000000004      21.480000000000004
   145   1      3.5800000000000054                   23.27                   23.27
   146   1      5.3699999999999966      21.480000000000004                   23.27
   147   1      5.3699999999999966                   23.27      21.480000000000004
   148   1      3.5800000000000054      21.480000000000004      25.059999999999999
   149   1      3.5800000000000054                   23.27      26.850000000000001
   150   1      5.3699999999999966      21.480000000000004      26.850000000000001
   151   1      5.3699999999999966                   23.27      25.059999999999999
   152   1      3.5800000000000054      21.480000000000004      28.640000000000001
   153   1      3.5800000000000054                   23.27                   30.43
   154   1      5.3699999999999966      21.480000000000004                   30.43
   155   1      5.3699999999999966                   23.27      28.640000000000001
   156   1      3.5800000000000054      21.480000000000004      32.219999999999999
   157   1      3.5800000000000054                   23.27      34.009999999999998
   158   1      5.3699999999999966      21.480000000000004      34.009999999999998
   159   1      5.3699999999999966                   23.27      32.219999999999999
   160   1      3.5800000000000054      21.480000000000004      35.800000000000004
   161   1      3.5800000000000054                   23.27      37.590000000000003
   162   1      5.3699999999999966      21.480000000000004      37.590000000000003
   163   1      5.3699999999999966                   23.27      35.800000000000004
   164   1      3.5800000000000054      21.480000000000004      39.380000000000003
   165   1      3.5800000000000054                   23.27      41.169999999999995
   166   1      5.3699999999999966      21.480000000000004      41.169999999999995
   167   1      5.3699999999999966                   23.27      39.380000000000003
   168   1      3.5800000000000054      21.480000000000004      42.960000000000001
   169   1      3.5800000000000054                   23.27                   44.75
   170   1      5.3699999999999966      21.480000000000004                   44.75
   171   1      5.3699999999999966                   23.27      42.960000000000001
   172   1      3.5800000000000054      21.480000000000004      46.539999999999999
   173   1      3.5800000000000054                   23.27      48.330000000000005
   174   1      5.3699999999999966      21.480000000000004      48.330000000000005
   175   1      5.3699999999999966                   23.27      46.539999999999999
   176   1      3.5800000000000054      21.480000000000004      50.119999999999997
   177   1      3.5800000000000054                   23.27      51.910000000000004
   178   1      5.3699999999999966      21.480000000000004      51.910000000000004
   179   1      5.3699999999999966                   23.27      50.119999999999997
   180   1      3.5800000000000054      21.480000000000004      53.700000000000003
   181   1      3.5800000000000054                   23.27      55.490000000000002
   182   1      5.3699999999999966      21.480000000000004      55.490000000000002
   183   1      5.3699999999999966                   23.27      53.700000000000003
   184   1      3.5800000000000054      21.480000000000004      57.280000000000001
   185   1      5.3699999999999966      21.480000000000004      59.069999999999993
   186   1      5.3699999999999966                   23.27      57.280000000000001
   187   1      5.3699999999999966      21.480000000000004      62.650000000000006
   188   1      5.3699999999999966                   23.27      60.859999999999999
   189   1      5.3699999999999966      21.480000000000004      66.230000000000004
   190   1      5.3699999999999966                   23.27      64.439999999999998
   191   1      5.3699999999999966      25.059999999999999      12.529999999999999
   192   1      5.3699999999999966      25.059999999999999      16.109999999999999
   193   1      5.3699999999999966      26.850000000000001                   14.32
   194   1      5.3699999999999966      25.059999999999999      19.690000000000001
   195   1      5.3699999999999966      26.850000000000001      17.900000000000002
   196   1      3.5800000000000054      25.059999999999999      21.480000000000004
   197   1      3.5800000000000054      26.850000000000001                   23.27
   198   1      5.3699999999999966      25.059999999999999                   23.27
   199   1      5.3699999999999966      26.850000000000001      21.480000000000004
   200   1      3.5800000000000054      25.059999999999999      25.059999999999999
   201   1      3.5800000000000054      26.850000000000001      26.850000000000001
   202   1      5.3699999999999966      25.059999999999999      26.850000000000001
   203   1      5.3699999999999966      26.850000000000001      25.059999999999999
   204   1      3.5800000000000054      25.059999999999999      28.640000000000001
   205   1      3.5800000000000054      26.850000000000001                   30.43
   206   1      5.3699999999999966      25.059999999999999                   30.43
   207   1      5.3699999999999966      26.850000000000001      28.640000000000001
   208   1      3.5800000000000054      25.059999999999999      32.219999999999999
   209   1      3.5800000000000054      26.850000000000001      34.009999999999998
   210   1      5.3699999999999966      25.059999999999999      34.009999999999998
   211   1      5.3699999999999966      26.850000000000001      32.219999999999999
   212   1      3.5800000000000054      25.059999999999999      35.800000000000004
   213   1      3.5800000000000054      26.850000000000001      37.590000000000003
   214   1      5.3699999999999966      25.059999999999999      37.590000000000003
   215   1      5.3699999999999966      26.850000000000001      35.800000000000004
   216   1      3.5800000000000054      25.059999999999999      39.380000000000003
   217   1      3.5800000000000054      26.850000000000001      41.169999999999995
   218   1      5.3699999999999966      25.059999999999999      41.169999999999995
   219   1      5.3699999999999966      26.850000000000001      39.380000000000003
   220   1      3.5800000000000054      25.059999999999999      42.960000000000001
   221   1      3.5800000000000054      26.850000000000001                   44.75
   222   1      5.3699999999999966      25.059999999999999                   44.75
   223   1      5.3699999999999966      26.850000000000001      42.960000000000001
   224   1      3.5800000000000054      25.059999999999999      46.539999999999999
   225   1      3.5800000000000054      26.850000000000001      48.330000000000005
   226   1      5.3699999999999966      25.059999999999999      48.330000000000005
   227   1      5.3699999999999966      26.850000000000001      46.539999999999999
   228   1      3.5800000000000054      25.059999999999999      50.119999999999997
   229   1      3.5800000000000054      26.850000000000001      51.910000000000004
   230   1      5.3699999999999966      25.059999999999999      51.910000000000004
   231   1      5.3699999999999966      26.850000000000001      50.119999999999997
   232   1      3.5800000000000054      25.059999999999999      53.700000000000003
   233   1      3.5800000000000054      26.850000000000001      55.490000000000002
   234   1      5.3699999999999966      25.059999999999999      55.490000000000002
   235   1      5.3699999999999966      26.850000000000001      53.700000000000003
   236   1      3.5800000000000054      25.059999999999999      57.280000000000001
   237   1      5.3699999999999966      25.059999999999999      59.069999999999993
   238   1      5.3699999999999966      26.850000000000001      57.280000000000001
   239   1      5.3699999999999966      25.059999999999999      62.650000000000006
   240   1      5.3699999999999966      26.850000000000001      60.859999999999999
   241   1      5.3699999999999966      25.059999999999999      66.230000000000004
   242   1      5.3699999999999966      26.850000000000001      64.439999999999998
   243   1      5.3699999999999966      28.640000000000001      12.529999999999999
   244   1      5.3699999999999966      28.640000000000001      16.109999999999999
   245   1      5.3699999999999966                   30.43                   14.32
   246   1      5.3699999999999966      28.640000000000001      19.690000000000001
   247   1      5.3699999999999966                   30.43      17.900000000000002
   248   1      3.5800000000000054      28.640000000000001      21.480000000000004
   249   1      3.5800000000000054                   30.43                   23.27
   250   1      5.3699999999999966      28.640000000000001                   23.27
   251   1      5.3699999999999966                   30.43      21.480000000000004
   252   1      3.5800000000000054      28.640000000000001      25.059999999999999
   253   1      3.5800000000000054                   30.43      26.850000000000001
   254   1      5.3699999999999966      28.640000000000001      26.850000000000001
   255   1      5.3699999999999966                   30.43      25.059999999999999
   256   1      3.5800000000000054      28.640000000000001      28.640000000000001
   257   1      3.5800000000000054                   30.43                   30.43
   258   1      5.3699999999999966      28.640000000000001                   30.43
   259   1      5.3699999999999966                   30.43      28.640000000000001
   260   1      3.5800000000000054      28.640000000000001      32.219999999999999
   261   1      3.5800000000000054                   30.43      34.009999999999998
   262   1      5.3699999999999966      28.640000000000001      34.009999999999998
   263   1      5.3699999999999966                   30.43      32.219999999999999
   264   1      3.5800000000000054      28.640000000000001      35.800000000000004
   265   1      3.5800000000000054                   30.43      37.590000000000003
   266   1      5.3699999999999966      28.640000000000001      37.590000000000003
   267   1      5.3699999999999966                   30.43      35.800000000000004
   268   1      3.5800000000000054      28.640000000000001      39.380000000000003
   269   1      3.5800000000000054                   30.43      41.169999999999995
   270   1      5.3699999999999966      28.640000000000001      41.169999999999995
   271   1      5.3699999999999966                   30.43      39.380000000000003
   272   1      3.5800000000000054      28.640000000000001      42.960000000000001
   273   1      3.5800000000000054                   30.43                   44.75
   274   1      5.3699999999999966      28.640000000000001                   44.75
   275   1      5.3699999999999966                   30.43      42.960000000000001
   276   1      3.5800000000000054      28.640000000000001      46.539999999999999
   277   1      3.5800000000000054                   30.43      48.330000000000005
   278   1      5.3699999999999966      28.640000000000001      48.330000000000005
   279   1      5.3699999999999966                   30.43      46.539999999999999
   280   1      3.5800000000000054      28.640000000000001      50.119999999999997
   281   1      3.5800000000000054                   30.43      51.910000000000004
   282   1      5.3699999999999966      28.640000000000001      51.910000000000004
   283   1      5.3699999999999966                   30.43      50.119999999999997
   284   1      3.5800000000000054      28.640000000000001      53.700000000000003
   285   1      3.5800000000000054                   30.43      55.490000000000002
   286   1      5.3699999999999966      28.640000000000001      55.490000000000002
   287   1      5.3699999999999966                   30.43      53.700000000000003
   288   1      3.5800000000000054      28.640000000000001      57.280000000000001
   289   1      5.3699999999999966      28.640000000000001      59.069999999999993
   290   1      5.3699999999999966                   30.43      57.280000000000001
   291   1      5.3699999999999966      28.640000000000001      62.650000000000006
   292   1      5.3699999999999966                   30.43      60.859999999999999
   293   1      5.3699999999999966      28.640000000000001      66.230000000000004
   294   1      5.3699999999999966                   30.43      64.439999999999998
   295   1      5.3699999999999966      32.219999999999999      12.529999999999999
   296   1      5.3699999999999966      32.219999999999999      16.109999999999999
   297   1      5.3699999999999966      34.009999999999998                   14.32
   298   1      5.3699999999999966      32.219999999999999      19.690000000000001
   299   1      5.3699999999999966      34.009999999999998      17.900000000000002
   300   1      3.5800000000000054      32.219999999999999      21.480000000000004
   301   1      3.5800000000000054      34.009999999999998                   23.27
   302   1      5.3699999999999966      32.219999999999999                   23.27
   303   1      5.3699999999999966      34.009999999999998      21.480000000000004
   304   1      3.5800000000000054      32.219999999999999      25.059999999999999
   305   1      3.5800000000000054      34.009999999999998      26.850000000000001
   306   1      5.3699999999999966      32.219999999999999      26.850000000000001
   307   1      5.3699999999999966      34.009999999999998      25.059999999999999
   308   1      3.5800000000000054      32.219999999999999      28.640000000000001
   309   1      3.5800000000000054      34.009999999999998                   30.43
   310   1      5.3699999999999966      32.219999999999999                   30.43
   311   1      5.3699999999999966      34.009999999999998      28.640000000000001
   312   1      3.5800000000000054      32.219999999999999      32.219999999999999
   313   1      3.5800000000000054      34.009999999999998      34.009999999999998
   314   1      5.3699999999999966      32.219999999999999      34.009999999999998
   315   1      5.3699999999999966      34.009999999999998      32.219999999999999
   316   1      3.5800000000000054      32.219999999999999      35.800000000000004
   317   1      3.5800000000000054      34.009999999999998      37.590000000000003
   318   1      5.3699999999999966      32.219999999999999      37.590000000000003
   319   1      5.3699999999999966      34.009999999999998      35.800000000000004
   320   1      3.5800000000000054      32.219999999999999      39.380000000000003
   321   1      3.5800000000000054      34.009999999999998      41.169999999999995
   322   1      5.3699999999999966      32.219999999999999      41.169999999999995
   323   1      5.3699999999999966      34.009999999999998      39.380000000000003
   324   1      3.5800000000000054      32.219999999999999      42.960000000000001
   325   1      3.5800000000000054      34.009999999999998                   44.75
   326   1      5.3699999999999966      32.219999999999999                   44.75
   327   1      5.3699999999999966      34.009999999999998      42.960000000000001
   328   1      3.5800000000000054      32.219999999999999      46.539999999999999
   329   1      3.5800000000000054      34.009999999999998      48.330000000000005
   330   1      5.3699999999999966      32.219999999999999      48.330000000000005
   331   1      5.3699999999999966      34.009999999999998      46.539999999999999
   332   1      3.5800000000000054      32.219999999999999      50.119999999999997
   333   1      3.5800000000000054      34.009999999999998      51.910000000000004
   334   1      5.3699999999999966      32.219999999999999      51.910000000000004
   335   1      5.3699999999999966      34.009999999999998      50.119999999999997
   336   1      3.5800000000000054      32.219999999999999      53.700000000000003
   337   1      3.5800000000000054      34.009999999999998      55.490000000000002
   338   1      5.3699999999999966      32.219999999999999      55.490000000000002
   339   1      5.3699999999999966      34.009999999999998      53.700000000000003
   340   1      3.5800000000000054      32.219999999999999      57.280000000000001
   341   1      5.3699999999999966      32.219999999999999      59.069999999999993
   342   1      5.3699999999999966      34.009999999999998      57.280000000000001
   343   1      5.3699999999999966      32.219999999999999      62.650000000000006
   344   1      5.3699999999999966      34.009999999999998      60.859999999999999
   345   1      5.3699999999999966      32.219999999999999      66.230000000000004
   346   1      5.3699999999999966      34.009999999999998      64.439999999999998
   347   1      5.3699999999999966      35.800000000000004      12.529999999999999
   348   1      5.3699999999999966      35.800000000000004      16.109999999999999
   349   1      5.3699999999999966      37.590000000000003                   14.32
   350   1      5.3699999999999966      35.800000000000004      19.690000000000001
   351   1      5.3699999999999966      37.590000000000003      17.900000000000002
   352   1      3.5800000000000054      35.800000000000004      21.480000000000004
   353   1      3.5800000000000054      37.590000000000003                   23.27
   354   1      5.3699999999999966      35.800000000000004                   23.27
   355   1      5.3699999999999966      37.590000000000003      21.480000000000004
   356   1      3.5800000000000054      35.800000000000004      25.059999999999999
   357   1      3.5800000000000054      37.590000000000003      26.850000000000001
   358   1      5.3699999999999966      35.800000000000004      26.850000000000001