model_files/Fe/Fe_30000/Fe_210/data.Fe_210_fcc_29905 (written by ASE) 

29905 	 atoms 
1  atom types
0.0                      93  xlo xhi
0.0                      93  ylo yhi
0.0                      93  zlo zhi


Atoms 

     1   1      1.4350000000000096      44.485000000000014      44.485000000000014
     2   1      1.4350000000000096      44.485000000000014      47.355000000000004
     3   1      1.4350000000000096      47.355000000000004      44.485000000000014
     4   1  7.1054273576010019e-15      45.920000000000009      45.920000000000009
     5   1      1.4350000000000096      47.355000000000004      47.355000000000004
     6   1      4.3050000000000068      38.745000000000005      38.745000000000005
     7   1      4.3050000000000068      38.745000000000005      41.615000000000016
     8   1      4.3050000000000068      38.745000000000005      44.485000000000014
     9   1      4.3050000000000068      38.745000000000005      47.355000000000004
    10   1      4.3050000000000068      38.745000000000005      50.225000000000009
    11   1      4.3050000000000068      38.745000000000005      53.095000000000013
    12   1      4.3050000000000068      41.615000000000016      38.745000000000005
    13   1      2.8700000000000121      40.180000000000014      40.180000000000014
    14   1      4.3050000000000068      41.615000000000016      41.615000000000016
    15   1      2.8700000000000121      40.180000000000014      43.050000000000011
    16   1      4.3050000000000068      41.615000000000016      44.485000000000014
    17   1      2.8700000000000121      40.180000000000014      45.920000000000009
    18   1      4.3050000000000068      41.615000000000016      47.355000000000004
    19   1      2.8700000000000121      40.180000000000014      48.790000000000013
    20   1      4.3050000000000068      41.615000000000016      50.225000000000009
    21   1      2.8700000000000121      40.180000000000014      51.660000000000004
    22   1      4.3050000000000068      41.615000000000016      53.095000000000013
    23   1      4.3050000000000068      44.485000000000014      38.745000000000005
    24   1      2.8700000000000121      43.050000000000011      40.180000000000014
    25   1      4.3050000000000068      44.485000000000014      41.615000000000016
    26   1      2.8700000000000121      43.050000000000011      43.050000000000011
    27   1      4.3050000000000068      44.485000000000014      44.485000000000014
    28   1      2.8700000000000121      43.050000000000011      45.920000000000009
    29   1      4.3050000000000068      44.485000000000014      47.355000000000004
    30   1      2.8700000000000121      43.050000000000011      48.790000000000013
    31   1      4.3050000000000068      44.485000000000014      50.225000000000009
    32   1      2.8700000000000121      43.050000000000011      51.660000000000004
    33   1      4.3050000000000068      44.485000000000014      53.095000000000013
    34   1      4.3050000000000068      47.355000000000004      38.745000000000005
    35   1      2.8700000000000121      45.920000000000009      40.180000000000014
    36   1      4.3050000000000068      47.355000000000004      41.615000000000016
    37   1      2.8700000000000121      45.920000000000009      43.050000000000011
    38   1      4.3050000000000068      47.355000000000004      44.485000000000014
    39   1      2.8700000000000121      45.920000000000009      45.920000000000009
    40   1      4.3050000000000068      47.355000000000004      47.355000000000004
    41   1      2.8700000000000121      45.920000000000009      48.790000000000013
    42   1      4.3050000000000068      47.355000000000004      50.225000000000009
    43   1      2.8700000000000121      45.920000000000009      51.660000000000004
    44   1      4.3050000000000068      47.355000000000004      53.095000000000013
    45   1      4.3050000000000068      50.225000000000009      38.745000000000005
    46   1      2.8700000000000121      48.790000000000013      40.180000000000014
    47   1      4.3050000000000068      50.225000000000009      41.615000000000016
    48   1      2.8700000000000121      48.790000000000013      43.050000000000011
    49   1      4.3050000000000068      50.225000000000009      44.485000000000014
    50   1      2.8700000000000121      48.790000000000013      45.920000000000009
    51   1      4.3050000000000068      50.225000000000009      47.355000000000004
    52   1      2.8700000000000121      48.790000000000013      48.790000000000013
    53   1      4.3050000000000068      50.225000000000009      50.225000000000009
    54   1      2.8700000000000121      48.790000000000013      51.660000000000004
    55   1      4.3050000000000068      50.225000000000009      53.095000000000013
    56   1      4.3050000000000068      53.095000000000013      38.745000000000005
    57   1      2.8700000000000121      51.660000000000004      40.180000000000014
    58   1      4.3050000000000068      53.095000000000013      41.615000000000016
    59   1      2.8700000000000121      51.660000000000004      43.050000000000011
    60   1      4.3050000000000068      53.095000000000013      44.485000000000014
    61   1      2.8700000000000121      51.660000000000004      45.920000000000009
    62   1      4.3050000000000068      53.095000000000013      47.355000000000004
    63   1      2.8700000000000121      51.660000000000004      48.790000000000013
    64   1      4.3050000000000068      53.095000000000013      50.225000000000009
    65   1      2.8700000000000121      51.660000000000004      51.660000000000004
    66   1      4.3050000000000068      53.095000000000013      53.095000000000013
    67   1      7.1750000000000114       33.00500000000001       33.00500000000001
    68   1      7.1750000000000114       33.00500000000001      35.875000000000007
    69   1      7.1750000000000114       33.00500000000001      38.745000000000005
    70   1      7.1750000000000114       33.00500000000001      41.615000000000016
    71   1      7.1750000000000114       33.00500000000001      44.485000000000014
    72   1      7.1750000000000114       33.00500000000001      47.355000000000004
    73   1      7.1750000000000114       33.00500000000001      50.225000000000009
    74   1      7.1750000000000114       33.00500000000001      53.095000000000013
    75   1      7.1750000000000114       33.00500000000001      55.965000000000003
    76   1      7.1750000000000114       33.00500000000001      58.835000000000015
    77   1      7.1750000000000114      35.875000000000007       33.00500000000001
    78   1        5.74000000000001      34.440000000000012      34.440000000000012
    79   1      7.1750000000000114      35.875000000000007      35.875000000000007
    80   1        5.74000000000001      34.440000000000012      37.310000000000002
    81   1      7.1750000000000114      35.875000000000007      38.745000000000005
    82   1        5.74000000000001      34.440000000000012      40.180000000000014
    83   1      7.1750000000000114      35.875000000000007      41.615000000000016
    84   1        5.74000000000001      34.440000000000012      43.050000000000011
    85   1      7.1750000000000114      35.875000000000007      44.485000000000014
    86   1        5.74000000000001      34.440000000000012      45.920000000000009
    87   1      7.1750000000000114      35.875000000000007      47.355000000000004
    88   1        5.74000000000001      34.440000000000012      48.790000000000013
    89   1      7.1750000000000114      35.875000000000007      50.225000000000009
    90   1        5.74000000000001      34.440000000000012      51.660000000000004
    91   1      7.1750000000000114      35.875000000000007      53.095000000000013
    92   1        5.74000000000001      34.440000000000012      54.530000000000008
    93   1      7.1750000000000114      35.875000000000007      55.965000000000003
    94   1        5.74000000000001      34.440000000000012      57.400000000000006
    95   1      7.1750000000000114      35.875000000000007      58.835000000000015
    96   1      7.1750000000000114      38.745000000000005       33.00500000000001
    97   1        5.74000000000001      37.310000000000002      34.440000000000012
    98   1      7.1750000000000114      38.745000000000005      35.875000000000007
    99   1        5.74000000000001      37.310000000000002      37.310000000000002
   100   1      7.1750000000000114      38.745000000000005      38.745000000000005
   101   1        5.74000000000001      37.310000000000002      40.180000000000014
   102   1      7.1750000000000114      38.745000000000005      41.615000000000016
   103   1        5.74000000000001      37.310000000000002      43.050000000000011
   104   1      7.1750000000000114      38.745000000000005      44.485000000000014
   105   1        5.74000000000001      37.310000000000002      45.920000000000009
   106   1      7.1750000000000114      38.745000000000005      47.355000000000004
   107   1        5.74000000000001      37.310000000000002      48.790000000000013
   108   1      7.1750000000000114      38.745000000000005      50.225000000000009
   109   1        5.74000000000001      37.310000000000002      51.660000000000004
   110   1      7.1750000000000114      38.745000000000005      53.095000000000013
   111   1        5.74000000000001      37.310000000000002      54.530000000000008
   112   1      7.1750000000000114      38.745000000000005      55.965000000000003
   113   1        5.74000000000001      37.310000000000002      57.400000000000006
   114   1      7.1750000000000114      38.745000000000005      58.835000000000015
   115   1      7.1750000000000114      41.615000000000016       33.00500000000001
   116   1        5.74000000000001      40.180000000000014      34.440000000000012
   117   1      7.1750000000000114      41.615000000000016      35.875000000000007
   118   1        5.74000000000001      40.180000000000014      37.310000000000002
   119   1      7.1750000000000114      41.615000000000016      38.745000000000005
   120   1        5.74000000000001      40.180000000000014      40.180000000000014
   121   1      7.1750000000000114      41.615000000000016      41.615000000000016
   122   1        5.74000000000001      40.180000000000014      43.050000000000011
   123   1      7.1750000000000114      41.615000000000016      44.485000000000014
   124   1        5.74000000000001      40.180000000000014      45.920000000000009
   125   1      7.1750000000000114      41.615000000000016      47.355000000000004
   126   1        5.74000000000001      40.180000000000014      48.790000000000013
   127   1      7.1750000000000114      41.615000000000016      50.225000000000009
   128   1        5.74000000000001      40.180000000000014      51.660000000000004
   129   1      7.1750000000000114      41.615000000000016      53.095000000000013
   130   1        5.74000000000001      40.180000000000014      54.530000000000008
   131   1      7.1750000000000114      41.615000000000016      55.965000000000003
   132   1        5.74000000000001      40.180000000000014      57.400000000000006
   133   1      7.1750000000000114      41.615000000000016      58.835000000000015
   134   1      7.1750000000000114      44.485000000000014       33.00500000000001
   135   1        5.74000000000001      43.050000000000011      34.440000000000012
   136   1      7.1750000000000114      44.485000000000014      35.875000000000007
   137   1        5.74000000000001      43.050000000000011      37.310000000000002
   138   1      7.1750000000000114      44.485000000000014      38.745000000000005
   139   1        5.74000000000001      43.050000000000011      40.180000000000014
   140   1      7.1750000000000114      44.485000000000014      41.615000000000016
   141   1        5.74000000000001      43.050000000000011      43.050000000000011
   142   1      7.1750000000000114      44.485000000000014      44.485000000000014
   143   1        5.74000000000001      43.050000000000011      45.920000000000009
   144   1      7.1750000000000114      44.485000000000014      47.355000000000004
   145   1        5.74000000000001      43.050000000000011      48.790000000000013
   146   1      7.1750000000000114      44.485000000000014      50.225000000000009
   147   1        5.74000000000001      43.050000000000011      51.660000000000004
   148   1      7.1750000000000114      44.485000000000014      53.095000000000013
   149   1        5.74000000000001      43.050000000000011      54.530000000000008
   150   1      7.1750000000000114      44.485000000000014      55.965000000000003
   151   1        5.74000000000001      43.050000000000011      57.400000000000006
   152   1      7.1750000000000114      44.485000000000014      58.835000000000015
   153   1      7.1750000000000114      47.355000000000004       33.00500000000001
   154   1        5.74000000000001      45.920000000000009      34.440000000000012
   155   1      7.1750000000000114      47.355000000000004      35.875000000000007
   156   1        5.74000000000001      45.920000000000009      37.310000000000002
   157   1      7.1750000000000114      47.355000000000004      38.745000000000005
   158   1        5.74000000000001      45.920000000000009      40.180000000000014
   159   1      7.1750000000000114      47.355000000000004      41.615000000000016
   160   1        5.74000000000001      45.920000000000009      43.050000000000011
   161   1      7.1750000000000114      47.355000000000004      44.485000000000014
   162   1        5.74000000000001      45.920000000000009      45.920000000000009
   163   1      7.1750000000000114      47.355000000000004      47.355000000000004
   164   1        5.74000000000001      45.920000000000009      48.790000000000013
   165   1      7.1750000000000114      47.355000000000004      50.225000000000009
   166   1        5.74000000000001      45.920000000000009      51.660000000000004
   167   1      7.1750000000000114      47.355000000000004      53.095000000000013
   168   1        5.74000000000001      45.920000000000009      54.530000000000008
   169   1      7.1750000000000114      47.355000000000004      55.965000000000003
   170   1        5.74000000000001      45.920000000000009      57.400000000000006
   171   1      7.1750000000000114      47.355000000000004      58.835000000000015
   172   1      7.1750000000000114      50.225000000000009       33.00500000000001
   173   1        5.74000000000001      48.790000000000013      34.440000000000012
   174   1      7.1750000000000114      50.225000000000009      35.875000000000007
   175   1        5.74000000000001      48.790000000000013      37.310000000000002
   176   1      7.1750000000000114      50.225000000000009      38.745000000000005
   177   1        5.74000000000001      48.790000000000013      40.180000000000014
   178   1      7.1750000000000114      50.225000000000009      41.615000000000016
   179   1        5.74000000000001      48.790000000000013      43.050000000000011
   180   1      7.1750000000000114      50.225000000000009      44.485000000000014
   181   1        5.74000000000001      48.790000000000013      45.920000000000009
   182   1      7.1750000000000114      50.225000000000009      47.355000000000004
   183   1        5.74000000000001      48.790000000000013      48.790000000000013
   184   1      7.1750000000000114      50.225000000000009      50.225000000000009
   185   1        5.74000000000001      48.790000000000013      51.660000000000004
   186   1      7.1750000000000114      50.225000000000009      53.095000000000013
   187   1        5.74000000000001      48.790000000000013      54.530000000000008
   188   1      7.1750000000000114      50.225000000000009      55.965000000000003
   189   1        5.74000000000001      48.790000000000013      57.400000000000006
   190   1      7.1750000000000114      50.225000000000009      58.835000000000015
   191   1      7.1750000000000114      53.095000000000013       33.00500000000001
   192   1        5.74000000000001      51.660000000000004      34.440000000000012
   193   1      7.1750000000000114      53.095000000000013      35.875000000000007
   194   1        5.74000000000001      51.660000000000004      37.310000000000002
   195   1      7.1750000000000114      53.095000000000013      38.745000000000005
   196   1        5.74000000000001      51.660000000000004      40.180000000000014
   197   1      7.1750000000000114      53.095000000000013      41.615000000000016
   198   1        5.74000000000001      51.660000000000004      43.050000000000011
   199   1      7.1750000000000114      53.095000000000013      44.485000000000014
   200   1        5.74000000000001      51.660000000000004      45.920000000000009
   201   1      7.1750000000000114      53.095000000000013      47.355000000000004
   202   1        5.74000000000001      51.660000000000004      48.790000000000013
   203   1      7.1750000000000114      53.095000000000013      50.225000000000009
   204   1        5.74000000000001      51.660000000000004      51.660000000000004
   205   1      7.1750000000000114      53.095000000000013      53.095000000000013
   206   1        5.74000000000001      51.660000000000004      54.530000000000008
   207   1      7.1750000000000114      53.095000000000013      55.965000000000003
   208   1        5.74000000000001      51.660000000000004      57.400000000000006
   209   1      7.1750000000000114      53.095000000000013      58.835000000000015
   210   1      7.1750000000000114      55.965000000000003       33.00500000000001
   211   1        5.74000000000001      54.530000000000008      34.440000000000012
   212   1      7.1750000000000114      55.965000000000003      35.875000000000007
   213   1        5.74000000000001      54.530000000000008      37.310000000000002
   214   1      7.1750000000000114      55.965000000000003      38.745000000000005
   215   1        5.74000000000001      54.530000000000008      40.180000000000014
   216   1      7.1750000000000114      55.965000000000003      41.615000000000016
   217   1        5.74000000000001      54.530000000000008      43.050000000000011
   218   1      7.1750000000000114      55.965000000000003      44.485000000000014
   219   1        5.74000000000001      54.530000000000008      45.920000000000009
   220   1      7.1750000000000114      55.965000000000003      47.355000000000004
   221   1        5.74000000000001      54.530000000000008      48.790000000000013
   222   1      7.1750000000000114      55.965000000000003      50.225000000000009
   223   1        5.74000000000001      54.530000000000008      51.660000000000004
   224   1      7.1750000000000114      55.965000000000003      53.095000000000013
   225   1        5.74000000000001      54.530000000000008      54.530000000000008
   226   1      7.1750000000000114      55.965000000000003      55.965000000000003
   227   1        5.74000000000001      54.530000000000008      57.400000000000006
   228   1      7.1750000000000114      55.965000000000003      58.835000000000015
   229   1      7.1750000000000114      58.835000000000015       33.00500000000001
   230   1        5.74000000000001      57.400000000000006      34.440000000000012
   231   1      7.1750000000000114      58.835000000000015      35.875000000000007
   232   1        5.74000000000001      57.400000000000006      37.310000000000002
   233   1      7.1750000000000114      58.835000000000015      38.745000000000005
   234   1        5.74000000000001      57.400000000000006      40.180000000000014
   235   1      7.1750000000000114      58.835000000000015      41.615000000000016
   236   1        5.74000000000001      57.400000000000006      43.050000000000011
   237   1      7.1750000000000114      58.835000000000015      44.485000000000014
   238   1        5.74000000000001      57.400000000000006      45.920000000000009
   239   1      7.1750000000000114      58.835000000000015      47.355000000000004
   240   1        5.74000000000001      57.400000000000006      48.790000000000013
   241   1      7.1750000000000114      58.835000000000015      50.225000000000009
   242   1        5.74000000000001      57.400000000000006      51.660000000000004
   243   1      7.1750000000000114      58.835000000000015      53.095000000000013
   244   1        5.74000000000001      57.400000000000006      54.530000000000008
   245   1      7.1750000000000114      58.835000000000015      55.965000000000003
   246   1        5.74000000000001      57.400000000000006      57.400000000000006
   247   1      7.1750000000000114      58.835000000000015      58.835000000000015
   248   1      10.045000000000009      27.265000000000008      27.265000000000008
   249   1      10.045000000000009      27.265000000000008      30.135000000000005
   250   1      10.045000000000009      27.265000000000008       33.00500000000001
   251   1      10.045000000000009      27.265000000000008      35.875000000000007
   252   1      10.045000000000009      27.265000000000008      38.745000000000005
   253   1      10.045000000000009      27.265000000000008      41.615000000000016
   254   1      10.045000000000009      27.265000000000008      44.485000000000014
   255   1      10.045000000000009      27.265000000000008      47.355000000000004
   256   1      10.045000000000009      27.265000000000008      50.225000000000009
   257   1      10.045000000000009      27.265000000000008      53.095000000000013
   258   1      10.045000000000009      27.265000000000008      55.965000000000003
   259   1      10.045000000000009      27.265000000000008      58.835000000000015
   260   1      10.045000000000009      27.265000000000008      61.705000000000005
   261   1      10.045000000000009      27.265000000000008      64.575000000000003
   262   1      10.045000000000009      30.135000000000005      27.265000000000008
   263   1      8.6100000000000065       28.70000000000001       28.70000000000001
   264   1      10.045000000000009      30.135000000000005      30.135000000000005
   265   1      8.6100000000000065       28.70000000000001      31.570000000000011
   266   1      10.045000000000009      30.135000000000005       33.00500000000001
   267   1      8.6100000000000065       28.70000000000001      34.440000000000012
   268   1      10.045000000000009      30.135000000000005      35.875000000000007
   269   1      8.6100000000000065       28.70000000000001      37.310000000000002
   270   1      10.045000000000009      30.135000000000005      38.745000000000005
   271   1      8.6100000000000065       28.70000000000001      40.180000000000014
   272   1      10.045000000000009      30.135000000000005      41.615000000000016
   273   1      8.6100000000000065       28.70000000000001      43.050000000000011
   274   1      10.045000000000009      30.135000000000005      44.485000000000014
   275   1      8.6100000000000065       28.70000000000001      45.920000000000009
   276   1      10.045000000000009      30.135000000000005      47.355000000000004
   277   1      8.6100000000000065       28.70000000000001      48.790000000000013
   278   1      10.045000000000009      30.135000000000005      50.225000000000009
   279   1      8.6100000000000065       28.70000000000001      51.660000000000004
   280   1      10.045000000000009      30.135000000000005      53.095000000000013
   281   1      8.6100000000000065       28.70000000000001      54.530000000000008
   282   1      10.045000000000009      30.135000000000005      55.965000000000003
   283   1      8.6100000000000065       28.70000000000001      57.400000000000006
   284   1      10.045000000000009      30.135000000000005      58.835000000000015
   285   1      8.6100000000000065       28.70000000000001       60.27000000000001
   286   1      10.045000000000009      30.135000000000005      61.705000000000005
   287   1      8.6100000000000065       28.70000000000001      63.140000000000001
   288   1      10.045000000000009      30.135000000000005      64.575000000000003
   289   1      10.045000000000009       33.00500000000001      27.265000000000008
   290   1      8.6100000000000065      31.570000000000011       28.70000000000001
   291   1      10.045000000000009       33.00500000000001      30.135000000000005
   292   1      8.6100000000000065      31.570000000000011      31.570000000000011
   293   1      10.045000000000009       33.00500000000001       33.00500000000001
   294   1      8.6100000000000065      31.570000000000011      34.440000000000012
   295   1      10.045000000000009       33.00500000000001      35.875000000000007
   296   1      8.6100000000000065      31.570000000000011      37.310000000000002
   297   1      10.045000000000009       33.00500000000001      38.745000000000005
   298   1      8.6100000000000065      31.570000000000011      40.180000000000014
   299   1      10.045000000000009       33.00500000000001      41.615000000000016
   300   1      8.6100000000000065      31.570000000000011      43.050000000000011
   301   1      10.045000000000009       33.00500000000001      44.485000000000014
   302   1      8.6100000000000065      31.570000000000011      45.920000000000009
   303   1      10.045000000000009       33.00500000000001      47.355000000000004
   304   1      8.6100000000000065      31.570000000000011      48.790000000000013
   305   1      10.045000000000009       33.00500000000001      50.225000000000009
   306   1      8.6100000000000065      31.570000000000011      51.660000000000004
   307   1      10.045000000000009       33.00500000000001      53.095000000000013
   308   1      8.6100000000000065      31.570000000000011      54.530000000000008
   309   1      10.045000000000009       33.00500000000001      55.965000000000003
   310   1      8.6100000000000065      31.570000000000011      57.400000000000006
   311   1      10.045000000000009       33.00500000000001      58.835000000000015
   312   1      8.6100000000000065      31.570000000000011       60.27000000000001
   313   1      10.045000000000009       33.00500000000001      61.705000000000005
   314   1      8.6100000000000065      31.570000000000011      63.140000000000001
   315   1      10.045000000000009       33.00500000000001      64.575000000000003
   316   1      10.045000000000009      35.875000000000007      27.265000000000008
   317   1      8.6100000000000065      34.440000000000012       28.70000000000001
   318   1      10.045000000000009      35.875000000000007      30.135000000000005
   319   1      8.6100000000000065      34.440000000000012      31.570000000000011
   320   1      10.045000000000009      35.875000000000007       33.00500000000001
   321   1      8.6100000000000065      34.440000000000012      34.440000000000012
   322   1      10.045000000000009      35.875000000000007      35.875000000000007
   323   1      8.6100000000000065      34.440000000000012      37.310000000000002
   324   1      10.045000000000009      35.875000000000007      38.745000000000005
   325   1      8.6100000000000065      34.440000000000012      40.180000000000014
   326   1      10.045000000000009      35.875000000000007      41.615000000000016
   327   1      8.6100000000000065      34.440000000000012      43.050000000000011
   328   1      10.045000000000009      35.875000000000007      44.485000000000014
   329   1      8.6100000000000065      34.440000000000012      45.920000000000009
   330   1      10.045000000000009      35.875000000000007      47.355000000000004
   331   1      8.6100000000000065      34.440000000000012      48.790000000000013
   332   1      10.045000000000009      35.875000000000007      50.225000000000009
   333   1      8.6100000000000065      34.440000000000012      51.660000000000004
   334   1      10.045000000000009      35.875000000000007      53.095000000000013
   335   1      8.6100000000000065      34.440000000000012      54.530000000000008
   336   1      10.045000000000009      35.875000000000007      55.965000000000003
   337   1      8.6100000000000065      34.440000000000012      57.400000000000006
   338   1      10.045000000000009      35.875000000000007      58.835000000000015
   339   1      8.6100000000000065      34.440000000000012       60.27000000000001
   340   1      10.045000000000009      35.875000000000007      61.705000000000005
   341   1      8.6100000000000065      34.440000000000012      63.140000000000001
   342   1      10.045000000000009      35.875000000000007      64.575000000000003
   343   1      10.045000000000009      38.745000000000005      27.265000000000008
   344   1      8.6100000000000065      37.310000000000002       28.70000000000001
   345   1      10.045000000000009      38.745000000000005      30.135000000000005
   346   1      8.6100000000000065      37.310000000000002      31.570000000000011
   347   1      10.045000000000009      38.745000000000005       33.00500000000001
   348   1      8.6100000000000065      37.310000000000002      34.440000000000012
   349   1      10.045000000000009      38.745000000000005      35.875000000000007
   350   1      8.6100000000000065      37.310000000000002      37.310000000000002
   351   1      10.045000000000009      38.745000000000005      38.745000000000005
   352   1      8.6100000000000065      37.310000000000002      40.180000000000014
   353   1      10.045000000000009      38.745000000000005      41.615000000000016
   354   1      8.6100000000000065      37.310000000000002      43.050000000000011
   355   1      10.045000000000009      38.745000000000005      44.485000000000014
   356   1      8.6100000000000065      37.310000000000002      45.920000000000009
   357   1      10.045000000000009      38.745000000000005      47.355000000000004
   358   1      8.6100000000000065      37.310000000000002      48.790000000000013