model_files/PtCo/PtCo_30000/PtCo_511/PtCo_511_fcc_30527_temp.data (written by ASE) 

30527 	 atoms 
2  atom types
0.0                      85  xlo xhi
0.0                      85  ylo yhi
0.0                      85  zlo zhi


Atoms 

     1   1  1.4210854715202004e-14      40.150000000000013      41.975000000000009
     2   1  1.4210854715202004e-14      41.975000000000009      40.150000000000013
     3   1  1.4210854715202004e-14      41.975000000000009      43.800000000000004
     4   1  1.4210854715202004e-14      43.800000000000004      41.975000000000009
     5   1      3.6500000000000128      21.900000000000009      41.975000000000009
     6   1      3.6500000000000128      23.725000000000016      40.150000000000013
     7   1      3.6500000000000128      25.550000000000011       38.32500000000001
     8   1      3.6500000000000128      23.725000000000016      43.800000000000004
     9   1      3.6500000000000128      25.550000000000011      41.975000000000009
    10   1      3.6500000000000128      25.550000000000011      45.625000000000007
    11   1      3.6500000000000128      27.375000000000011      36.500000000000014
    12   1      3.6500000000000128      29.200000000000006      34.675000000000011
    13   1      3.6500000000000128      27.375000000000011      40.150000000000013
    14   1      3.6500000000000128      29.200000000000006       38.32500000000001
    15   1      3.6500000000000128      27.375000000000011      43.800000000000004
    16   1      3.6500000000000128      29.200000000000006      41.975000000000009
    17   1      3.6500000000000128      27.375000000000011       47.45000000000001
    18   1      3.6500000000000128      29.200000000000006      45.625000000000007
    19   1      3.6500000000000128      29.200000000000006      49.275000000000013
    20   1      3.6500000000000128      31.025000000000013      32.850000000000016
    21   1      3.6500000000000128      32.850000000000016      31.025000000000013
    22   1      3.6500000000000128      31.025000000000013      36.500000000000014
    23   1      3.6500000000000128      32.850000000000016      34.675000000000011
    24   1      1.8250000000000099      32.850000000000016      40.150000000000013
    25   1      3.6500000000000128      31.025000000000013      40.150000000000013
    26   1      3.6500000000000128      32.850000000000016       38.32500000000001
    27   1      1.8250000000000099      31.025000000000013      41.975000000000009
    28   1      1.8250000000000099      32.850000000000016      43.800000000000004
    29   1      3.6500000000000128      31.025000000000013      43.800000000000004
    30   1      3.6500000000000128      32.850000000000016      41.975000000000009
    31   1      3.6500000000000128      31.025000000000013       47.45000000000001
    32   1      3.6500000000000128      32.850000000000016      45.625000000000007
    33   1      3.6500000000000128      31.025000000000013      51.100000000000009
    34   1      3.6500000000000128      32.850000000000016      49.275000000000013
    35   1      3.6500000000000128      32.850000000000016      52.925000000000011
    36   1      3.6500000000000128      34.675000000000011      29.200000000000006
    37   1      3.6500000000000128      36.500000000000014      27.375000000000011
    38   1      3.6500000000000128      34.675000000000011      32.850000000000016
    39   1      3.6500000000000128      36.500000000000014      31.025000000000013
    40   1      1.8250000000000099      36.500000000000014      36.500000000000014
    41   1      3.6500000000000128      34.675000000000011      36.500000000000014
    42   1      3.6500000000000128      36.500000000000014      34.675000000000011
    43   1      1.8250000000000099      34.675000000000011       38.32500000000001
    44   1      1.8250000000000099      36.500000000000014      40.150000000000013
    45   1      3.6500000000000128      34.675000000000011      40.150000000000013
    46   1      3.6500000000000128      36.500000000000014       38.32500000000001
    47   1      1.8250000000000099      34.675000000000011      41.975000000000009
    48   1      1.8250000000000099      36.500000000000014      43.800000000000004
    49   1      3.6500000000000128      34.675000000000011      43.800000000000004
    50   1      3.6500000000000128      36.500000000000014      41.975000000000009
    51   1      1.8250000000000099      34.675000000000011      45.625000000000007
    52   1      1.8250000000000099      36.500000000000014       47.45000000000001
    53   1      3.6500000000000128      34.675000000000011       47.45000000000001
    54   1      3.6500000000000128      36.500000000000014      45.625000000000007
    55   1      3.6500000000000128      34.675000000000011      51.100000000000009
    56   1      3.6500000000000128      36.500000000000014      49.275000000000013
    57   1      3.6500000000000128      34.675000000000011      54.750000000000014
    58   1      3.6500000000000128      36.500000000000014      52.925000000000011
    59   1      3.6500000000000128      36.500000000000014      56.575000000000003
    60   1      3.6500000000000128       38.32500000000001      25.550000000000011
    61   1      3.6500000000000128      40.150000000000013      23.725000000000016
    62   1      3.6500000000000128       38.32500000000001      29.200000000000006
    63   1      3.6500000000000128      40.150000000000013      27.375000000000011
    64   1      1.8250000000000099      40.150000000000013      32.850000000000016
    65   1      3.6500000000000128       38.32500000000001      32.850000000000016
    66   1      3.6500000000000128      40.150000000000013      31.025000000000013
    67   1      1.8250000000000099       38.32500000000001      34.675000000000011
    68   1      1.8250000000000099      40.150000000000013      36.500000000000014
    69   1      3.6500000000000128       38.32500000000001      36.500000000000014
    70   1      3.6500000000000128      40.150000000000013      34.675000000000011
    71   1      1.8250000000000099       38.32500000000001       38.32500000000001
    72   1      1.8250000000000099      40.150000000000013      40.150000000000013
    73   1      3.6500000000000128       38.32500000000001      40.150000000000013
    74   1      3.6500000000000128      40.150000000000013       38.32500000000001
    75   1      1.8250000000000099       38.32500000000001      41.975000000000009
    76   1      1.8250000000000099      40.150000000000013      43.800000000000004
    77   1      3.6500000000000128       38.32500000000001      43.800000000000004
    78   1      3.6500000000000128      40.150000000000013      41.975000000000009
    79   1      1.8250000000000099       38.32500000000001      45.625000000000007
    80   1      1.8250000000000099      40.150000000000013       47.45000000000001
    81   1      3.6500000000000128       38.32500000000001       47.45000000000001
    82   1      3.6500000000000128      40.150000000000013      45.625000000000007
    83   1      1.8250000000000099       38.32500000000001      49.275000000000013
    84   1      1.8250000000000099      40.150000000000013      51.100000000000009
    85   1      3.6500000000000128       38.32500000000001      51.100000000000009
    86   1      3.6500000000000128      40.150000000000013      49.275000000000013
    87   1      3.6500000000000128       38.32500000000001      54.750000000000014
    88   1      3.6500000000000128      40.150000000000013      52.925000000000011
    89   1      3.6500000000000128       38.32500000000001      58.400000000000013
    90   1      3.6500000000000128      40.150000000000013      56.575000000000003
    91   1      3.6500000000000128      40.150000000000013      60.225000000000009
    92   1      3.6500000000000128      41.975000000000009      21.900000000000009
    93   1      3.6500000000000128      41.975000000000009      25.550000000000011
    94   1      3.6500000000000128      43.800000000000004      23.725000000000016
    95   1      3.6500000000000128      41.975000000000009      29.200000000000006
    96   1      3.6500000000000128      43.800000000000004      27.375000000000011
    97   1      1.8250000000000099      41.975000000000009      31.025000000000013
    98   1      1.8250000000000099      43.800000000000004      32.850000000000016
    99   1      3.6500000000000128      41.975000000000009      32.850000000000016
   100   1      3.6500000000000128      43.800000000000004      31.025000000000013
   101   1      1.8250000000000099      41.975000000000009      34.675000000000011
   102   1      1.8250000000000099      43.800000000000004      36.500000000000014
   103   1      3.6500000000000128      41.975000000000009      36.500000000000014
   104   1      3.6500000000000128      43.800000000000004      34.675000000000011
   105   1      1.8250000000000099      41.975000000000009       38.32500000000001
   106   1      1.8250000000000099      43.800000000000004      40.150000000000013
   107   1      3.6500000000000128      41.975000000000009      40.150000000000013
   108   1      3.6500000000000128      43.800000000000004       38.32500000000001
   109   1      1.8250000000000099      41.975000000000009      41.975000000000009
   110   1      1.8250000000000099      43.800000000000004      43.800000000000004
   111   1      3.6500000000000128      41.975000000000009      43.800000000000004
   112   1      3.6500000000000128      43.800000000000004      41.975000000000009
   113   1      1.8250000000000099      41.975000000000009      45.625000000000007
   114   1      1.8250000000000099      43.800000000000004       47.45000000000001
   115   1      3.6500000000000128      41.975000000000009       47.45000000000001
   116   1      3.6500000000000128      43.800000000000004      45.625000000000007
   117   1      1.8250000000000099      41.975000000000009      49.275000000000013
   118   1      1.8250000000000099      43.800000000000004      51.100000000000009
   119   1      3.6500000000000128      41.975000000000009      51.100000000000009
   120   1      3.6500000000000128      43.800000000000004      49.275000000000013
   121   1      1.8250000000000099      41.975000000000009      52.925000000000011
   122   1      3.6500000000000128      41.975000000000009      54.750000000000014
   123   1      3.6500000000000128      43.800000000000004      52.925000000000011
   124   1      3.6500000000000128      41.975000000000009      58.400000000000013
   125   1      3.6500000000000128      43.800000000000004      56.575000000000003
   126   1      3.6500000000000128      41.975000000000009      62.050000000000011
   127   1      3.6500000000000128      43.800000000000004      60.225000000000009
   128   1      3.6500000000000128      45.625000000000007      25.550000000000011
   129   1      3.6500000000000128      45.625000000000007      29.200000000000006
   130   1      3.6500000000000128       47.45000000000001      27.375000000000011
   131   1      3.6500000000000128      45.625000000000007      32.850000000000016
   132   1      3.6500000000000128       47.45000000000001      31.025000000000013
   133   1      1.8250000000000099      45.625000000000007      34.675000000000011
   134   1      1.8250000000000099       47.45000000000001      36.500000000000014
   135   1      3.6500000000000128      45.625000000000007      36.500000000000014
   136   1      3.6500000000000128       47.45000000000001      34.675000000000011
   137   1      1.8250000000000099      45.625000000000007       38.32500000000001
   138   1      1.8250000000000099       47.45000000000001      40.150000000000013
   139   1      3.6500000000000128      45.625000000000007      40.150000000000013
   140   1      3.6500000000000128       47.45000000000001       38.32500000000001
   141   1      1.8250000000000099      45.625000000000007      41.975000000000009
   142   1      1.8250000000000099       47.45000000000001      43.800000000000004
   143   1      3.6500000000000128      45.625000000000007      43.800000000000004
   144   1      3.6500000000000128       47.45000000000001      41.975000000000009
   145   1      1.8250000000000099      45.625000000000007      45.625000000000007
   146   1      1.8250000000000099       47.45000000000001       47.45000000000001
   147   1      3.6500000000000128      45.625000000000007       47.45000000000001
   148   1      3.6500000000000128       47.45000000000001      45.625000000000007
   149   1      1.8250000000000099      45.625000000000007      49.275000000000013
   150   1      3.6500000000000128      45.625000000000007      51.100000000000009
   151   1      3.6500000000000128       47.45000000000001      49.275000000000013
   152   1      3.6500000000000128      45.625000000000007      54.750000000000014
   153   1      3.6500000000000128       47.45000000000001      52.925000000000011
   154   1      3.6500000000000128      45.625000000000007      58.400000000000013
   155   1      3.6500000000000128       47.45000000000001      56.575000000000003
   156   1      3.6500000000000128      49.275000000000013      29.200000000000006
   157   1      3.6500000000000128      49.275000000000013      32.850000000000016
   158   1      3.6500000000000128      51.100000000000009      31.025000000000013
   159   1      3.6500000000000128      49.275000000000013      36.500000000000014
   160   1      3.6500000000000128      51.100000000000009      34.675000000000011
   161   1      1.8250000000000099      49.275000000000013       38.32500000000001
   162   1      1.8250000000000099      51.100000000000009      40.150000000000013
   163   1      3.6500000000000128      49.275000000000013      40.150000000000013
   164   1      3.6500000000000128      51.100000000000009       38.32500000000001
   165   1      1.8250000000000099      49.275000000000013      41.975000000000009
   166   1      1.8250000000000099      51.100000000000009      43.800000000000004
   167   1      3.6500000000000128      49.275000000000013      43.800000000000004
   168   1      3.6500000000000128      51.100000000000009      41.975000000000009
   169   1      1.8250000000000099      49.275000000000013      45.625000000000007
   170   1      3.6500000000000128      49.275000000000013       47.45000000000001
   171   1      3.6500000000000128      51.100000000000009      45.625000000000007
   172   1      3.6500000000000128      49.275000000000013      51.100000000000009
   173   1      3.6500000000000128      51.100000000000009      49.275000000000013
   174   1      3.6500000000000128      49.275000000000013      54.750000000000014
   175   1      3.6500000000000128      51.100000000000009      52.925000000000011
   176   1      3.6500000000000128      52.925000000000011      32.850000000000016
   177   1      3.6500000000000128      52.925000000000011      36.500000000000014
   178   1      3.6500000000000128      54.750000000000014      34.675000000000011
   179   1      3.6500000000000128      52.925000000000011      40.150000000000013
   180   1      3.6500000000000128      54.750000000000014       38.32500000000001
   181   1      1.8250000000000099      52.925000000000011      41.975000000000009
   182   1      3.6500000000000128      52.925000000000011      43.800000000000004
   183   1      3.6500000000000128      54.750000000000014      41.975000000000009
   184   1      3.6500000000000128      52.925000000000011       47.45000000000001
   185   1      3.6500000000000128      54.750000000000014      45.625000000000007
   186   1      3.6500000000000128      52.925000000000011      51.100000000000009
   187   1      3.6500000000000128      54.750000000000014      49.275000000000013
   188   1      3.6500000000000128      56.575000000000003      36.500000000000014
   189   1      3.6500000000000128      56.575000000000003      40.150000000000013
   190   1      3.6500000000000128      58.400000000000013       38.32500000000001
   191   1      3.6500000000000128      56.575000000000003      43.800000000000004
   192   1      3.6500000000000128      58.400000000000013      41.975000000000009
   193   1      3.6500000000000128      56.575000000000003       47.45000000000001
   194   1      3.6500000000000128      58.400000000000013      45.625000000000007
   195   1      3.6500000000000128      60.225000000000009      40.150000000000013
   196   1      3.6500000000000128      60.225000000000009      43.800000000000004
   197   1      3.6500000000000128      62.050000000000011      41.975000000000009
   198   1      7.3000000000000114      7.3000000000000114       38.32500000000001
   199   1      7.3000000000000114      7.3000000000000114      41.975000000000009
   200   1      7.3000000000000114      7.3000000000000114      45.625000000000007
   201   1      7.3000000000000114      9.1250000000000142      36.500000000000014
   202   1      7.3000000000000114      10.950000000000008      34.675000000000011
   203   1      7.3000000000000114      9.1250000000000142      40.150000000000013
   204   1      7.3000000000000114      10.950000000000008       38.32500000000001
   205   1      7.3000000000000114      9.1250000000000142      43.800000000000004
   206   1      7.3000000000000114      10.950000000000008      41.975000000000009
   207   1      7.3000000000000114      9.1250000000000142       47.45000000000001
   208   1      7.3000000000000114      10.950000000000008      45.625000000000007
   209   1      7.3000000000000114      10.950000000000008      49.275000000000013
   210   1      7.3000000000000114      12.775000000000013      32.850000000000016
   211   1      7.3000000000000114       14.60000000000001      31.025000000000013
   212   1      7.3000000000000114      12.775000000000013      36.500000000000014
   213   1      7.3000000000000114       14.60000000000001      34.675000000000011
   214   1      5.4750000000000076       14.60000000000001      40.150000000000013
   215   1      7.3000000000000114      12.775000000000013      40.150000000000013
   216   1      7.3000000000000114       14.60000000000001       38.32500000000001
   217   1      5.4750000000000076      12.775000000000013      41.975000000000009
   218   1      5.4750000000000076       14.60000000000001      43.800000000000004
   219   1      7.3000000000000114      12.775000000000013      43.800000000000004
   220   1      7.3000000000000114       14.60000000000001      41.975000000000009
   221   1      7.3000000000000114      12.775000000000013       47.45000000000001
   222   1      7.3000000000000114       14.60000000000001      45.625000000000007
   223   1      7.3000000000000114      12.775000000000013      51.100000000000009
   224   1      7.3000000000000114       14.60000000000001      49.275000000000013
   225   1      7.3000000000000114       14.60000000000001      52.925000000000011
   226   1      7.3000000000000114      16.425000000000011      29.200000000000006
   227   1      7.3000000000000114      18.250000000000011      27.375000000000011
   228   1      7.3000000000000114      16.425000000000011      32.850000000000016
   229   1      7.3000000000000114      18.250000000000011      31.025000000000013
   230   1      5.4750000000000076      18.250000000000011      36.500000000000014
   231   1      7.3000000000000114      16.425000000000011      36.500000000000014
   232   1      7.3000000000000114      18.250000000000011      34.675000000000011
   233   1      5.4750000000000076      16.425000000000011       38.32500000000001
   234   1      5.4750000000000076      18.250000000000011      40.150000000000013
   235   1      7.3000000000000114      16.425000000000011      40.150000000000013
   236   1      7.3000000000000114      18.250000000000011       38.32500000000001
   237   1      5.4750000000000076      16.425000000000011      41.975000000000009
   238   1      5.4750000000000076      18.250000000000011      43.800000000000004
   239   1      7.3000000000000114      16.425000000000011      43.800000000000004
   240   1      7.3000000000000114      18.250000000000011      41.975000000000009
   241   1      5.4750000000000076      16.425000000000011      45.625000000000007
   242   1      5.4750000000000076      18.250000000000011       47.45000000000001
   243   1      7.3000000000000114      16.425000000000011       47.45000000000001
   244   1      7.3000000000000114      18.250000000000011      45.625000000000007
   245   1      7.3000000000000114      16.425000000000011      51.100000000000009
   246   1      7.3000000000000114      18.250000000000011      49.275000000000013
   247   1      7.3000000000000114      16.425000000000011      54.750000000000014
   248   1      7.3000000000000114      18.250000000000011      52.925000000000011
   249   1      7.3000000000000114      18.250000000000011      56.575000000000003
   250   1      7.3000000000000114       20.07500000000001      25.550000000000011
   251   1      7.3000000000000114      21.900000000000009      23.725000000000016
   252   1      7.3000000000000114       20.07500000000001      29.200000000000006
   253   1      7.3000000000000114      21.900000000000009      27.375000000000011
   254   1      5.4750000000000076      21.900000000000009      32.850000000000016
   255   1      7.3000000000000114       20.07500000000001      32.850000000000016
   256   1      7.3000000000000114      21.900000000000009      31.025000000000013
   257   1      5.4750000000000076       20.07500000000001      34.675000000000011
   258   1      5.4750000000000076      21.900000000000009      36.500000000000014
   259   1      7.3000000000000114       20.07500000000001      36.500000000000014
   260   1      7.3000000000000114      21.900000000000009      34.675000000000011
   261   1      5.4750000000000076       20.07500000000001       38.32500000000001
   262   1      5.4750000000000076      21.900000000000009      40.150000000000013
   263   1      7.3000000000000114       20.07500000000001      40.150000000000013
   264   1      7.3000000000000114      21.900000000000009       38.32500000000001
   265   1      5.4750000000000076       20.07500000000001      41.975000000000009
   266   1      5.4750000000000076      21.900000000000009      43.800000000000004
   267   1      7.3000000000000114       20.07500000000001      43.800000000000004
   268   1      7.3000000000000114      21.900000000000009      41.975000000000009
   269   1      5.4750000000000076       20.07500000000001      45.625000000000007
   270   1      5.4750000000000076      21.900000000000009       47.45000000000001
   271   1      7.3000000000000114       20.07500000000001       47.45000000000001
   272   1      7.3000000000000114      21.900000000000009      45.625000000000007
   273   1      5.4750000000000076       20.07500000000001      49.275000000000013
   274   1      5.4750000000000076      21.900000000000009      51.100000000000009
   275   1      7.3000000000000114       20.07500000000001      51.100000000000009
   276   1      7.3000000000000114      21.900000000000009      49.275000000000013
   277   1      7.3000000000000114       20.07500000000001      54.750000000000014
   278   1      7.3000000000000114      21.900000000000009      52.925000000000011
   279   1      7.3000000000000114       20.07500000000001      58.400000000000013
   280   1      7.3000000000000114      21.900000000000009      56.575000000000003
   281   1      7.3000000000000114      21.900000000000009      60.225000000000009
   282   1      7.3000000000000114      23.725000000000016      21.900000000000009
   283   1      7.3000000000000114      25.550000000000011       20.07500000000001
   284   1      7.3000000000000114      23.725000000000016      25.550000000000011
   285   1      7.3000000000000114      25.550000000000011      23.725000000000016
   286   1      5.4750000000000076      25.550000000000011      29.200000000000006
   287   1      7.3000000000000114      23.725000000000016      29.200000000000006
   288   1      7.3000000000000114      25.550000000000011      27.375000000000011
   289   1      5.4750000000000076      23.725000000000016      31.025000000000013
   290   1      5.4750000000000076      25.550000000000011      32.850000000000016
   291   1      7.3000000000000114      23.725000000000016      32.850000000000016
   292   1      7.3000000000000114      25.550000000000011      31.025000000000013
   293   1      5.4750000000000076      23.725000000000016      34.675000000000011
   294   1      5.4750000000000076      25.550000000000011      36.500000000000014
   295   1      7.3000000000000114      23.725000000000016      36.500000000000014
   296   1      7.3000000000000114      25.550000000000011      34.675000000000011
   297   1      5.4750000000000076      23.725000000000016       38.32500000000001
   298   1      5.4750000000000076      25.550000000000011      40.150000000000013
   299   1      7.3000000000000114      23.725000000000016      40.150000000000013
   300   1      7.3000000000000114      25.550000000000011       38.32500000000001
   301   1      5.4750000000000076      23.725000000000016      41.975000000000009
   302   1      5.4750000000000076      25.550000000000011      43.800000000000004
   303   1      7.3000000000000114      23.725000000000016      43.800000000000004
   304   1      7.3000000000000114      25.550000000000011      41.975000000000009
   305   1      5.4750000000000076      23.725000000000016      45.625000000000007
   306   1      5.4750000000000076      25.550000000000011       47.45000000000001
   307   1      7.3000000000000114      23.725000000000016       47.45000000000001
   308   1      7.3000000000000114      25.550000000000011      45.625000000000007
   309   1      5.4750000000000076      23.725000000000016      49.275000000000013
   310   1      5.4750000000000076      25.550000000000011      51.100000000000009
   311   1      7.3000000000000114      23.725000000000016      51.100000000000009
   312   1      7.3000000000000114      25.550000000000011      49.275000000000013
   313   1      5.4750000000000076      23.725000000000016      52.925000000000011
   314   1      5.4750000000000076      25.550000000000011      54.750000000000014
   315   1      7.3000000000000114      23.725000000000016      54.750000000000014
   316   1      7.3000000000000114      25.550000000000011      52.925000000000011
   317   1      7.3000000000000114      23.725000000000016      58.400000000000013
   318   1      7.3000000000000114      25.550000000000011      56.575000000000003
   319   1      7.3000000000000114      23.725000000000016      62.050000000000011
   320   1      7.3000000000000114      25.550000000000011      60.225000000000009
   321   1      7.3000000000000114      25.550000000000011      63.875000000000007
   322   1      7.3000000000000114      27.375000000000011      18.250000000000011
   323   1      7.3000000000000114      29.200000000000006      16.425000000000011
   324   1      7.3000000000000114      27.375000000000011      21.900000000000009
   325   1      7.3000000000000114      29.200000000000006       20.07500000000001
   326   1      5.4750000000000076      29.200000000000006      25.550000000000011
   327   1      7.3000000000000114      27.375000000000011      25.550000000000011
   328   1      7.3000000000000114      29.200000000000006      23.725000000000016
   329   1      5.4750000000000076      27.375000000000011      27.375000000000011
   330   1      5.4750000000000076      29.200000000000006      29.200000000000006
   331   1      7.3000000000000114      27.375000000000011      29.200000000000006
   332   1      7.3000000000000114      29.200000000000006      27.375000000000011
   333   1      5.4750000000000076      27.375000000000011      31.025000000000013
   334   1      5.4750000000000076      29.200000000000006      32.850000000000016
   335   1      7.3000000000000114      27.375000000000011      32.850000000000016
   336   1      7.3000000000000114      29.200000000000006      31.025000000000013
   337   1      5.4750000000000076      27.375000000000011      34.675000000000011
   338   1      5.4750000000000076      29.200000000000006      36.500000000000014
   339   1      7.3000000000000114      27.375000000000011      36.500000000000014
   340   1      7.3000000000000114      29.200000000000006      34.675000000000011
   341   1      5.4750000000000076      27.375000000000011       38.32500000000001
   342   1      5.4750000000000076      29.200000000000006      40.150000000000013
   343   1      7.3000000000000114      27.375000000000011      40.150000000000013
   344   1      7.3000000000000114      29.200000000000006       38.32500000000001
   345   1      5.4750000000000076      27.375000000000011      41.975000000000009
   346   1      5.4750000000000076      29.200000000000006      43.800000000000004
   347   1      7.3000000000000114      27.375000000000011      43.800000000000004
   348   1      7.3000000000000114      29.200000000000006      41.975000000000009
   349   1      5.4750000000000076      27.375000000000011      45.625000000000007
   350   1      5.4750000000000076      29.200000000000006       47.45000000000001
   351   1      7.3000000000000114      27.375000000000011       47.45000000000001
   352   1      7.3000000000000114      29.200000000000006      45.625000000000007
   353   1      5.4750000000000076      27.375000000000011      49.275000000000013
   354   1      5.4750000000000076      29.200000000000006      51.100000000000009
   355   1      7.3000000000000114      27.375000000000011      51.100000000000009
   356   1      7.3000000000000114      29.200000000000006      49.275000000000013
   357   1      5.4750000000000076      27.375000000000011      52.925000000000011
   358   1      5.4750000000000076      29.200000000000006      54.750000000000014