model_files/PdCu/PdCu_30000/PdCu_552/PdCu_552_fcc_30217_temp.data (written by ASE) 

30217 	 atoms 
2  atom types
0.0                     120  xlo xhi
0.0                     120  ylo yhi
0.0                     120  zlo zhi


Atoms 

     1   1      1.8875000000000099       58.51250000000001      60.400000000000006
     2   1      1.8875000000000099      60.400000000000006       58.51250000000001
     3   1  7.1054273576010019e-15      60.400000000000006      60.400000000000006
     4   1      1.8875000000000099      60.400000000000006      62.287500000000009
     5   1      1.8875000000000099      62.287500000000009      60.400000000000006
     6   1      5.6625000000000085      54.737500000000011      56.625000000000007
     7   1      5.6625000000000085      54.737500000000011      60.400000000000006
     8   1      5.6625000000000085      54.737500000000011      64.175000000000011
     9   1      5.6625000000000085      56.625000000000007      54.737500000000011
    10   1      3.7750000000000057      56.625000000000007      56.625000000000007
    11   1      3.7750000000000057       58.51250000000001       58.51250000000001
    12   1      5.6625000000000085      56.625000000000007       58.51250000000001
    13   1      5.6625000000000085       58.51250000000001      56.625000000000007
    14   1      3.7750000000000057      56.625000000000007      60.400000000000006
    15   1      3.7750000000000057       58.51250000000001      62.287500000000009
    16   1      5.6625000000000085      56.625000000000007      62.287500000000009
    17   1      5.6625000000000085       58.51250000000001      60.400000000000006
    18   1      3.7750000000000057      56.625000000000007      64.175000000000011
    19   1      5.6625000000000085      56.625000000000007      66.062500000000014
    20   1      5.6625000000000085       58.51250000000001      64.175000000000011
    21   1      5.6625000000000085      60.400000000000006      54.737500000000011
    22   1      3.7750000000000057      60.400000000000006      56.625000000000007
    23   1      3.7750000000000057      62.287500000000009       58.51250000000001
    24   1      5.6625000000000085      60.400000000000006       58.51250000000001
    25   1      5.6625000000000085      62.287500000000009      56.625000000000007
    26   1      3.7750000000000057      60.400000000000006      60.400000000000006
    27   1      3.7750000000000057      62.287500000000009      62.287500000000009
    28   1      5.6625000000000085      60.400000000000006      62.287500000000009
    29   1      5.6625000000000085      62.287500000000009      60.400000000000006
    30   1      3.7750000000000057      60.400000000000006      64.175000000000011
    31   1      5.6625000000000085      60.400000000000006      66.062500000000014
    32   1      5.6625000000000085      62.287500000000009      64.175000000000011
    33   1      5.6625000000000085      64.175000000000011      54.737500000000011
    34   1      3.7750000000000057      64.175000000000011      56.625000000000007
    35   1      5.6625000000000085      64.175000000000011       58.51250000000001
    36   1      5.6625000000000085      66.062500000000014      56.625000000000007
    37   1      3.7750000000000057      64.175000000000011      60.400000000000006
    38   1      5.6625000000000085      64.175000000000011      62.287500000000009
    39   1      5.6625000000000085      66.062500000000014      60.400000000000006
    40   1      3.7750000000000057      64.175000000000011      64.175000000000011
    41   1      5.6625000000000085      64.175000000000011      66.062500000000014
    42   1      5.6625000000000085      66.062500000000014      64.175000000000011
    43   1      9.4375000000000071      50.962500000000013      56.625000000000007
    44   1      9.4375000000000071      50.962500000000013      60.400000000000006
    45   1      9.4375000000000071      50.962500000000013      64.175000000000011
    46   1      7.5500000000000114      54.737500000000011      54.737500000000011
    47   1      9.4375000000000071      52.850000000000009      54.737500000000011
    48   1      9.4375000000000071      54.737500000000011      52.850000000000009
    49   1      7.5500000000000114      52.850000000000009      56.625000000000007
    50   1      7.5500000000000114      54.737500000000011       58.51250000000001
    51   1      9.4375000000000071      52.850000000000009       58.51250000000001
    52   1      9.4375000000000071      54.737500000000011      56.625000000000007
    53   1      7.5500000000000114      52.850000000000009      60.400000000000006
    54   1      7.5500000000000114      54.737500000000011      62.287500000000009
    55   1      9.4375000000000071      52.850000000000009      62.287500000000009
    56   1      9.4375000000000071      54.737500000000011      60.400000000000006
    57   1      7.5500000000000114      52.850000000000009      64.175000000000011
    58   1      7.5500000000000114      54.737500000000011      66.062500000000014
    59   1      9.4375000000000071      52.850000000000009      66.062500000000014
    60   1      9.4375000000000071      54.737500000000011      64.175000000000011
    61   1      9.4375000000000071      54.737500000000011      67.950000000000003
    62   1      9.4375000000000071      56.625000000000007      50.962500000000013
    63   1      7.5500000000000114      56.625000000000007      52.850000000000009
    64   1      7.5500000000000114       58.51250000000001      54.737500000000011
    65   1      9.4375000000000071      56.625000000000007      54.737500000000011
    66   1      9.4375000000000071       58.51250000000001      52.850000000000009
    67   1      7.5500000000000114      56.625000000000007      56.625000000000007
    68   1      7.5500000000000114       58.51250000000001       58.51250000000001
    69   1      9.4375000000000071      56.625000000000007       58.51250000000001
    70   1      9.4375000000000071       58.51250000000001      56.625000000000007
    71   1      7.5500000000000114      56.625000000000007      60.400000000000006
    72   1      7.5500000000000114       58.51250000000001      62.287500000000009
    73   1      9.4375000000000071      56.625000000000007      62.287500000000009
    74   1      9.4375000000000071       58.51250000000001      60.400000000000006
    75   1      7.5500000000000114      56.625000000000007      64.175000000000011
    76   1      7.5500000000000114       58.51250000000001      66.062500000000014
    77   1      9.4375000000000071      56.625000000000007      66.062500000000014
    78   1      9.4375000000000071       58.51250000000001      64.175000000000011
    79   1      7.5500000000000114      56.625000000000007      67.950000000000003
    80   1      9.4375000000000071      56.625000000000007      69.837500000000006
    81   1      9.4375000000000071       58.51250000000001      67.950000000000003
    82   1      9.4375000000000071      60.400000000000006      50.962500000000013
    83   1      7.5500000000000114      60.400000000000006      52.850000000000009
    84   1      7.5500000000000114      62.287500000000009      54.737500000000011
    85   1      9.4375000000000071      60.400000000000006      54.737500000000011
    86   1      9.4375000000000071      62.287500000000009      52.850000000000009
    87   1      7.5500000000000114      60.400000000000006      56.625000000000007
    88   1      7.5500000000000114      62.287500000000009       58.51250000000001
    89   1      9.4375000000000071      60.400000000000006       58.51250000000001
    90   1      9.4375000000000071      62.287500000000009      56.625000000000007
    91   1      7.5500000000000114      60.400000000000006      60.400000000000006
    92   1      7.5500000000000114      62.287500000000009      62.287500000000009
    93   1      9.4375000000000071      60.400000000000006      62.287500000000009
    94   1      9.4375000000000071      62.287500000000009      60.400000000000006
    95   1      7.5500000000000114      60.400000000000006      64.175000000000011
    96   1      7.5500000000000114      62.287500000000009      66.062500000000014
    97   1      9.4375000000000071      60.400000000000006      66.062500000000014
    98   1      9.4375000000000071      62.287500000000009      64.175000000000011
    99   1      7.5500000000000114      60.400000000000006      67.950000000000003
   100   1      9.4375000000000071      60.400000000000006      69.837500000000006
   101   1      9.4375000000000071      62.287500000000009      67.950000000000003
   102   1      9.4375000000000071      64.175000000000011      50.962500000000013
   103   1      7.5500000000000114      64.175000000000011      52.850000000000009
   104   1      7.5500000000000114      66.062500000000014      54.737500000000011
   105   1      9.4375000000000071      64.175000000000011      54.737500000000011
   106   1      9.4375000000000071      66.062500000000014      52.850000000000009
   107   1      7.5500000000000114      64.175000000000011      56.625000000000007
   108   1      7.5500000000000114      66.062500000000014       58.51250000000001
   109   1      9.4375000000000071      64.175000000000011       58.51250000000001
   110   1      9.4375000000000071      66.062500000000014      56.625000000000007
   111   1      7.5500000000000114      64.175000000000011      60.400000000000006
   112   1      7.5500000000000114      66.062500000000014      62.287500000000009
   113   1      9.4375000000000071      64.175000000000011      62.287500000000009
   114   1      9.4375000000000071      66.062500000000014      60.400000000000006
   115   1      7.5500000000000114      64.175000000000011      64.175000000000011
   116   1      7.5500000000000114      66.062500000000014      66.062500000000014
   117   1      9.4375000000000071      64.175000000000011      66.062500000000014
   118   1      9.4375000000000071      66.062500000000014      64.175000000000011
   119   1      7.5500000000000114      64.175000000000011      67.950000000000003
   120   1      9.4375000000000071      64.175000000000011      69.837500000000006
   121   1      9.4375000000000071      66.062500000000014      67.950000000000003
   122   1      9.4375000000000071      67.950000000000003      54.737500000000011
   123   1      7.5500000000000114      67.950000000000003      56.625000000000007
   124   1      9.4375000000000071      67.950000000000003       58.51250000000001
   125   1      9.4375000000000071      69.837500000000006      56.625000000000007
   126   1      7.5500000000000114      67.950000000000003      60.400000000000006
   127   1      9.4375000000000071      67.950000000000003      62.287500000000009
   128   1      9.4375000000000071      69.837500000000006      60.400000000000006
   129   1      7.5500000000000114      67.950000000000003      64.175000000000011
   130   1      9.4375000000000071      67.950000000000003      66.062500000000014
   131   1      9.4375000000000071      69.837500000000006      64.175000000000011
   132   1      13.212500000000006      47.187500000000007      56.625000000000007
   133   1      13.212500000000006      47.187500000000007      60.400000000000006
   134   1      13.212500000000006      47.187500000000007      64.175000000000011
   135   1       11.32500000000001      50.962500000000013      50.962500000000013
   136   1      13.212500000000006       49.07500000000001      50.962500000000013
   137   1      13.212500000000006      50.962500000000013       49.07500000000001
   138   1       11.32500000000001      50.962500000000013      54.737500000000011
   139   1      13.212500000000006       49.07500000000001      54.737500000000011
   140   1      13.212500000000006      50.962500000000013      52.850000000000009
   141   1       11.32500000000001       49.07500000000001      56.625000000000007
   142   1       11.32500000000001      50.962500000000013       58.51250000000001
   143   1      13.212500000000006       49.07500000000001       58.51250000000001
   144   1      13.212500000000006      50.962500000000013      56.625000000000007
   145   1       11.32500000000001       49.07500000000001      60.400000000000006
   146   1       11.32500000000001      50.962500000000013      62.287500000000009
   147   1      13.212500000000006       49.07500000000001      62.287500000000009
   148   1      13.212500000000006      50.962500000000013      60.400000000000006
   149   1       11.32500000000001       49.07500000000001      64.175000000000011
   150   1       11.32500000000001      50.962500000000013      66.062500000000014
   151   1      13.212500000000006       49.07500000000001      66.062500000000014
   152   1      13.212500000000006      50.962500000000013      64.175000000000011
   153   1       11.32500000000001      50.962500000000013      69.837500000000006
   154   1      13.212500000000006       49.07500000000001      69.837500000000006
   155   1      13.212500000000006      50.962500000000013      67.950000000000003
   156   1      13.212500000000006      50.962500000000013      71.725000000000009
   157   1       11.32500000000001      54.737500000000011      50.962500000000013
   158   1      13.212500000000006      52.850000000000009      50.962500000000013
   159   1      13.212500000000006      54.737500000000011       49.07500000000001
   160   1       11.32500000000001      52.850000000000009      52.850000000000009
   161   1       11.32500000000001      54.737500000000011      54.737500000000011
   162   1      13.212500000000006      52.850000000000009      54.737500000000011
   163   1      13.212500000000006      54.737500000000011      52.850000000000009
   164   1       11.32500000000001      52.850000000000009      56.625000000000007
   165   1       11.32500000000001      54.737500000000011       58.51250000000001
   166   1      13.212500000000006      52.850000000000009       58.51250000000001
   167   1      13.212500000000006      54.737500000000011      56.625000000000007
   168   1       11.32500000000001      52.850000000000009      60.400000000000006
   169   1       11.32500000000001      54.737500000000011      62.287500000000009
   170   1      13.212500000000006      52.850000000000009      62.287500000000009
   171   1      13.212500000000006      54.737500000000011      60.400000000000006
   172   1       11.32500000000001      52.850000000000009      64.175000000000011
   173   1       11.32500000000001      54.737500000000011      66.062500000000014
   174   1      13.212500000000006      52.850000000000009      66.062500000000014
   175   1      13.212500000000006      54.737500000000011      64.175000000000011
   176   1       11.32500000000001      52.850000000000009      67.950000000000003
   177   1       11.32500000000001      54.737500000000011      69.837500000000006
   178   1      13.212500000000006      52.850000000000009      69.837500000000006
   179   1      13.212500000000006      54.737500000000011      67.950000000000003
   180   1      13.212500000000006      54.737500000000011      71.725000000000009
   181   1      13.212500000000006      56.625000000000007      47.187500000000007
   182   1       11.32500000000001      56.625000000000007       49.07500000000001
   183   1       11.32500000000001       58.51250000000001      50.962500000000013
   184   1      13.212500000000006      56.625000000000007      50.962500000000013
   185   1      13.212500000000006       58.51250000000001       49.07500000000001
   186   1       11.32500000000001      56.625000000000007      52.850000000000009
   187   1       11.32500000000001       58.51250000000001      54.737500000000011
   188   1      13.212500000000006      56.625000000000007      54.737500000000011
   189   1      13.212500000000006       58.51250000000001      52.850000000000009
   190   1       11.32500000000001      56.625000000000007      56.625000000000007
   191   1       11.32500000000001       58.51250000000001       58.51250000000001
   192   1      13.212500000000006      56.625000000000007       58.51250000000001
   193   1      13.212500000000006       58.51250000000001      56.625000000000007
   194   1       11.32500000000001      56.625000000000007      60.400000000000006
   195   1       11.32500000000001       58.51250000000001      62.287500000000009
   196   1      13.212500000000006      56.625000000000007      62.287500000000009
   197   1      13.212500000000006       58.51250000000001      60.400000000000006
   198   1       11.32500000000001      56.625000000000007      64.175000000000011
   199   1       11.32500000000001       58.51250000000001      66.062500000000014
   200   1      13.212500000000006      56.625000000000007      66.062500000000014
   201   1      13.212500000000006       58.51250000000001      64.175000000000011
   202   1       11.32500000000001      56.625000000000007      67.950000000000003
   203   1       11.32500000000001       58.51250000000001      69.837500000000006
   204   1      13.212500000000006      56.625000000000007      69.837500000000006
   205   1      13.212500000000006       58.51250000000001      67.950000000000003
   206   1       11.32500000000001      56.625000000000007      71.725000000000009
   207   1      13.212500000000006      56.625000000000007      73.612500000000011
   208   1      13.212500000000006       58.51250000000001      71.725000000000009
   209   1      13.212500000000006      60.400000000000006      47.187500000000007
   210   1       11.32500000000001      60.400000000000006       49.07500000000001
   211   1       11.32500000000001      62.287500000000009      50.962500000000013
   212   1      13.212500000000006      60.400000000000006      50.962500000000013
   213   1      13.212500000000006      62.287500000000009       49.07500000000001
   214   1       11.32500000000001      60.400000000000006      52.850000000000009
   215   1       11.32500000000001      62.287500000000009      54.737500000000011
   216   1      13.212500000000006      60.400000000000006      54.737500000000011
   217   1      13.212500000000006      62.287500000000009      52.850000000000009
   218   1       11.32500000000001      60.400000000000006      56.625000000000007
   219   1       11.32500000000001      62.287500000000009       58.51250000000001
   220   1      13.212500000000006      60.400000000000006       58.51250000000001
   221   1      13.212500000000006      62.287500000000009      56.625000000000007
   222   1       11.32500000000001      60.400000000000006      60.400000000000006
   223   1       11.32500000000001      62.287500000000009      62.287500000000009
   224   1      13.212500000000006      60.400000000000006      62.287500000000009
   225   1      13.212500000000006      62.287500000000009      60.400000000000006
   226   1       11.32500000000001      60.400000000000006      64.175000000000011
   227   1       11.32500000000001      62.287500000000009      66.062500000000014
   228   1      13.212500000000006      60.400000000000006      66.062500000000014
   229   1      13.212500000000006      62.287500000000009      64.175000000000011
   230   1       11.32500000000001      60.400000000000006      67.950000000000003
   231   1       11.32500000000001      62.287500000000009      69.837500000000006
   232   1      13.212500000000006      60.400000000000006      69.837500000000006
   233   1      13.212500000000006      62.287500000000009      67.950000000000003
   234   1       11.32500000000001      60.400000000000006      71.725000000000009
   235   1      13.212500000000006      60.400000000000006      73.612500000000011
   236   1      13.212500000000006      62.287500000000009      71.725000000000009
   237   1      13.212500000000006      64.175000000000011      47.187500000000007
   238   1       11.32500000000001      64.175000000000011       49.07500000000001
   239   1       11.32500000000001      66.062500000000014      50.962500000000013
   240   1      13.212500000000006      64.175000000000011      50.962500000000013
   241   1      13.212500000000006      66.062500000000014       49.07500000000001
   242   1       11.32500000000001      64.175000000000011      52.850000000000009
   243   1       11.32500000000001      66.062500000000014      54.737500000000011
   244   1      13.212500000000006      64.175000000000011      54.737500000000011
   245   1      13.212500000000006      66.062500000000014      52.850000000000009
   246   1       11.32500000000001      64.175000000000011      56.625000000000007
   247   1       11.32500000000001      66.062500000000014       58.51250000000001
   248   1      13.212500000000006      64.175000000000011       58.51250000000001
   249   1      13.212500000000006      66.062500000000014      56.625000000000007
   250   1       11.32500000000001      64.175000000000011      60.400000000000006
   251   1       11.32500000000001      66.062500000000014      62.287500000000009
   252   1      13.212500000000006      64.175000000000011      62.287500000000009
   253   1      13.212500000000006      66.062500000000014      60.400000000000006
   254   1       11.32500000000001      64.175000000000011      64.175000000000011
   255   1       11.32500000000001      66.062500000000014      66.062500000000014
   256   1      13.212500000000006      64.175000000000011      66.062500000000014
   257   1      13.212500000000006      66.062500000000014      64.175000000000011
   258   1       11.32500000000001      64.175000000000011      67.950000000000003
   259   1       11.32500000000001      66.062500000000014      69.837500000000006
   260   1      13.212500000000006      64.175000000000011      69.837500000000006
   261   1      13.212500000000006      66.062500000000014      67.950000000000003
   262   1       11.32500000000001      64.175000000000011      71.725000000000009
   263   1      13.212500000000006      64.175000000000011      73.612500000000011
   264   1      13.212500000000006      66.062500000000014      71.725000000000009
   265   1       11.32500000000001      69.837500000000006      50.962500000000013
   266   1      13.212500000000006      67.950000000000003      50.962500000000013
   267   1      13.212500000000006      69.837500000000006       49.07500000000001
   268   1       11.32500000000001      67.950000000000003      52.850000000000009
   269   1       11.32500000000001      69.837500000000006      54.737500000000011
   270   1      13.212500000000006      67.950000000000003      54.737500000000011
   271   1      13.212500000000006      69.837500000000006      52.850000000000009
   272   1       11.32500000000001      67.950000000000003      56.625000000000007
   273   1       11.32500000000001      69.837500000000006       58.51250000000001
   274   1      13.212500000000006      67.950000000000003       58.51250000000001
   275   1      13.212500000000006      69.837500000000006      56.625000000000007
   276   1       11.32500000000001      67.950000000000003      60.400000000000006
   277   1       11.32500000000001      69.837500000000006      62.287500000000009
   278   1      13.212500000000006      67.950000000000003      62.287500000000009
   279   1      13.212500000000006      69.837500000000006      60.400000000000006
   280   1       11.32500000000001      67.950000000000003      64.175000000000011
   281   1       11.32500000000001      69.837500000000006      66.062500000000014
   282   1      13.212500000000006      67.950000000000003      66.062500000000014
   283   1      13.212500000000006      69.837500000000006      64.175000000000011
   284   1       11.32500000000001      67.950000000000003      67.950000000000003
   285   1       11.32500000000001      69.837500000000006      69.837500000000006
   286   1      13.212500000000006      67.950000000000003      69.837500000000006
   287   1      13.212500000000006      69.837500000000006      67.950000000000003
   288   1      13.212500000000006      69.837500000000006      71.725000000000009
   289   1      13.212500000000006      71.725000000000009      50.962500000000013
   290   1      13.212500000000006      71.725000000000009      54.737500000000011
   291   1       11.32500000000001      71.725000000000009      56.625000000000007
   292   1      13.212500000000006      71.725000000000009       58.51250000000001
   293   1      13.212500000000006      73.612500000000011      56.625000000000007
   294   1       11.32500000000001      71.725000000000009      60.400000000000006
   295   1      13.212500000000006      71.725000000000009      62.287500000000009
   296   1      13.212500000000006      73.612500000000011      60.400000000000006
   297   1       11.32500000000001      71.725000000000009      64.175000000000011
   298   1      13.212500000000006      71.725000000000009      66.062500000000014
   299   1      13.212500000000006      73.612500000000011      64.175000000000011
   300   1      13.212500000000006      71.725000000000009      69.837500000000006
   301   1      16.987500000000011      43.412500000000009      56.625000000000007
   302   1      16.987500000000011      43.412500000000009      60.400000000000006
   303   1      16.987500000000011      43.412500000000009      64.175000000000011
   304   1      15.100000000000009      47.187500000000007      50.962500000000013
   305   1      16.987500000000011      45.300000000000004      50.962500000000013
   306   1      16.987500000000011      47.187500000000007       49.07500000000001
   307   1      15.100000000000009      47.187500000000007      54.737500000000011
   308   1      16.987500000000011      45.300000000000004      54.737500000000011
   309   1      16.987500000000011      47.187500000000007      52.850000000000009
   310   1      15.100000000000009      45.300000000000004      56.625000000000007
   311   1      15.100000000000009      47.187500000000007       58.51250000000001
   312   1      16.987500000000011      45.300000000000004       58.51250000000001
   313   1      16.987500000000011      47.187500000000007      56.625000000000007
   314   1      15.100000000000009      45.300000000000004      60.400000000000006
   315   1      15.100000000000009      47.187500000000007      62.287500000000009
   316   1      16.987500000000011      45.300000000000004      62.287500000000009
   317   1      16.987500000000011      47.187500000000007      60.400000000000006
   318   1      15.100000000000009      45.300000000000004      64.175000000000011
   319   1      15.100000000000009      47.187500000000007      66.062500000000014
   320   1      16.987500000000011      45.300000000000004      66.062500000000014
   321   1      16.987500000000011      47.187500000000007      64.175000000000011
   322   1      15.100000000000009      47.187500000000007      69.837500000000006
   323   1      16.987500000000011      45.300000000000004      69.837500000000006
   324   1      16.987500000000011      47.187500000000007      67.950000000000003
   325   1      16.987500000000011      47.187500000000007      71.725000000000009
   326   1      15.100000000000009      50.962500000000013      47.187500000000007
   327   1      16.987500000000011       49.07500000000001      47.187500000000007
   328   1      16.987500000000011      50.962500000000013      45.300000000000004
   329   1      15.100000000000009       49.07500000000001       49.07500000000001
   330   1      15.100000000000009      50.962500000000013      50.962500000000013
   331   1      16.987500000000011       49.07500000000001      50.962500000000013
   332   1      16.987500000000011      50.962500000000013       49.07500000000001
   333   1      15.100000000000009       49.07500000000001      52.850000000000009
   334   1      15.100000000000009      50.962500000000013      54.737500000000011
   335   1      16.987500000000011       49.07500000000001      54.737500000000011
   336   1      16.987500000000011      50.962500000000013      52.850000000000009
   337   1      15.100000000000009       49.07500000000001      56.625000000000007
   338   1      15.100000000000009      50.962500000000013       58.51250000000001
   339   1      16.987500000000011       49.07500000000001       58.51250000000001
   340   1      16.987500000000011      50.962500000000013      56.625000000000007
   341   1      15.100000000000009       49.07500000000001      60.400000000000006
   342   1      15.100000000000009      50.962500000000013      62.287500000000009
   343   1      16.987500000000011       49.07500000000001      62.287500000000009
   344   1      16.987500000000011      50.962500000000013      60.400000000000006
   345   1      15.100000000000009       49.07500000000001      64.175000000000011
   346   1      15.100000000000009      50.962500000000013      66.062500000000014
   347   1      16.987500000000011       49.07500000000001      66.062500000000014
   348   1      16.987500000000011      50.962500000000013      64.175000000000011
   349   1      15.100000000000009       49.07500000000001      67.950000000000003
   350   1      15.100000000000009      50.962500000000013      69.837500000000006
   351   1      16.987500000000011       49.07500000000001      69.837500000000006
   352   1      16.987500000000011      50.962500000000013      67.950000000000003
   353   1      15.100000000000009       49.07500000000001      71.725000000000009
   354   1      15.100000000000009      50.962500000000013      73.612500000000011
   355   1      16.987500000000011       49.07500000000001      73.612500000000011
   356   1      16.987500000000011      50.962500000000013      71.725000000000009
   357   1      16.987500000000011      50.962500000000013                    75.5
   358   1      15.100000000000009      54.737500000000011      47.187500000000007