model_files/Fe/Fe_30000/Fe_431/data.Fe_431_bcc_29685 (written by ASE) 

29685 	 atoms 
1  atom types
0.0                      80  xlo xhi
0.0                      80  ylo yhi
0.0                      80  zlo zhi


Atoms 

     1   1      1.4349999999999952      35.874999999999993                   40.18
     2   1      79.999999999999986       38.74499999999999       38.74499999999999
     3   1      1.4349999999999952      37.309999999999988       38.74499999999999
     4   1      1.4349999999999952       38.74499999999999      37.309999999999988
     5   1      79.999999999999986      37.309999999999988                   40.18
     6   1      79.999999999999986       38.74499999999999      41.614999999999995
     7   1      1.4349999999999952      37.309999999999988      41.614999999999995
     8   1      1.4349999999999952       38.74499999999999                   40.18
     9   1      1.4349999999999952       38.74499999999999       43.04999999999999
    10   1      1.4349999999999952                   40.18      35.874999999999993
    11   1      79.999999999999986                   40.18      37.309999999999988
    12   1      79.999999999999986      41.614999999999995       38.74499999999999
    13   1      1.4349999999999952                   40.18       38.74499999999999
    14   1      1.4349999999999952      41.614999999999995      37.309999999999988
    15   1      79.999999999999986                   40.18                   40.18
    16   1      79.999999999999986      41.614999999999995      41.614999999999995
    17   1      1.4349999999999952                   40.18      41.614999999999995
    18   1      1.4349999999999952      41.614999999999995                   40.18
    19   1      79.999999999999986                   40.18       43.04999999999999
    20   1      1.4349999999999952                   40.18      44.484999999999992
    21   1      1.4349999999999952      41.614999999999995       43.04999999999999
    22   1      1.4349999999999952       43.04999999999999       38.74499999999999
    23   1      79.999999999999986       43.04999999999999                   40.18
    24   1      1.4349999999999952       43.04999999999999      41.614999999999995
    25   1      1.4349999999999952      44.484999999999992                   40.18
    26   1      4.3049999999999926      33.004999999999995      37.309999999999988
    27   1      4.3049999999999926      33.004999999999995                   40.18
    28   1      4.3049999999999926      33.004999999999995       43.04999999999999
    29   1      2.8699999999999974      35.874999999999993      35.874999999999993
    30   1      4.3049999999999926      34.439999999999991      35.874999999999993
    31   1      4.3049999999999926      35.874999999999993      34.439999999999991
    32   1      2.8699999999999974      34.439999999999991      37.309999999999988
    33   1      2.8699999999999974      35.874999999999993       38.74499999999999
    34   1      4.3049999999999926      34.439999999999991       38.74499999999999
    35   1      4.3049999999999926      35.874999999999993      37.309999999999988
    36   1      2.8699999999999974      34.439999999999991                   40.18
    37   1      2.8699999999999974      35.874999999999993      41.614999999999995
    38   1      4.3049999999999926      34.439999999999991      41.614999999999995
    39   1      4.3049999999999926      35.874999999999993                   40.18
    40   1      2.8699999999999974      34.439999999999991       43.04999999999999
    41   1      2.8699999999999974      35.874999999999993      44.484999999999992
    42   1      4.3049999999999926      34.439999999999991      44.484999999999992
    43   1      4.3049999999999926      35.874999999999993       43.04999999999999
    44   1      4.3049999999999926      35.874999999999993      45.919999999999987
    45   1      4.3049999999999926      37.309999999999988      33.004999999999995
    46   1      2.8699999999999974      37.309999999999988      34.439999999999991
    47   1      2.8699999999999974       38.74499999999999      35.874999999999993
    48   1      4.3049999999999926      37.309999999999988      35.874999999999993
    49   1      4.3049999999999926       38.74499999999999      34.439999999999991
    50   1      2.8699999999999974      37.309999999999988      37.309999999999988
    51   1      2.8699999999999974       38.74499999999999       38.74499999999999
    52   1      4.3049999999999926      37.309999999999988       38.74499999999999
    53   1      4.3049999999999926       38.74499999999999      37.309999999999988
    54   1      2.8699999999999974      37.309999999999988                   40.18
    55   1      2.8699999999999974       38.74499999999999      41.614999999999995
    56   1      4.3049999999999926      37.309999999999988      41.614999999999995
    57   1      4.3049999999999926       38.74499999999999                   40.18
    58   1      2.8699999999999974      37.309999999999988       43.04999999999999
    59   1      2.8699999999999974       38.74499999999999      44.484999999999992
    60   1      4.3049999999999926      37.309999999999988      44.484999999999992
    61   1      4.3049999999999926       38.74499999999999       43.04999999999999
    62   1      2.8699999999999974      37.309999999999988      45.919999999999987
    63   1      4.3049999999999926      37.309999999999988       47.35499999999999
    64   1      4.3049999999999926       38.74499999999999      45.919999999999987
    65   1      4.3049999999999926                   40.18      33.004999999999995
    66   1      2.8699999999999974                   40.18      34.439999999999991
    67   1      2.8699999999999974      41.614999999999995      35.874999999999993
    68   1      4.3049999999999926                   40.18      35.874999999999993
    69   1      4.3049999999999926      41.614999999999995      34.439999999999991
    70   1      2.8699999999999974                   40.18      37.309999999999988
    71   1      2.8699999999999974      41.614999999999995       38.74499999999999
    72   1      4.3049999999999926                   40.18       38.74499999999999
    73   1      4.3049999999999926      41.614999999999995      37.309999999999988
    74   1      2.8699999999999974                   40.18                   40.18
    75   1      2.8699999999999974      41.614999999999995      41.614999999999995
    76   1      4.3049999999999926                   40.18      41.614999999999995
    77   1      4.3049999999999926      41.614999999999995                   40.18
    78   1      2.8699999999999974                   40.18       43.04999999999999
    79   1      2.8699999999999974      41.614999999999995      44.484999999999992
    80   1      4.3049999999999926                   40.18      44.484999999999992
    81   1      4.3049999999999926      41.614999999999995       43.04999999999999
    82   1      2.8699999999999974                   40.18      45.919999999999987
    83   1      4.3049999999999926                   40.18       47.35499999999999
    84   1      4.3049999999999926      41.614999999999995      45.919999999999987
    85   1      4.3049999999999926       43.04999999999999      33.004999999999995
    86   1      2.8699999999999974       43.04999999999999      34.439999999999991
    87   1      2.8699999999999974      44.484999999999992      35.874999999999993
    88   1      4.3049999999999926       43.04999999999999      35.874999999999993
    89   1      4.3049999999999926      44.484999999999992      34.439999999999991
    90   1      2.8699999999999974       43.04999999999999      37.309999999999988
    91   1      2.8699999999999974      44.484999999999992       38.74499999999999
    92   1      4.3049999999999926       43.04999999999999       38.74499999999999
    93   1      4.3049999999999926      44.484999999999992      37.309999999999988
    94   1      2.8699999999999974       43.04999999999999                   40.18
    95   1      2.8699999999999974      44.484999999999992      41.614999999999995
    96   1      4.3049999999999926       43.04999999999999      41.614999999999995
    97   1      4.3049999999999926      44.484999999999992                   40.18
    98   1      2.8699999999999974       43.04999999999999       43.04999999999999
    99   1      2.8699999999999974      44.484999999999992      44.484999999999992
   100   1      4.3049999999999926       43.04999999999999      44.484999999999992
   101   1      4.3049999999999926      44.484999999999992       43.04999999999999
   102   1      2.8699999999999974       43.04999999999999      45.919999999999987
   103   1      4.3049999999999926       43.04999999999999       47.35499999999999
   104   1      4.3049999999999926      44.484999999999992      45.919999999999987
   105   1      4.3049999999999926      45.919999999999987      35.874999999999993
   106   1      2.8699999999999974      45.919999999999987      37.309999999999988
   107   1      4.3049999999999926      45.919999999999987       38.74499999999999
   108   1      4.3049999999999926       47.35499999999999      37.309999999999988
   109   1      2.8699999999999974      45.919999999999987                   40.18
   110   1      4.3049999999999926      45.919999999999987      41.614999999999995
   111   1      4.3049999999999926       47.35499999999999                   40.18
   112   1      2.8699999999999974      45.919999999999987       43.04999999999999
   113   1      4.3049999999999926      45.919999999999987      44.484999999999992
   114   1      4.3049999999999926       47.35499999999999       43.04999999999999
   115   1       7.174999999999998      30.134999999999991      34.439999999999991
   116   1      5.7399999999999949      30.134999999999991       38.74499999999999
   117   1       7.174999999999998      28.699999999999992       38.74499999999999
   118   1       7.174999999999998      30.134999999999991      37.309999999999988
   119   1      5.7399999999999949      30.134999999999991      41.614999999999995
   120   1       7.174999999999998      28.699999999999992      41.614999999999995
   121   1       7.174999999999998      30.134999999999991                   40.18
   122   1       7.174999999999998      30.134999999999991       43.04999999999999
   123   1       7.174999999999998      30.134999999999991      45.919999999999987
   124   1      5.7399999999999949      33.004999999999995      33.004999999999995
   125   1       7.174999999999998      31.569999999999997      33.004999999999995
   126   1       7.174999999999998      33.004999999999995      31.569999999999997
   127   1      5.7399999999999949      31.569999999999997      34.439999999999991
   128   1      5.7399999999999949      33.004999999999995      35.874999999999993
   129   1       7.174999999999998      31.569999999999997      35.874999999999993
   130   1       7.174999999999998      33.004999999999995      34.439999999999991
   131   1      5.7399999999999949      31.569999999999997      37.309999999999988
   132   1      5.7399999999999949      33.004999999999995       38.74499999999999
   133   1       7.174999999999998      31.569999999999997       38.74499999999999
   134   1       7.174999999999998      33.004999999999995      37.309999999999988
   135   1      5.7399999999999949      31.569999999999997                   40.18
   136   1      5.7399999999999949      33.004999999999995      41.614999999999995
   137   1       7.174999999999998      31.569999999999997      41.614999999999995
   138   1       7.174999999999998      33.004999999999995                   40.18
   139   1      5.7399999999999949      31.569999999999997       43.04999999999999
   140   1      5.7399999999999949      33.004999999999995      44.484999999999992
   141   1       7.174999999999998      31.569999999999997      44.484999999999992
   142   1       7.174999999999998      33.004999999999995       43.04999999999999
   143   1      5.7399999999999949      31.569999999999997      45.919999999999987
   144   1      5.7399999999999949      33.004999999999995       47.35499999999999
   145   1       7.174999999999998      31.569999999999997       47.35499999999999
   146   1       7.174999999999998      33.004999999999995      45.919999999999987
   147   1       7.174999999999998      33.004999999999995      48.789999999999992
   148   1       7.174999999999998      34.439999999999991      30.134999999999991
   149   1      5.7399999999999949      34.439999999999991      31.569999999999997
   150   1      5.7399999999999949      35.874999999999993      33.004999999999995
   151   1       7.174999999999998      34.439999999999991      33.004999999999995
   152   1       7.174999999999998      35.874999999999993      31.569999999999997
   153   1      5.7399999999999949      34.439999999999991      34.439999999999991
   154   1      5.7399999999999949      35.874999999999993      35.874999999999993
   155   1       7.174999999999998      34.439999999999991      35.874999999999993
   156   1       7.174999999999998      35.874999999999993      34.439999999999991
   157   1      5.7399999999999949      34.439999999999991      37.309999999999988
   158   1      5.7399999999999949      35.874999999999993       38.74499999999999
   159   1       7.174999999999998      34.439999999999991       38.74499999999999
   160   1       7.174999999999998      35.874999999999993      37.309999999999988
   161   1      5.7399999999999949      34.439999999999991                   40.18
   162   1      5.7399999999999949      35.874999999999993      41.614999999999995
   163   1       7.174999999999998      34.439999999999991      41.614999999999995
   164   1       7.174999999999998      35.874999999999993                   40.18
   165   1      5.7399999999999949      34.439999999999991       43.04999999999999
   166   1      5.7399999999999949      35.874999999999993      44.484999999999992
   167   1       7.174999999999998      34.439999999999991      44.484999999999992
   168   1       7.174999999999998      35.874999999999993       43.04999999999999
   169   1      5.7399999999999949      34.439999999999991      45.919999999999987
   170   1      5.7399999999999949      35.874999999999993       47.35499999999999
   171   1       7.174999999999998      34.439999999999991       47.35499999999999
   172   1       7.174999999999998      35.874999999999993      45.919999999999987
   173   1      5.7399999999999949      34.439999999999991      48.789999999999992
   174   1       7.174999999999998      34.439999999999991      50.225000000000001
   175   1       7.174999999999998      35.874999999999993      48.789999999999992
   176   1      5.7399999999999949       38.74499999999999      30.134999999999991
   177   1       7.174999999999998      37.309999999999988      30.134999999999991
   178   1       7.174999999999998       38.74499999999999      28.699999999999992
   179   1      5.7399999999999949      37.309999999999988      31.569999999999997
   180   1      5.7399999999999949       38.74499999999999      33.004999999999995
   181   1       7.174999999999998      37.309999999999988      33.004999999999995
   182   1       7.174999999999998       38.74499999999999      31.569999999999997
   183   1      5.7399999999999949      37.309999999999988      34.439999999999991
   184   1      5.7399999999999949       38.74499999999999      35.874999999999993
   185   1       7.174999999999998      37.309999999999988      35.874999999999993
   186   1       7.174999999999998       38.74499999999999      34.439999999999991
   187   1      5.7399999999999949      37.309999999999988      37.309999999999988
   188   1      5.7399999999999949       38.74499999999999       38.74499999999999
   189   1       7.174999999999998      37.309999999999988       38.74499999999999
   190   1       7.174999999999998       38.74499999999999      37.309999999999988
   191   1      5.7399999999999949      37.309999999999988                   40.18
   192   1      5.7399999999999949       38.74499999999999      41.614999999999995
   193   1       7.174999999999998      37.309999999999988      41.614999999999995
   194   1       7.174999999999998       38.74499999999999                   40.18
   195   1      5.7399999999999949      37.309999999999988       43.04999999999999
   196   1      5.7399999999999949       38.74499999999999      44.484999999999992
   197   1       7.174999999999998      37.309999999999988      44.484999999999992
   198   1       7.174999999999998       38.74499999999999       43.04999999999999
   199   1      5.7399999999999949      37.309999999999988      45.919999999999987
   200   1      5.7399999999999949       38.74499999999999       47.35499999999999
   201   1       7.174999999999998      37.309999999999988       47.35499999999999
   202   1       7.174999999999998       38.74499999999999      45.919999999999987
   203   1      5.7399999999999949      37.309999999999988      48.789999999999992
   204   1      5.7399999999999949       38.74499999999999      50.225000000000001
   205   1       7.174999999999998      37.309999999999988      50.225000000000001
   206   1       7.174999999999998       38.74499999999999      48.789999999999992
   207   1       7.174999999999998       38.74499999999999      51.659999999999997
   208   1      5.7399999999999949      41.614999999999995      30.134999999999991
   209   1       7.174999999999998                   40.18      30.134999999999991
   210   1       7.174999999999998      41.614999999999995      28.699999999999992
   211   1      5.7399999999999949                   40.18      31.569999999999997
   212   1      5.7399999999999949      41.614999999999995      33.004999999999995
   213   1       7.174999999999998                   40.18      33.004999999999995
   214   1       7.174999999999998      41.614999999999995      31.569999999999997
   215   1      5.7399999999999949                   40.18      34.439999999999991
   216   1      5.7399999999999949      41.614999999999995      35.874999999999993
   217   1       7.174999999999998                   40.18      35.874999999999993
   218   1       7.174999999999998      41.614999999999995      34.439999999999991
   219   1      5.7399999999999949                   40.18      37.309999999999988
   220   1      5.7399999999999949      41.614999999999995       38.74499999999999
   221   1       7.174999999999998                   40.18       38.74499999999999
   222   1       7.174999999999998      41.614999999999995      37.309999999999988
   223   1      5.7399999999999949                   40.18                   40.18
   224   1      5.7399999999999949      41.614999999999995      41.614999999999995
   225   1       7.174999999999998                   40.18      41.614999999999995
   226   1       7.174999999999998      41.614999999999995                   40.18
   227   1      5.7399999999999949                   40.18       43.04999999999999
   228   1      5.7399999999999949      41.614999999999995      44.484999999999992
   229   1       7.174999999999998                   40.18      44.484999999999992
   230   1       7.174999999999998      41.614999999999995       43.04999999999999
   231   1      5.7399999999999949                   40.18      45.919999999999987
   232   1      5.7399999999999949      41.614999999999995       47.35499999999999
   233   1       7.174999999999998                   40.18       47.35499999999999
   234   1       7.174999999999998      41.614999999999995      45.919999999999987
   235   1      5.7399999999999949                   40.18      48.789999999999992
   236   1      5.7399999999999949      41.614999999999995      50.225000000000001
   237   1       7.174999999999998                   40.18      50.225000000000001
   238   1       7.174999999999998      41.614999999999995      48.789999999999992
   239   1       7.174999999999998      41.614999999999995      51.659999999999997
   240   1       7.174999999999998       43.04999999999999      30.134999999999991
   241   1      5.7399999999999949       43.04999999999999      31.569999999999997
   242   1      5.7399999999999949      44.484999999999992      33.004999999999995
   243   1       7.174999999999998       43.04999999999999      33.004999999999995
   244   1       7.174999999999998      44.484999999999992      31.569999999999997
   245   1      5.7399999999999949       43.04999999999999      34.439999999999991
   246   1      5.7399999999999949      44.484999999999992      35.874999999999993
   247   1       7.174999999999998       43.04999999999999      35.874999999999993
   248   1       7.174999999999998      44.484999999999992      34.439999999999991
   249   1      5.7399999999999949       43.04999999999999      37.309999999999988
   250   1      5.7399999999999949      44.484999999999992       38.74499999999999
   251   1       7.174999999999998       43.04999999999999       38.74499999999999
   252   1       7.174999999999998      44.484999999999992      37.309999999999988
   253   1      5.7399999999999949       43.04999999999999                   40.18
   254   1      5.7399999999999949      44.484999999999992      41.614999999999995
   255   1       7.174999999999998       43.04999999999999      41.614999999999995
   256   1       7.174999999999998      44.484999999999992                   40.18
   257   1      5.7399999999999949       43.04999999999999       43.04999999999999
   258   1      5.7399999999999949      44.484999999999992      44.484999999999992
   259   1       7.174999999999998       43.04999999999999      44.484999999999992
   260   1       7.174999999999998      44.484999999999992       43.04999999999999
   261   1      5.7399999999999949       43.04999999999999      45.919999999999987
   262   1      5.7399999999999949      44.484999999999992       47.35499999999999
   263   1       7.174999999999998       43.04999999999999       47.35499999999999
   264   1       7.174999999999998      44.484999999999992      45.919999999999987
   265   1      5.7399999999999949       43.04999999999999      48.789999999999992
   266   1       7.174999999999998       43.04999999999999      50.225000000000001
   267   1       7.174999999999998      44.484999999999992      48.789999999999992
   268   1       7.174999999999998      45.919999999999987      30.134999999999991
   269   1      5.7399999999999949      45.919999999999987      31.569999999999997
   270   1      5.7399999999999949       47.35499999999999      33.004999999999995
   271   1       7.174999999999998      45.919999999999987      33.004999999999995
   272   1       7.174999999999998       47.35499999999999      31.569999999999997
   273   1      5.7399999999999949      45.919999999999987      34.439999999999991
   274   1      5.7399999999999949       47.35499999999999      35.874999999999993
   275   1       7.174999999999998      45.919999999999987      35.874999999999993
   276   1       7.174999999999998       47.35499999999999      34.439999999999991
   277   1      5.7399999999999949      45.919999999999987      37.309999999999988
   278   1      5.7399999999999949       47.35499999999999       38.74499999999999
   279   1       7.174999999999998      45.919999999999987       38.74499999999999
   280   1       7.174999999999998       47.35499999999999      37.309999999999988
   281   1      5.7399999999999949      45.919999999999987                   40.18
   282   1      5.7399999999999949       47.35499999999999      41.614999999999995
   283   1       7.174999999999998      45.919999999999987      41.614999999999995
   284   1       7.174999999999998       47.35499999999999                   40.18
   285   1      5.7399999999999949      45.919999999999987       43.04999999999999
   286   1      5.7399999999999949       47.35499999999999      44.484999999999992
   287   1       7.174999999999998      45.919999999999987      44.484999999999992
   288   1       7.174999999999998       47.35499999999999       43.04999999999999
   289   1      5.7399999999999949      45.919999999999987      45.919999999999987
   290   1      5.7399999999999949       47.35499999999999       47.35499999999999
   291   1       7.174999999999998      45.919999999999987       47.35499999999999
   292   1       7.174999999999998       47.35499999999999      45.919999999999987
   293   1      5.7399999999999949      45.919999999999987      48.789999999999992
   294   1       7.174999999999998      45.919999999999987      50.225000000000001
   295   1       7.174999999999998       47.35499999999999      48.789999999999992
   296   1       7.174999999999998      48.789999999999992      33.004999999999995
   297   1      5.7399999999999949      48.789999999999992      34.439999999999991
   298   1       7.174999999999998      48.789999999999992      35.874999999999993
   299   1       7.174999999999998      50.225000000000001      34.439999999999991
   300   1      5.7399999999999949      48.789999999999992      37.309999999999988
   301   1      5.7399999999999949      50.225000000000001       38.74499999999999
   302   1       7.174999999999998      48.789999999999992       38.74499999999999
   303   1       7.174999999999998      50.225000000000001      37.309999999999988
   304   1      5.7399999999999949      48.789999999999992                   40.18
   305   1      5.7399999999999949      50.225000000000001      41.614999999999995
   306   1       7.174999999999998      48.789999999999992      41.614999999999995
   307   1       7.174999999999998      50.225000000000001                   40.18
   308   1      5.7399999999999949      48.789999999999992       43.04999999999999
   309   1       7.174999999999998      48.789999999999992      44.484999999999992
   310   1       7.174999999999998      50.225000000000001       43.04999999999999
   311   1      5.7399999999999949      48.789999999999992      45.919999999999987
   312   1       7.174999999999998      48.789999999999992       47.35499999999999
   313   1       7.174999999999998      50.225000000000001      45.919999999999987
   314   1       7.174999999999998      51.659999999999997       38.74499999999999
   315   1       7.174999999999998      51.659999999999997      41.614999999999995
   316   1      10.044999999999995      24.394999999999992                   40.18
   317   1      10.044999999999995      27.264999999999993      31.569999999999997
   318   1      8.6099999999999923      27.264999999999993      35.874999999999993
   319   1      10.044999999999995      25.829999999999991      35.874999999999993
   320   1      10.044999999999995      27.264999999999993      34.439999999999991
   321   1      8.6099999999999923      27.264999999999993       38.74499999999999
   322   1      10.044999999999995      25.829999999999991       38.74499999999999
   323   1      10.044999999999995      27.264999999999993      37.309999999999988
   324   1      8.6099999999999923      25.829999999999991                   40.18
   325   1      8.6099999999999923      27.264999999999993      41.614999999999995
   326   1      10.044999999999995      25.829999999999991      41.614999999999995
   327   1      10.044999999999995      27.264999999999993                   40.18
   328   1      8.6099999999999923      27.264999999999993      44.484999999999992
   329   1      10.044999999999995      25.829999999999991      44.484999999999992
   330   1      10.044999999999995      27.264999999999993       43.04999999999999
   331   1      10.044999999999995      27.264999999999993      45.919999999999987
   332   1      10.044999999999995      27.264999999999993      48.789999999999992
   333   1      8.6099999999999923      30.134999999999991      30.134999999999991
   334   1      10.044999999999995      28.699999999999992      30.134999999999991
   335   1      10.044999999999995      30.134999999999991      28.699999999999992
   336   1      8.6099999999999923      28.699999999999992      31.569999999999997
   337   1      8.6099999999999923      30.134999999999991      33.004999999999995
   338   1      10.044999999999995      28.699999999999992      33.004999999999995
   339   1      10.044999999999995      30.134999999999991      31.569999999999997
   340   1      8.6099999999999923      28.699999999999992      34.439999999999991
   341   1      8.6099999999999923      30.134999999999991      35.874999999999993
   342   1      10.044999999999995      28.699999999999992      35.874999999999993
   343   1      10.044999999999995      30.134999999999991      34.439999999999991
   344   1      8.6099999999999923      28.699999999999992      37.309999999999988
   345   1      8.6099999999999923      30.134999999999991       38.74499999999999
   346   1      10.044999999999995      28.699999999999992       38.74499999999999
   347   1      10.044999999999995      30.134999999999991      37.309999999999988
   348   1      8.6099999999999923      28.699999999999992                   40.18
   349   1      8.6099999999999923      30.134999999999991      41.614999999999995
   350   1      10.044999999999995      28.699999999999992      41.614999999999995
   351   1      10.044999999999995      30.134999999999991                   40.18
   352   1      8.6099999999999923      28.699999999999992       43.04999999999999
   353   1      8.6099999999999923      30.134999999999991      44.484999999999992
   354   1      10.044999999999995      28.699999999999992      44.484999999999992
   355   1      10.044999999999995      30.134999999999991       43.04999999999999
   356   1      8.6099999999999923      28.699999999999992      45.919999999999987
   357   1      8.6099999999999923      30.134999999999991       47.35499999999999
   358   1      10.044999999999995      28.699999999999992       47.35499999999999