model_files/PdNi/PdNi_30000/PdNi_211/PdNi_211_fcc_30069_temp.data (written by ASE) 

30069 	 atoms 
2  atom types
0.0                     104  xlo xhi
0.0                     104  ylo yhi
0.0                     104  zlo zhi


Atoms 

     1   1      1.8625000000000043      50.287500000000001      52.150000000000013
     2   1      1.8625000000000043      52.150000000000013      50.287500000000001
     3   1  7.1054273576010019e-15      52.150000000000013      52.150000000000013
     4   1      1.8625000000000043      52.150000000000013       54.01250000000001
     5   1      1.8625000000000043       54.01250000000001      52.150000000000013
     6   1      5.5875000000000057      42.837500000000006      52.150000000000013
     7   1      3.7250000000000085      46.562500000000014      50.287500000000001
     8   1      5.5875000000000057      44.700000000000017      50.287500000000001
     9   1      5.5875000000000057      46.562500000000014      48.425000000000004
    10   1      3.7250000000000085      44.700000000000017      52.150000000000013
    11   1      3.7250000000000085      46.562500000000014       54.01250000000001
    12   1      5.5875000000000057      44.700000000000017       54.01250000000001
    13   1      5.5875000000000057      46.562500000000014      52.150000000000013
    14   1      5.5875000000000057      46.562500000000014      55.875000000000014
    15   1      3.7250000000000085      50.287500000000001      46.562500000000014
    16   1      5.5875000000000057      48.425000000000004      46.562500000000014
    17   1      5.5875000000000057      50.287500000000001      44.700000000000017
    18   1      3.7250000000000085      48.425000000000004      48.425000000000004
    19   1      3.7250000000000085      50.287500000000001      50.287500000000001
    20   1      5.5875000000000057      48.425000000000004      50.287500000000001
    21   1      5.5875000000000057      50.287500000000001      48.425000000000004
    22   1      3.7250000000000085      48.425000000000004      52.150000000000013
    23   1      3.7250000000000085      50.287500000000001       54.01250000000001
    24   1      5.5875000000000057      48.425000000000004       54.01250000000001
    25   1      5.5875000000000057      50.287500000000001      52.150000000000013
    26   1      3.7250000000000085      48.425000000000004      55.875000000000014
    27   1      3.7250000000000085      50.287500000000001      57.737500000000011
    28   1      5.5875000000000057      48.425000000000004      57.737500000000011
    29   1      5.5875000000000057      50.287500000000001      55.875000000000014
    30   1      5.5875000000000057      50.287500000000001      59.600000000000009
    31   1      5.5875000000000057      52.150000000000013      42.837500000000006
    32   1      3.7250000000000085      52.150000000000013      44.700000000000017
    33   1      3.7250000000000085       54.01250000000001      46.562500000000014
    34   1      5.5875000000000057      52.150000000000013      46.562500000000014
    35   1      5.5875000000000057       54.01250000000001      44.700000000000017
    36   1      3.7250000000000085      52.150000000000013      48.425000000000004
    37   1      3.7250000000000085       54.01250000000001      50.287500000000001
    38   1      5.5875000000000057      52.150000000000013      50.287500000000001
    39   1      5.5875000000000057       54.01250000000001      48.425000000000004
    40   1      3.7250000000000085      52.150000000000013      52.150000000000013
    41   1      3.7250000000000085       54.01250000000001       54.01250000000001
    42   1      5.5875000000000057      52.150000000000013       54.01250000000001
    43   1      5.5875000000000057       54.01250000000001      52.150000000000013
    44   1      3.7250000000000085      52.150000000000013      55.875000000000014
    45   1      3.7250000000000085       54.01250000000001      57.737500000000011
    46   1      5.5875000000000057      52.150000000000013      57.737500000000011
    47   1      5.5875000000000057       54.01250000000001      55.875000000000014
    48   1      3.7250000000000085      52.150000000000013      59.600000000000009
    49   1      5.5875000000000057      52.150000000000013      61.462500000000006
    50   1      5.5875000000000057       54.01250000000001      59.600000000000009
    51   1      5.5875000000000057      55.875000000000014      46.562500000000014
    52   1      3.7250000000000085      55.875000000000014      48.425000000000004
    53   1      3.7250000000000085      57.737500000000011      50.287500000000001
    54   1      5.5875000000000057      55.875000000000014      50.287500000000001
    55   1      5.5875000000000057      57.737500000000011      48.425000000000004
    56   1      3.7250000000000085      55.875000000000014      52.150000000000013
    57   1      3.7250000000000085      57.737500000000011       54.01250000000001
    58   1      5.5875000000000057      55.875000000000014       54.01250000000001
    59   1      5.5875000000000057      57.737500000000011      52.150000000000013
    60   1      3.7250000000000085      55.875000000000014      55.875000000000014
    61   1      5.5875000000000057      55.875000000000014      57.737500000000011
    62   1      5.5875000000000057      57.737500000000011      55.875000000000014
    63   1      5.5875000000000057      59.600000000000009      50.287500000000001
    64   1      3.7250000000000085      59.600000000000009      52.150000000000013
    65   1      5.5875000000000057      59.600000000000009       54.01250000000001
    66   1      5.5875000000000057      61.462500000000006      52.150000000000013
    67   1      9.3125000000000071      35.387500000000003      52.150000000000013
    68   1      7.4500000000000037      39.112500000000011      50.287500000000001
    69   1      9.3125000000000071      37.250000000000014      50.287500000000001
    70   1      9.3125000000000071      39.112500000000011      48.425000000000004
    71   1      7.4500000000000037      37.250000000000014      52.150000000000013
    72   1      7.4500000000000037      39.112500000000011       54.01250000000001
    73   1      9.3125000000000071      37.250000000000014       54.01250000000001
    74   1      9.3125000000000071      39.112500000000011      52.150000000000013
    75   1      9.3125000000000071      39.112500000000011      55.875000000000014
    76   1      7.4500000000000037      42.837500000000006      46.562500000000014
    77   1      9.3125000000000071      40.975000000000009      46.562500000000014
    78   1      9.3125000000000071      42.837500000000006      44.700000000000017
    79   1      7.4500000000000037      40.975000000000009      48.425000000000004
    80   1      7.4500000000000037      42.837500000000006      50.287500000000001
    81   1      9.3125000000000071      40.975000000000009      50.287500000000001
    82   1      9.3125000000000071      42.837500000000006      48.425000000000004
    83   1      7.4500000000000037      40.975000000000009      52.150000000000013
    84   1      7.4500000000000037      42.837500000000006       54.01250000000001
    85   1      9.3125000000000071      40.975000000000009       54.01250000000001
    86   1      9.3125000000000071      42.837500000000006      52.150000000000013
    87   1      7.4500000000000037      40.975000000000009      55.875000000000014
    88   1      7.4500000000000037      42.837500000000006      57.737500000000011
    89   1      9.3125000000000071      40.975000000000009      57.737500000000011
    90   1      9.3125000000000071      42.837500000000006      55.875000000000014
    91   1      9.3125000000000071      42.837500000000006      59.600000000000009
    92   1      7.4500000000000037      46.562500000000014      42.837500000000006
    93   1      9.3125000000000071      44.700000000000017      42.837500000000006
    94   1      9.3125000000000071      46.562500000000014      40.975000000000009
    95   1      7.4500000000000037      44.700000000000017      44.700000000000017
    96   1      7.4500000000000037      46.562500000000014      46.562500000000014
    97   1      9.3125000000000071      44.700000000000017      46.562500000000014
    98   1      9.3125000000000071      46.562500000000014      44.700000000000017
    99   1      7.4500000000000037      44.700000000000017      48.425000000000004
   100   1      7.4500000000000037      46.562500000000014      50.287500000000001
   101   1      9.3125000000000071      44.700000000000017      50.287500000000001
   102   1      9.3125000000000071      46.562500000000014      48.425000000000004
   103   1      7.4500000000000037      44.700000000000017      52.150000000000013
   104   1      7.4500000000000037      46.562500000000014       54.01250000000001
   105   1      9.3125000000000071      44.700000000000017       54.01250000000001
   106   1      9.3125000000000071      46.562500000000014      52.150000000000013
   107   1      7.4500000000000037      44.700000000000017      55.875000000000014
   108   1      7.4500000000000037      46.562500000000014      57.737500000000011
   109   1      9.3125000000000071      44.700000000000017      57.737500000000011
   110   1      9.3125000000000071      46.562500000000014      55.875000000000014
   111   1      7.4500000000000037      44.700000000000017      59.600000000000009
   112   1      7.4500000000000037      46.562500000000014      61.462500000000006
   113   1      9.3125000000000071      44.700000000000017      61.462500000000006
   114   1      9.3125000000000071      46.562500000000014      59.600000000000009
   115   1      9.3125000000000071      46.562500000000014       63.32500000000001
   116   1      7.4500000000000037      50.287500000000001      39.112500000000011
   117   1      9.3125000000000071      48.425000000000004      39.112500000000011
   118   1      9.3125000000000071      50.287500000000001      37.250000000000014
   119   1      7.4500000000000037      48.425000000000004      40.975000000000009
   120   1      7.4500000000000037      50.287500000000001      42.837500000000006
   121   1      9.3125000000000071      48.425000000000004      42.837500000000006
   122   1      9.3125000000000071      50.287500000000001      40.975000000000009
   123   1      7.4500000000000037      48.425000000000004      44.700000000000017
   124   1      7.4500000000000037      50.287500000000001      46.562500000000014
   125   1      9.3125000000000071      48.425000000000004      46.562500000000014
   126   1      9.3125000000000071      50.287500000000001      44.700000000000017
   127   1      7.4500000000000037      48.425000000000004      48.425000000000004
   128   1      7.4500000000000037      50.287500000000001      50.287500000000001
   129   1      9.3125000000000071      48.425000000000004      50.287500000000001
   130   1      9.3125000000000071      50.287500000000001      48.425000000000004
   131   1      7.4500000000000037      48.425000000000004      52.150000000000013
   132   1      7.4500000000000037      50.287500000000001       54.01250000000001
   133   1      9.3125000000000071      48.425000000000004       54.01250000000001
   134   1      9.3125000000000071      50.287500000000001      52.150000000000013
   135   1      7.4500000000000037      48.425000000000004      55.875000000000014
   136   1      7.4500000000000037      50.287500000000001      57.737500000000011
   137   1      9.3125000000000071      48.425000000000004      57.737500000000011
   138   1      9.3125000000000071      50.287500000000001      55.875000000000014
   139   1      7.4500000000000037      48.425000000000004      59.600000000000009
   140   1      7.4500000000000037      50.287500000000001      61.462500000000006
   141   1      9.3125000000000071      48.425000000000004      61.462500000000006
   142   1      9.3125000000000071      50.287500000000001      59.600000000000009
   143   1      7.4500000000000037      48.425000000000004       63.32500000000001
   144   1      7.4500000000000037      50.287500000000001      65.187500000000014
   145   1      9.3125000000000071      48.425000000000004      65.187500000000014
   146   1      9.3125000000000071      50.287500000000001       63.32500000000001
   147   1      9.3125000000000071      50.287500000000001      67.050000000000011
   148   1      9.3125000000000071      52.150000000000013      35.387500000000003
   149   1      7.4500000000000037      52.150000000000013      37.250000000000014
   150   1      7.4500000000000037       54.01250000000001      39.112500000000011
   151   1      9.3125000000000071      52.150000000000013      39.112500000000011
   152   1      9.3125000000000071       54.01250000000001      37.250000000000014
   153   1      7.4500000000000037      52.150000000000013      40.975000000000009
   154   1      7.4500000000000037       54.01250000000001      42.837500000000006
   155   1      9.3125000000000071      52.150000000000013      42.837500000000006
   156   1      9.3125000000000071       54.01250000000001      40.975000000000009
   157   1      7.4500000000000037      52.150000000000013      44.700000000000017
   158   1      7.4500000000000037       54.01250000000001      46.562500000000014
   159   1      9.3125000000000071      52.150000000000013      46.562500000000014
   160   1      9.3125000000000071       54.01250000000001      44.700000000000017
   161   1      7.4500000000000037      52.150000000000013      48.425000000000004
   162   1      7.4500000000000037       54.01250000000001      50.287500000000001
   163   1      9.3125000000000071      52.150000000000013      50.287500000000001
   164   1      9.3125000000000071       54.01250000000001      48.425000000000004
   165   1      7.4500000000000037      52.150000000000013      52.150000000000013
   166   1      7.4500000000000037       54.01250000000001       54.01250000000001
   167   1      9.3125000000000071      52.150000000000013       54.01250000000001
   168   1      9.3125000000000071       54.01250000000001      52.150000000000013
   169   1      7.4500000000000037      52.150000000000013      55.875000000000014
   170   1      7.4500000000000037       54.01250000000001      57.737500000000011
   171   1      9.3125000000000071      52.150000000000013      57.737500000000011
   172   1      9.3125000000000071       54.01250000000001      55.875000000000014
   173   1      7.4500000000000037      52.150000000000013      59.600000000000009
   174   1      7.4500000000000037       54.01250000000001      61.462500000000006
   175   1      9.3125000000000071      52.150000000000013      61.462500000000006
   176   1      9.3125000000000071       54.01250000000001      59.600000000000009
   177   1      7.4500000000000037      52.150000000000013       63.32500000000001
   178   1      7.4500000000000037       54.01250000000001      65.187500000000014
   179   1      9.3125000000000071      52.150000000000013      65.187500000000014
   180   1      9.3125000000000071       54.01250000000001       63.32500000000001
   181   1      7.4500000000000037      52.150000000000013      67.050000000000011
   182   1      9.3125000000000071      52.150000000000013      68.912500000000009
   183   1      9.3125000000000071       54.01250000000001      67.050000000000011
   184   1      9.3125000000000071      55.875000000000014      39.112500000000011
   185   1      7.4500000000000037      55.875000000000014      40.975000000000009
   186   1      7.4500000000000037      57.737500000000011      42.837500000000006
   187   1      9.3125000000000071      55.875000000000014      42.837500000000006
   188   1      9.3125000000000071      57.737500000000011      40.975000000000009
   189   1      7.4500000000000037      55.875000000000014      44.700000000000017
   190   1      7.4500000000000037      57.737500000000011      46.562500000000014
   191   1      9.3125000000000071      55.875000000000014      46.562500000000014
   192   1      9.3125000000000071      57.737500000000011      44.700000000000017
   193   1      7.4500000000000037      55.875000000000014      48.425000000000004
   194   1      7.4500000000000037      57.737500000000011      50.287500000000001
   195   1      9.3125000000000071      55.875000000000014      50.287500000000001
   196   1      9.3125000000000071      57.737500000000011      48.425000000000004
   197   1      7.4500000000000037      55.875000000000014      52.150000000000013
   198   1      7.4500000000000037      57.737500000000011       54.01250000000001
   199   1      9.3125000000000071      55.875000000000014       54.01250000000001
   200   1      9.3125000000000071      57.737500000000011      52.150000000000013
   201   1      7.4500000000000037      55.875000000000014      55.875000000000014
   202   1      7.4500000000000037      57.737500000000011      57.737500000000011
   203   1      9.3125000000000071      55.875000000000014      57.737500000000011
   204   1      9.3125000000000071      57.737500000000011      55.875000000000014
   205   1      7.4500000000000037      55.875000000000014      59.600000000000009
   206   1      7.4500000000000037      57.737500000000011      61.462500000000006
   207   1      9.3125000000000071      55.875000000000014      61.462500000000006
   208   1      9.3125000000000071      57.737500000000011      59.600000000000009
   209   1      7.4500000000000037      55.875000000000014       63.32500000000001
   210   1      9.3125000000000071      55.875000000000014      65.187500000000014
   211   1      9.3125000000000071      57.737500000000011       63.32500000000001
   212   1      9.3125000000000071      59.600000000000009      42.837500000000006
   213   1      7.4500000000000037      59.600000000000009      44.700000000000017
   214   1      7.4500000000000037      61.462500000000006      46.562500000000014
   215   1      9.3125000000000071      59.600000000000009      46.562500000000014
   216   1      9.3125000000000071      61.462500000000006      44.700000000000017
   217   1      7.4500000000000037      59.600000000000009      48.425000000000004
   218   1      7.4500000000000037      61.462500000000006      50.287500000000001
   219   1      9.3125000000000071      59.600000000000009      50.287500000000001
   220   1      9.3125000000000071      61.462500000000006      48.425000000000004
   221   1      7.4500000000000037      59.600000000000009      52.150000000000013
   222   1      7.4500000000000037      61.462500000000006       54.01250000000001
   223   1      9.3125000000000071      59.600000000000009       54.01250000000001
   224   1      9.3125000000000071      61.462500000000006      52.150000000000013
   225   1      7.4500000000000037      59.600000000000009      55.875000000000014
   226   1      7.4500000000000037      61.462500000000006      57.737500000000011
   227   1      9.3125000000000071      59.600000000000009      57.737500000000011
   228   1      9.3125000000000071      61.462500000000006      55.875000000000014
   229   1      7.4500000000000037      59.600000000000009      59.600000000000009
   230   1      9.3125000000000071      59.600000000000009      61.462500000000006
   231   1      9.3125000000000071      61.462500000000006      59.600000000000009
   232   1      9.3125000000000071       63.32500000000001      46.562500000000014
   233   1      7.4500000000000037       63.32500000000001      48.425000000000004
   234   1      7.4500000000000037      65.187500000000014      50.287500000000001
   235   1      9.3125000000000071       63.32500000000001      50.287500000000001
   236   1      9.3125000000000071      65.187500000000014      48.425000000000004
   237   1      7.4500000000000037       63.32500000000001      52.150000000000013
   238   1      7.4500000000000037      65.187500000000014       54.01250000000001
   239   1      9.3125000000000071       63.32500000000001       54.01250000000001
   240   1      9.3125000000000071      65.187500000000014      52.150000000000013
   241   1      7.4500000000000037       63.32500000000001      55.875000000000014
   242   1      9.3125000000000071       63.32500000000001      57.737500000000011
   243   1      9.3125000000000071      65.187500000000014      55.875000000000014
   244   1      9.3125000000000071      67.050000000000011      50.287500000000001
   245   1      7.4500000000000037      67.050000000000011      52.150000000000013
   246   1      9.3125000000000071      67.050000000000011       54.01250000000001
   247   1      9.3125000000000071      68.912500000000009      52.150000000000013
   248   1      13.037500000000009      27.937500000000007      52.150000000000013
   249   1      11.175000000000004      31.662500000000005      50.287500000000001
   250   1      13.037500000000009      29.800000000000004      50.287500000000001
   251   1      13.037500000000009      31.662500000000005      48.425000000000004
   252   1      11.175000000000004      29.800000000000004      52.150000000000013
   253   1      11.175000000000004      31.662500000000005       54.01250000000001
   254   1      13.037500000000009      29.800000000000004       54.01250000000001
   255   1      13.037500000000009      31.662500000000005      52.150000000000013
   256   1      13.037500000000009      31.662500000000005      55.875000000000014
   257   1      11.175000000000004      35.387500000000003      46.562500000000014
   258   1      13.037500000000009      33.525000000000006      46.562500000000014
   259   1      13.037500000000009      35.387500000000003      44.700000000000017
   260   1      11.175000000000004      33.525000000000006      48.425000000000004
   261   1      11.175000000000004      35.387500000000003      50.287500000000001
   262   1      13.037500000000009      33.525000000000006      50.287500000000001
   263   1      13.037500000000009      35.387500000000003      48.425000000000004
   264   1      11.175000000000004      33.525000000000006      52.150000000000013
   265   1      11.175000000000004      35.387500000000003       54.01250000000001
   266   1      13.037500000000009      33.525000000000006       54.01250000000001
   267   1      13.037500000000009      35.387500000000003      52.150000000000013
   268   1      11.175000000000004      33.525000000000006      55.875000000000014
   269   1      11.175000000000004      35.387500000000003      57.737500000000011
   270   1      13.037500000000009      33.525000000000006      57.737500000000011
   271   1      13.037500000000009      35.387500000000003      55.875000000000014
   272   1      13.037500000000009      35.387500000000003      59.600000000000009
   273   1      11.175000000000004      39.112500000000011      42.837500000000006
   274   1      13.037500000000009      37.250000000000014      42.837500000000006
   275   1      13.037500000000009      39.112500000000011      40.975000000000009
   276   1      11.175000000000004      37.250000000000014      44.700000000000017
   277   1      11.175000000000004      39.112500000000011      46.562500000000014
   278   1      13.037500000000009      37.250000000000014      46.562500000000014
   279   1      13.037500000000009      39.112500000000011      44.700000000000017
   280   1      11.175000000000004      37.250000000000014      48.425000000000004
   281   1      11.175000000000004      39.112500000000011      50.287500000000001
   282   1      13.037500000000009      37.250000000000014      50.287500000000001
   283   1      13.037500000000009      39.112500000000011      48.425000000000004
   284   1      11.175000000000004      37.250000000000014      52.150000000000013
   285   1      11.175000000000004      39.112500000000011       54.01250000000001
   286   1      13.037500000000009      37.250000000000014       54.01250000000001
   287   1      13.037500000000009      39.112500000000011      52.150000000000013
   288   1      11.175000000000004      37.250000000000014      55.875000000000014
   289   1      11.175000000000004      39.112500000000011      57.737500000000011
   290   1      13.037500000000009      37.250000000000014      57.737500000000011
   291   1      13.037500000000009      39.112500000000011      55.875000000000014
   292   1      11.175000000000004      37.250000000000014      59.600000000000009
   293   1      11.175000000000004      39.112500000000011      61.462500000000006
   294   1      13.037500000000009      37.250000000000014      61.462500000000006
   295   1      13.037500000000009      39.112500000000011      59.600000000000009
   296   1      13.037500000000009      39.112500000000011       63.32500000000001
   297   1      11.175000000000004      42.837500000000006      39.112500000000011
   298   1      13.037500000000009      40.975000000000009      39.112500000000011
   299   1      13.037500000000009      42.837500000000006      37.250000000000014
   300   1      11.175000000000004      40.975000000000009      40.975000000000009
   301   1      11.175000000000004      42.837500000000006      42.837500000000006
   302   1      13.037500000000009      40.975000000000009      42.837500000000006
   303   1      13.037500000000009      42.837500000000006      40.975000000000009
   304   1      11.175000000000004      40.975000000000009      44.700000000000017
   305   1      11.175000000000004      42.837500000000006      46.562500000000014
   306   1      13.037500000000009      40.975000000000009      46.562500000000014
   307   1      13.037500000000009      42.837500000000006      44.700000000000017
   308   1      11.175000000000004      40.975000000000009      48.425000000000004
   309   1      11.175000000000004      42.837500000000006      50.287500000000001
   310   1      13.037500000000009      40.975000000000009      50.287500000000001
   311   1      13.037500000000009      42.837500000000006      48.425000000000004
   312   1      11.175000000000004      40.975000000000009      52.150000000000013
   313   1      11.175000000000004      42.837500000000006       54.01250000000001
   314   1      13.037500000000009      40.975000000000009       54.01250000000001
   315   1      13.037500000000009      42.837500000000006      52.150000000000013
   316   1      11.175000000000004      40.975000000000009      55.875000000000014
   317   1      11.175000000000004      42.837500000000006      57.737500000000011
   318   1      13.037500000000009      40.975000000000009      57.737500000000011
   319   1      13.037500000000009      42.837500000000006      55.875000000000014
   320   1      11.175000000000004      40.975000000000009      59.600000000000009
   321   1      11.175000000000004      42.837500000000006      61.462500000000006
   322   1      13.037500000000009      40.975000000000009      61.462500000000006
   323   1      13.037500000000009      42.837500000000006      59.600000000000009
   324   1      11.175000000000004      40.975000000000009       63.32500000000001
   325   1      11.175000000000004      42.837500000000006      65.187500000000014
   326   1      13.037500000000009      40.975000000000009      65.187500000000014
   327   1      13.037500000000009      42.837500000000006       63.32500000000001
   328   1      13.037500000000009      42.837500000000006      67.050000000000011
   329   1      11.175000000000004      46.562500000000014      35.387500000000003
   330   1      13.037500000000009      44.700000000000017      35.387500000000003
   331   1      13.037500000000009      46.562500000000014      33.525000000000006
   332   1      11.175000000000004      44.700000000000017      37.250000000000014
   333   1      11.175000000000004      46.562500000000014      39.112500000000011
   334   1      13.037500000000009      44.700000000000017      39.112500000000011
   335   1      13.037500000000009      46.562500000000014      37.250000000000014
   336   1      11.175000000000004      44.700000000000017      40.975000000000009
   337   1      11.175000000000004      46.562500000000014      42.837500000000006
   338   1      13.037500000000009      44.700000000000017      42.837500000000006
   339   1      13.037500000000009      46.562500000000014      40.975000000000009
   340   1      11.175000000000004      44.700000000000017      44.700000000000017
   341   1      11.175000000000004      46.562500000000014      46.562500000000014
   342   1      13.037500000000009      44.700000000000017      46.562500000000014
   343   1      13.037500000000009      46.562500000000014      44.700000000000017
   344   1      11.175000000000004      44.700000000000017      48.425000000000004
   345   1      11.175000000000004      46.562500000000014      50.287500000000001
   346   1      13.037500000000009      44.700000000000017      50.287500000000001
   347   1      13.037500000000009      46.562500000000014      48.425000000000004
   348   1      11.175000000000004      44.700000000000017      52.150000000000013
   349   1      11.175000000000004      46.562500000000014       54.01250000000001
   350   1      13.037500000000009      44.700000000000017       54.01250000000001
   351   1      13.037500000000009      46.562500000000014      52.150000000000013
   352   1      11.175000000000004      44.700000000000017      55.875000000000014
   353   1      11.175000000000004      46.562500000000014      57.737500000000011
   354   1      13.037500000000009      44.700000000000017      57.737500000000011
   355   1      13.037500000000009      46.562500000000014      55.875000000000014
   356   1      11.175000000000004      44.700000000000017      59.600000000000009
   357   1      11.175000000000004      46.562500000000014      61.462500000000006
   358   1      13.037500000000009      44.700000000000017      61.462500000000006