LAMMPS data file via write_data, version 30 Nov 2020, timestep = 0

31263 atoms
5 atom types

0 108 xlo xhi
0 108 ylo yhi
0 108 zlo zhi

Masses

1 58.7
2 55.8
3 52
4 59
5 26

Atoms # atomic

1 3 0 52.345 52.345 0 0 0
2 5 1.8049999999999997 50.53999999999999 52.345 0 0 0
3 2 1.8049999999999997 52.345 50.53999999999999 0 0 0
18 5 3.6099999999999994 48.735 48.735 0 0 0
19 4 5.414999999999999 46.92999999999999 48.735 0 0 0
20 5 5.414999999999999 48.735 46.92999999999999 0 0 0
21 5 3.6099999999999994 48.735 52.345 0 0 0
22 2 5.414999999999999 46.92999999999999 52.345 0 0 0
23 5 5.414999999999999 48.735 50.53999999999999 0 0 0
31 2 3.6099999999999994 52.345 48.735 0 0 0
32 1 5.414999999999999 50.53999999999999 48.735 0 0 0
33 3 5.414999999999999 52.345 46.92999999999999 0 0 0
34 1 3.6099999999999994 50.53999999999999 50.53999999999999 0 0 0
35 2 3.6099999999999994 52.345 52.345 0 0 0
36 2 5.414999999999999 50.53999999999999 52.345 0 0 0
37 2 5.414999999999999 52.345 50.53999999999999 0 0 0
83 1 7.219999999999999 45.125 45.125 0 0 0
84 5 9.024999999999999 43.32 45.125 0 0 0
85 4 9.024999999999999 45.125 43.32 0 0 0
86 2 7.219999999999999 45.125 48.735 0 0 0
87 1 9.024999999999999 43.32 48.735 0 0 0
88 3 9.024999999999999 45.125 46.92999999999999 0 0 0
89 2 7.219999999999999 45.125 52.345 0 0 0
90 4 9.024999999999999 43.32 52.345 0 0 0
91 3 9.024999999999999 45.125 50.53999999999999 0 0 0
102 4 7.219999999999999 48.735 45.125 0 0 0
103 5 9.024999999999999 46.92999999999999 45.125 0 0 0
104 2 9.024999999999999 48.735 43.32 0 0 0
105 2 7.219999999999999 46.92999999999999 46.92999999999999 0 0 0
106 2 7.219999999999999 48.735 48.735 0 0 0
107 5 9.024999999999999 46.92999999999999 48.735 0 0 0
108 1 9.024999999999999 48.735 46.92999999999999 0 0 0
109 4 7.219999999999999 46.92999999999999 50.53999999999999 0 0 0
110 2 7.219999999999999 48.735 52.345 0 0 0
111 5 9.024999999999999 46.92999999999999 52.345 0 0 0
112 5 9.024999999999999 48.735 50.53999999999999 0 0 0
126 1 7.219999999999999 52.345 45.125 0 0 0
127 4 9.024999999999999 50.53999999999999 45.125 0 0 0
128 4 9.024999999999999 52.345 43.32 0 0 0
129 3 7.219999999999999 50.53999999999999 46.92999999999999 0 0 0
130 1 7.219999999999999 52.345 48.735 0 0 0
131 3 9.024999999999999 50.53999999999999 48.735 0 0 0
132 1 9.024999999999999 52.345 46.92999999999999 0 0 0
133 4 7.219999999999999 50.53999999999999 50.53999999999999 0 0 0
134 3 7.219999999999999 52.345 52.345 0 0 0
135 2 9.024999999999999 50.53999999999999 52.345 0 0 0
136 5 9.024999999999999 52.345 50.53999999999999 0 0 0
228 5 10.829999999999998 41.515 41.515 0 0 0
229 5 12.634999999999998 39.71 41.515 0 0 0
230 4 12.634999999999998 41.515 39.71 0 0 0
231 2 10.829999999999998 41.515 45.125 0 0 0
232 3 12.634999999999998 39.71 45.125 0 0 0
233 4 12.634999999999998 41.515 43.32 0 0 0
234 5 10.829999999999998 41.515 48.735 0 0 0
235 2 12.634999999999998 39.71 48.735 0 0 0
236 2 12.634999999999998 41.515 46.92999999999999 0 0 0
237 1 10.829999999999998 41.515 52.345 0 0 0
238 4 12.634999999999998 39.71 52.345 0 0 0
239 2 12.634999999999998 41.515 50.53999999999999 0 0 0
253 3 10.829999999999998 45.125 41.515 0 0 0
254 1 12.634999999999998 43.32 41.515 0 0 0
255 2 12.634999999999998 45.125 39.71 0 0 0
256 5 10.829999999999998 43.32 43.32 0 0 0
257 3 10.829999999999998 45.125 45.125 0 0 0
258 5 12.634999999999998 43.32 45.125 0 0 0
259 1 12.634999999999998 45.125 43.32 0 0 0
260 2 10.829999999999998 43.32 46.92999999999999 0 0 0
261 4 10.829999999999998 45.125 48.735 0 0 0
262 1 12.634999999999998 43.32 48.735 0 0 0
263 4 12.634999999999998 45.125 46.92999999999999 0 0 0
264 3 10.829999999999998 43.32 50.53999999999999 0 0 0
265 5 10.829999999999998 45.125 52.345 0 0 0
266 1 12.634999999999998 43.32 52.345 0 0 0
267 1 12.634999999999998 45.125 50.53999999999999 0 0 0
285 2 10.829999999999998 48.735 41.515 0 0 0
286 1 12.634999999999998 46.92999999999999 41.515 0 0 0
287 1 12.634999999999998 48.735 39.71 0 0 0
288 4 10.829999999999998 46.92999999999999 43.32 0 0 0
289 3 10.829999999999998 48.735 45.125 0 0 0
290 4 12.634999999999998 46.92999999999999 45.125 0 0 0
291 4 12.634999999999998 48.735 43.32 0 0 0
292 4 10.829999999999998 46.92999999999999 46.92999999999999 0 0 0
293 2 10.829999999999998 48.735 48.735 0 0 0
294 5 12.634999999999998 46.92999999999999 48.735 0 0 0
295 2 12.634999999999998 48.735 46.92999999999999 0 0 0
296 4 10.829999999999998 46.92999999999999 50.53999999999999 0 0 0
297 5 10.829999999999998 48.735 52.345 0 0 0
298 2 12.634999999999998 46.92999999999999 52.345 0 0 0
299 4 12.634999999999998 48.735 50.53999999999999 0 0 0
317 5 10.829999999999998 52.345 41.515 0 0 0
318 5 12.634999999999998 50.53999999999999 41.515 0 0 0
319 2 12.634999999999998 52.345 39.71 0 0 0
320 1 10.829999999999998 50.53999999999999 43.32 0 0 0
321 2 10.829999999999998 52.345 45.125 0 0 0
322 5 12.634999999999998 50.53999999999999 45.125 0 0 0
323 2 12.634999999999998 52.345 43.32 0 0 0
324 5 10.829999999999998 50.53999999999999 46.92999999999999 0 0 0
325 3 10.829999999999998 52.345 48.735 0 0 0
326 3 12.634999999999998 50.53999999999999 48.735 0 0 0
327 1 12.634999999999998 52.345 46.92999999999999 0 0 0
328 1 10.829999999999998 50.53999999999999 50.53999999999999 0 0 0
329 5 10.829999999999998 52.345 52.345 0 0 0
330 2 12.634999999999998 50.53999999999999 52.345 0 0 0
331 1 12.634999999999998 52.345 50.53999999999999 0 0 0
485 5 14.440000000000005 37.905 37.905 0 0 0
486 1 16.244999999999997 36.1 37.905 0 0 0
487 2 16.244999999999997 37.905 36.1 0 0 0
488 1 14.440000000000005 37.905 41.515 0 0 0
489 2 16.244999999999997 36.1 41.515 0 0 0
490 2 16.244999999999997 37.905 39.71 0 0 0
491 5 14.440000000000005 37.905 45.125 0 0 0
492 3 16.244999999999997 36.1 45.125 0 0 0
493 1 16.244999999999997 37.905 43.32 0 0 0
494 3 14.440000000000005 37.905 48.735 0 0 0
495 3 16.244999999999997 36.1 48.735 0 0 0
496 4 16.244999999999997 37.905 46.92999999999999 0 0 0
497 2 14.440000000000005 37.905 52.345 0 0 0
498 4 16.244999999999997 36.1 52.345 0 0 0
499 2 16.244999999999997 37.905 50.53999999999999 0 0 0
516 4 14.440000000000005 41.515 37.905 0 0 0
517 1 16.244999999999997 39.71 37.905 0 0 0
518 4 16.244999999999997 41.515 36.1 0 0 0
519 3 14.440000000000005 39.71 39.71 0 0 0
520 1 14.440000000000005 41.515 41.515 0 0 0
521 1 16.244999999999997 39.71 41.515 0 0 0
522 3 16.244999999999997 41.515 39.71 0 0 0
523 1 14.440000000000005 39.71 43.32 0 0 0
524 1 14.440000000000005 41.515 45.125 0 0 0
525 3 16.244999999999997 39.71 45.125 0 0 0
526 5 16.244999999999997 41.515 43.32 0 0 0
527 2 14.440000000000005 39.71 46.92999999999999 0 0 0
528 2 14.440000000000005 41.515 48.735 0 0 0
529 5 16.244999999999997 39.71 48.735 0 0 0
530 1 16.244999999999997 41.515 46.92999999999999 0 0 0
531 5 14.440000000000005 39.71 50.53999999999999 0 0 0
532 5 14.440000000000005 41.515 52.345 0 0 0
533 2 16.244999999999997 39.71 52.345 0 0 0
534 4 16.244999999999997 41.515 50.53999999999999 0 0 0
556 4 14.440000000000005 45.125 37.905 0 0 0
557 2 16.244999999999997 43.32 37.905 0 0 0
558 1 16.244999999999997 45.125 36.1 0 0 0
559 1 14.440000000000005 43.32 39.71 0 0 0
560 5 14.440000000000005 45.125 41.515 0 0 0
561 1 16.244999999999997 43.32 41.515 0 0 0
562 4 16.244999999999997 45.125 39.71 0 0 0
563 1 14.440000000000005 43.32 43.32 0 0 0
564 2 14.440000000000005 45.125 45.125 0 0 0
565 3 16.244999999999997 43.32 45.125 0 0 0
566 3 16.244999999999997 45.125 43.32 0 0 0
567 5 14.440000000000005 43.32 46.92999999999999 0 0 0
568 1 14.440000000000005 45.125 48.735 0 0 0
569 5 16.244999999999997 43.32 48.735 0 0 0
570 3 16.244999999999997 45.125 46.92999999999999 0 0 0
571 1 14.440000000000005 43.32 50.53999999999999 0 0 0
572 3 14.440000000000005 45.125 52.345 0 0 0
573 2 16.244999999999997 43.32 52.345 0 0 0
574 5 16.244999999999997 45.125 50.53999999999999 0 0 0
596 3 14.440000000000005 48.735 37.905 0 0 0
597 5 16.244999999999997 46.92999999999999 37.905 0 0 0
598 5 16.244999999999997 48.735 36.1 0 0 0
599 1 14.440000000000005 46.92999999999999 39.71 0 0 0
600 2 14.440000000000005 48.735 41.515 0 0 0
601 2 16.244999999999997 46.92999999999999 41.515 0 0 0
602 3 16.244999999999997 48.735 39.71 0 0 0
603 4 14.440000000000005 46.92999999999999 43.32 0 0 0
604 4 14.440000000000005 48.735 45.125 0 0 0
605 3 16.244999999999997 46.92999999999999 45.125 0 0 0
606 5 16.244999999999997 48.735 43.32 0 0 0
607 3 14.440000000000005 46.92999999999999 46.92999999999999 0 0 0
608 4 14.440000000000005 48.735 48.735 0 0 0
609 3 16.244999999999997 46.92999999999999 48.735 0 0 0
610 2 16.244999999999997 48.735 46.92999999999999 0 0 0
611 2 14.440000000000005 46.92999999999999 50.53999999999999 0 0 0
612 2 14.440000000000005 48.735 52.345 0 0 0
613 1 16.244999999999997 46.92999999999999 52.345 0 0 0
614 1 16.244999999999997 48.735 50.53999999999999 0 0 0
636 3 14.440000000000005 52.345 37.905 0 0 0
637 4 16.244999999999997 50.53999999999999 37.905 0 0 0
638 4 16.244999999999997 52.345 36.1 0 0 0
639 2 14.440000000000005 50.53999999999999 39.71 0 0 0
640 2 14.440000000000005 52.345 41.515 0 0 0
641 4 16.244999999999997 50.53999999999999 41.515 0 0 0
642 4 16.244999999999997 52.345 39.71 0 0 0
643 2 14.440000000000005 50.53999999999999 43.32 0 0 0
644 4 14.440000000000005 52.345 45.125 0 0 0
645 3 16.244999999999997 50.53999999999999 45.125 0 0 0
646 3 16.244999999999997 52.345 43.32 0 0 0
647 1 14.440000000000005 50.53999999999999 46.92999999999999 0 0 0
648 2 14.440000000000005 52.345 48.735 0 0 0
649 1 16.244999999999997 50.53999999999999 48.735 0 0 0
650 5 16.244999999999997 52.345 46.92999999999999 0 0 0
651 4 14.440000000000005 50.53999999999999 50.53999999999999 0 0 0
652 4 14.440000000000005 52.345 52.345 0 0 0
653 5 16.244999999999997 50.53999999999999 52.345 0 0 0
654 4 16.244999999999997 52.345 50.53999999999999 0 0 0
886 1 18.050000000000004 34.294999999999995 34.294999999999995 0 0 0
887 5 19.854999999999997 32.49 34.294999999999995 0 0 0
888 1 19.854999999999997 34.294999999999995 32.49 0 0 0
889 5 18.050000000000004 34.294999999999995 37.905 0 0 0
890 2 19.854999999999997 32.49 37.905 0 0 0
891 3 19.854999999999997 34.294999999999995 36.1 0 0 0
892 5 18.050000000000004 34.294999999999995 41.515 0 0 0
893 2 19.854999999999997 32.49 41.515 0 0 0
894 2 19.854999999999997 34.294999999999995 39.71 0 0 0
895 4 18.050000000000004 34.294999999999995 45.125 0 0 0
896 3 19.854999999999997 32.49 45.125 0 0 0
897 4 19.854999999999997 34.294999999999995 43.32 0 0 0
898 3 18.050000000000004 34.294999999999995 48.735 0 0 0
899 5 19.854999999999997 32.49 48.735 0 0 0
900 4 19.854999999999997 34.294999999999995 46.92999999999999 0 0 0
901 2 18.050000000000004 34.294999999999995 52.345 0 0 0
902 2 19.854999999999997 32.49 52.345 0 0 0
903 2 19.854999999999997 34.294999999999995 50.53999999999999 0 0 0
923 1 18.050000000000004 37.905 34.294999999999995 0 0 0
924 1 19.854999999999997 36.1 34.294999999999995 0 0 0
925 4 19.854999999999997 37.905 32.49 0 0 0
926 5 18.050000000000004 36.1 36.1 0 0 0
927 3 18.050000000000004 37.905 37.905 0 0 0
928 4 19.854999999999997 36.1 37.905 0 0 0
929 2 19.854999999999997 37.905 36.1 0 0 0
930 2 18.050000000000004 36.1 39.71 0 0 0
931 4 18.050000000000004 37.905 41.515 0 0 0
932 1 19.854999999999997 36.1 41.515 0 0 0
933 2 19.854999999999997 37.905 39.71 0 0 0
934 2 18.050000000000004 36.1 43.32 0 0 0
935 4 18.050000000000004 37.905 45.125 0 0 0
936 1 19.854999999999997 36.1 45.125 0 0 0
937 4 19.854999999999997 37.905 43.32 0 0 0
938 3 18.050000000000004 36.1 46.92999999999999 0 0 0
939 5 18.050000000000004 37.905 48.735 0 0 0
940 4 19.854999999999997 36.1 48.735 0 0 0
941 4 19.854999999999997 37.905 46.92999999999999 0 0 0
942 3 18.050000000000004 36.1 50.53999999999999 0 0 0
943 4 18.050000000000004 37.905 52.345 0 0 0
944 4 19.854999999999997 36.1 52.345 0 0 0
945 2 19.854999999999997 37.905 50.53999999999999 0 0 0
971 2 18.050000000000004 41.515 34.294999999999995 0 0 0
972 2 19.854999999999997 39.71 34.294999999999995 0 0 0
973 1 19.854999999999997 41.515 32.49 0 0 0
974 5 18.050000000000004 39.71 36.1 0 0 0
975 5 18.050000000000004 41.515 37.905 0 0 0
976 1 19.854999999999997 39.71 37.905 0 0 0
977 2 19.854999999999997 41.515 36.1 0 0 0
978 4 18.050000000000004 39.71 39.71 0 0 0
979 5 18.050000000000004 41.515 41.515 0 0 0
980 3 19.854999999999997 39.71 41.515 0 0 0
981 3 19.854999999999997 41.515 39.71 0 0 0
982 2 18.050000000000004 39.71 43.32 0 0 0
983 2 18.050000000000004 41.515 45.125 0 0 0
984 1 19.854999999999997 39.71 45.125 0 0 0
985 2 19.854999999999997 41.515 43.32 0 0 0
986 5 18.050000000000004 39.71 46.92999999999999 0 0 0
987 4 18.050000000000004 41.515 48.735 0 0 0
988 5 19.854999999999997 39.71 48.735 0 0 0
989 4 19.854999999999997 41.515 46.92999999999999 0 0 0
990 2 18.050000000000004 39.71 50.53999999999999 0 0 0
991 4 18.050000000000004 41.515 52.345 0 0 0
992 1 19.854999999999997 39.71 52.345 0 0 0
993 1 19.854999999999997 41.515 50.53999999999999 0 0 0
1019 5 18.050000000000004 45.125 34.294999999999995 0 0 0
1020 3 19.854999999999997 43.32 34.294999999999995 0 0 0
1021 2 19.854999999999997 45.125 32.49 0 0 0
1022 3 18.050000000000004 43.32 36.1 0 0 0
1023 1 18.050000000000004 45.125 37.905 0 0 0
1024 4 19.854999999999997 43.32 37.905 0 0 0
1025 2 19.854999999999997 45.125 36.1 0 0 0
1026 4 18.050000000000004 43.32 39.71 0 0 0
1027 2 18.050000000000004 45.125 41.515 0 0 0
1028 2 19.854999999999997 43.32 41.515 0 0 0
1029 5 19.854999999999997 45.125 39.71 0 0 0
1030 4 18.050000000000004 43.32 43.32 0 0 0
1031 5 18.050000000000004 45.125 45.125 0 0 0
1032 2 19.854999999999997 43.32 45.125 0 0 0
1033 1 19.854999999999997 45.125 43.32 0 0 0
1034 4 18.050000000000004 43.32 46.92999999999999 0 0 0
1035 4 18.050000000000004 45.125 48.735 0 0 0
1036 4 19.854999999999997 43.32 48.735 0 0 0
1037 3 19.854999999999997 45.125 46.92999999999999 0 0 0
1038 4 18.050000000000004 43.32 50.53999999999999 0 0 0
1039 5 18.050000000000004 45.125 52.345 0 0 0
1040 4 19.854999999999997 43.32 52.345 0 0 0
1041 5 19.854999999999997 45.125 50.53999999999999 0 0 0
1067 2 18.050000000000004 48.735 34.294999999999995 0 0 0
1068 3 19.854999999999997 46.92999999999999 34.294999999999995 0 0 0
1069 5 19.854999999999997 48.735 32.49 0 0 0
1070 1 18.050000000000004 46.92999999999999 36.1 0 0 0
1071 2 18.050000000000004 48.735 37.905 0 0 0
1072 5 19.854999999999997 46.92999999999999 37.905 0 0 0
1073 5 19.854999999999997 48.735 36.1 0 0 0
1074 5 18.050000000000004 46.92999999999999 39.71 0 0 0
1075 2 18.050000000000004 48.735 41.515 0 0 0
1076 5 19.854999999999997 46.92999999999999 41.515 0 0 0
1077 3 19.854999999999997 48.735 39.71 0 0 0
1078 1 18.050000000000004 46.92999999999999 43.32 0 0 0
1079 1 18.050000000000004 48.735 45.125 0 0 0
1080 1 19.854999999999997 46.92999999999999 45.125 0 0 0
1081 5 19.854999999999997 48.735 43.32 0 0 0
1082 3 18.050000000000004 46.92999999999999 46.92999999999999 0 0 0
1083 3 18.050000000000004 48.735 48.735 0 0 0
1084 5 19.854999999999997 46.92999999999999 48.735 0 0 0
1085 1 19.854999999999997 48.735 46.92999999999999 0 0 0
1086 1 18.050000000000004 46.92999999999999 50.53999999999999 0 0 0
1087 3 18.050000000000004 48.735 52.345 0 0 0
1088 4 19.854999999999997 46.92999999999999 52.345 0 0 0
1089 5 19.854999999999997 48.735 50.53999999999999 0 0 0
1115 4 18.050000000000004 52.345 34.294999999999995 0 0 0
1116 2 19.854999999999997 50.53999999999999 34.294999999999995 0 0 0
1117 5 19.854999999999997 52.345 32.49 0 0 0
1118 2 18.050000000000004 50.53999999999999 36.1 0 0 0
1119 4 18.050000000000004 52.345 37.905 0 0 0
1120 2 19.854999999999997 50.53999999999999 37.905 0 0 0
1121 5 19.854999999999997 52.345 36.1 0 0 0
1122 1 18.050000000000004 50.53999999999999 39.71 0 0 0
1123 3 18.050000000000004 52.345 41.515 0 0 0
1124 2 19.854999999999997 50.53999999999999 41.515 0 0 0
1125 2 19.854999999999997 52.345 39.71 0 0 0
1126 4 18.050000000000004 50.53999999999999 43.32 0 0 0
1127 3 18.050000000000004 52.345 45.125 0 0 0
1128 5 19.854999999999997 50.53999999999999 45.125 0 0 0
1129 5 19.854999999999997 52.345 43.32 0 0 0
1130 3 18.050000000000004 50.53999999999999 46.92999999999999 0 0 0
1131 1 18.050000000000004 52.345 48.735 0 0 0
1132 5 19.854999999999997 50.53999999999999 48.735 0 0 0
1133 2 19.854999999999997 52.345 46.92999999999999 0 0 0
1134 3 18.050000000000004 50.53999999999999 50.53999999999999 0 0 0
1135 3 18.050000000000004 52.345 52.345 0 0 0
1136 4 19.854999999999997 50.53999999999999 52.345 0 0 0
1137 1 19.854999999999997 52.345 50.53999999999999 0 0 0
1463 4 21.66 30.685 30.685 0 0 0
1464 1 23.464999999999996 28.880000000000003 30.685 0 0 0
1465 1 23.464999999999996 30.685 28.880000000000003 0 0 0
1466 1 21.66 30.685 34.294999999999995 0 0 0
1467 3 23.464999999999996 28.880000000000003 34.294999999999995 0 0 0
1468 1 23.464999999999996 30.685 32.49 0 0 0
1469 3 21.66 30.685 37.905 0 0 0
1470 3 23.464999999999996 28.880000000000003 37.905 0 0 0
1471 1 23.464999999999996 30.685 36.1 0 0 0
1472 5 21.66 30.685 41.515 0 0 0
1473 4 23.464999999999996 28.880000000000003 41.515 0 0 0
1474 3 23.464999999999996 30.685 39.71 0 0 0
1475 4 21.66 30.685 45.125 0 0 0
1476 3 23.464999999999996 28.880000000000003 45.125 0 0 0
1477 4 23.464999999999996 30.685 43.32 0 0 0
1478 5 21.66 30.685 48.735 0 0 0
1479 4 23.464999999999996 28.880000000000003 48.735 0 0 0
1480 5 23.464999999999996 30.685 46.92999999999999 0 0 0
1481 5 21.66 30.685 52.345 0 0 0
1482 3 23.464999999999996 28.880000000000003 52.345 0 0 0
1483 4 23.464999999999996 30.685 50.53999999999999 0 0 0
1506 2 21.66 34.294999999999995 30.685 0 0 0
1507 2 23.464999999999996 32.49 30.685 0 0 0
1508 3 23.464999999999996 34.294999999999995 28.880000000000003 0 0 0
1509 1 21.66 32.49 32.49 0 0 0
1510 3 21.66 34.294999999999995 34.294999999999995 0 0 0
1511 4 23.464999999999996 32.49 34.294999999999995 0 0 0
1512 5 23.464999999999996 34.294999999999995 32.49 0 0 0
1513 4 21.66 32.49 36.1 0 0 0
1514 4 21.66 34.294999999999995 37.905 0 0 0
1515 2 23.464999999999996 32.49 37.905 0 0 0
1516 3 23.464999999999996 34.294999999999995 36.1 0 0 0
1517 5 21.66 32.49 39.71 0 0 0
1518 3 21.66 34.294999999999995 41.515 0 0 0
1519 5 23.464999999999996 32.49 41.515 0 0 0
1520 3 23.464999999999996 34.294999999999995 39.71 0 0 0
1521 1 21.66 32.49 43.32 0 0 0
1522 4 21.66 34.294999999999995 45.125 0 0 0
1523 2 23.464999999999996 32.49 45.125 0 0 0
1524 5 23.464999999999996 34.294999999999995 43.32 0 0 0
1525 4 21.66 32.49 46.92999999999999 0 0 0
1526 5 21.66 34.294999999999995 48.735 0 0 0
1527 2 23.464999999999996 32.49 48.735 0 0 0
1528 3 23.464999999999996 34.294999999999995 46.92999999999999 0 0 0
1529 3 21.66 32.49 50.53999999999999 0 0 0
1530 1 21.66 34.294999999999995 52.345 0 0 0
1531 2 23.464999999999996 32.49 52.345 0 0 0
1532 5 23.464999999999996 34.294999999999995 50.53999999999999 0 0 0
1562 4 21.66 37.905 30.685 0 0 0
1563 1 23.464999999999996 36.1 30.685 0 0 0
1564 1 23.464999999999996 37.905 28.880000000000003 0 0 0
1565 5 21.66 36.1 32.49 0 0 0
1566 4 21.66 37.905 34.294999999999995 0 0 0
1567 4 23.464999999999996 36.1 34.294999999999995 0 0 0
1568 2 23.464999999999996 37.905 32.49 0 0 0
1569 4 21.66 36.1 36.1 0 0 0
1570 4 21.66 37.905 37.905 0 0 0
1571 3 23.464999999999996 36.1 37.905 0 0 0
1572 1 23.464999999999996 37.905 36.1 0 0 0
1573 2 21.66 36.1 39.71 0 0 0
1574 4 21.66 37.905 41.515 0 0 0
1575 4 23.464999999999996 36.1 41.515 0 0 0
1576 1 23.464999999999996 37.905 39.71 0 0 0
1577 5 21.66 36.1 43.32 0 0 0
1578 4 21.66 37.905 45.125 0 0 0
1579 2 23.464999999999996 36.1 45.125 0 0 0
1580 5 23.464999999999996 37.905 43.32 0 0 0
1581 3 21.66 36.1 46.92999999999999 0 0 0
1582 5 21.66 37.905 48.735 0 0 0
1583 5 23.464999999999996 36.1 48.735 0 0 0
1584 4 23.464999999999996 37.905 46.92999999999999 0 0 0
1585 2 21.66 36.1 50.53999999999999 0 0 0
1586 1 21.66 37.905 52.345 0 0 0
1587 2 23.464999999999996 36.1 52.345 0 0 0
1588 4 23.464999999999996 37.905 50.53999999999999 0 0 0
1618 1 21.66 41.515 30.685 0 0 0
1619 4 23.464999999999996 39.71 30.685 0 0 0
1620 2 23.464999999999996 41.515 28.880000000000003 0 0 0
1621 1 21.66 39.71 32.49 0 0 0
1622 2 21.66 41.515 34.294999999999995 0 0 0
1623 4 23.464999999999996 39.71 34.294999999999995 0 0 0
1624 4 23.464999999999996 41.515 32.49 0 0 0
1625 5 21.66 39.71 36.1 0 0 0
1626 4 21.66 41.515 37.905 0 0 0
1627 1 23.464999999999996 39.71 37.905 0 0 0
1628 1 23.464999999999996 41.515 36.1 0 0 0
1629 4 21.66 39.71 39.71 0 0 0
1630 1 21.66 41.515 41.515 0 0 0
1631 5 23.464999999999996 39.71 41.515 0 0 0
1632 2 23.464999999999996 41.515 39.71 0 0 0
1633 1 21.66 39.71 43.32 0 0 0
1634 3 21.66 41.515 45.125 0 0 0
1635 4 23.464999999999996 39.71 45.125 0 0 0
1636 5 23.464999999999996 41.515 43.32 0 0 0
1637 5 21.66 39.71 46.92999999999999 0 0 0
1638 1 21.66 41.515 48.735 0 0 0
1639 3 23.464999999999996 39.71 48.735 0 0 0
1640 3 23.464999999999996 41.515 46.92999999999999 0 0 0
1641 4 21.66 39.71 50.53999999999999 0 0 0
1642 1 21.66 41.515 52.345 0 0 0
1643 5 23.464999999999996 39.71 52.345 0 0 0
1644 1 23.464999999999996 41.515 50.53999999999999 0 0 0
1674 5 21.66 45.125 30.685 0 0 0
1675 5 23.464999999999996 43.32 30.685 0 0 0
1676 1 23.464999999999996 45.125 28.880000000000003 0 0 0
1677 1 21.66 43.32 32.49 0 0 0
1678 4 21.66 45.125 34.294999999999995 0 0 0
1679 4 23.464999999999996 43.32 34.294999999999995 0 0 0
1680 4 23.464999999999996 45.125 32.49 0 0 0
1681 1 21.66 43.32 36.1 0 0 0
1682 4 21.66 45.125 37.905 0 0 0
1683 3 23.464999999999996 43.32 37.905 0 0 0
1684 3 23.464999999999996 45.125 36.1 0 0 0
1685 3 21.66 43.32 39.71 0 0 0
1686 5 21.66 45.125 41.515 0 0 0
1687 2 23.464999999999996 43.32 41.515 0 0 0
1688 2 23.464999999999996 45.125 39.71 0 0 0
1689 4 21.66 43.32 43.32 0 0 0
1690 4 21.66 45.125 45.125 0 0 0
1691 5 23.464999999999996 43.32 45.125 0 0 0
1692 3 23.464999999999996 45.125 43.32 0 0 0
1693 2 21.66 43.32 46.92999999999999 0 0 0
1694 4 21.66 45.125 48.735 0 0 0
1695 3 23.464999999999996 43.32 48.735 0 0 0
1696 3 23.464999999999996 45.125 46.92999999999999 0 0 0
1697 4 21.66 43.32 50.53999999999999 0 0 0
1698 3 21.66 45.125 52.345 0 0 0
1699 1 23.464999999999996 43.32 52.345 0 0 0
1700 1 23.464999999999996 45.125 50.53999999999999 0 0 0
1730 2 21.66 48.735 30.685 0 0 0
1731 1 23.464999999999996 46.92999999999999 30.685 0 0 0
1732 5 23.464999999999996 48.735 28.880000000000003 0 0 0
1733 1 21.66 46.92999999999999 32.49 0 0 0
1734 4 21.66 48.735 34.294999999999995 0 0 0
1735 2 23.464999999999996 46.92999999999999 34.294999999999995 0 0 0
1736 3 23.464999999999996 48.735 32.49 0 0 0
1737 2 21.66 46.92999999999999 36.1 0 0 0
1738 2 21.66 48.735 37.905 0 0 0
1739 1 23.464999999999996 46.92999999999999 37.905 0 0 0
1740 3 23.464999999999996 48.735 36.1 0 0 0
1741 3 21.66 46.92999999999999 39.71 0 0 0
1742 3 21.66 48.735 41.515 0 0 0
1743 1 23.464999999999996 46.92999999999999 41.515 0 0 0
1744 5 23.464999999999996 48.735 39.71 0 0 0
1745 4 21.66 46.92999999999999 43.32 0 0 0
1746 2 21.66 48.735 45.125 0 0 0
1747 2 23.464999999999996 46.92999999999999 45.125 0 0 0
1748 3 23.464999999999996 48.735 43.32 0 0 0
1749 1 21.66 46.92999999999999 46.92999999999999 0 0 0
1750 5 21.66 48.735 48.735 0 0 0
1751 1 23.464999999999996 46.92999999999999 48.735 0 0 0
1752 4 23.464999999999996 48.735 46.92999999999999 0 0 0
1753 2 21.66 46.92999999999999 50.53999999999999 0 0 0
1754 5 21.66 48.735 52.345 0 0 0
1755 3 23.464999999999996 46.92999999999999 52.345 0 0 0
1756 2 23.464999999999996 48.735 50.53999999999999 0 0 0
1786 4 21.66 52.345 30.685 0 0 0
1787 5 23.464999999999996 50.53999999999999 30.685 0 0 0
1788 2 23.464999999999996 52.345 28.880000000000003 0 0 0
1789 5 21.66 50.53999999999999 32.49 0 0 0
1790 1 21.66 52.345 34.294999999999995 0 0 0
1791 4 23.464999999999996 50.53999999999999 34.294999999999995 0 0 0
1792 1 23.464999999999996 52.345 32.49 0 0 0
1793 4 21.66 50.53999999999999 36.1 0 0 0
1794 5 21.66 52.345 37.905 0 0 0
1795 5 23.464999999999996 50.53999999999999 37.905 0 0 0
1796 3 23.464999999999996 52.345 36.1 0 0 0
1797 5 21.66 50.53999999999999 39.71 0 0 0
1798 4 21.66 52.345 41.515 0 0 0
1799 4 23.464999999999996 50.53999999999999 41.515 0 0 0
1800 3 23.464999999999996 52.345 39.71 0 0 0
1801 5 21.66 50.53999999999999 43.32 0 0 0
1802 5 21.66 52.345 45.125 0 0 0
1803 4 23.464999999999996 50.53999999999999 45.125 0 0 0
1804 4 23.464999999999996 52.345 43.32 0 0 0
1805 1 21.66 50.53999999999999 46.92999999999999 0 0 0
1806 1 21.66 52.345 48.735 0 0 0
1807 5 23.464999999999996 50.53999999999999 48.735 0 0 0
1808 2 23.464999999999996 52.345 46.92999999999999 0 0 0
1809 4 21.66 50.53999999999999 50.53999999999999 0 0 0
1810 2 21.66 52.345 52.345 0 0 0
1811 1 23.464999999999996 50.53999999999999 52.345 0 0 0
1812 5 23.464999999999996 52.345 50.53999999999999 0 0 0
2248 3 25.269999999999996 27.075 27.075 0 0 0
2249 3 27.075 25.269999999999996 27.075 0 0 0
2250 4 27.075 27.075 25.269999999999996 0 0 0
2251 5 25.269999999999996 27.075 30.685 0 0 0
2252 1 27.075 25.269999999999996 30.685 0 0 0
2253 4 27.075 27.075 28.880000000000003 0 0 0
2254 2 25.269999999999996 27.075 34.294999999999995 0 0 0
2255 3 27.075 25.269999999999996 34.294999999999995 0 0 0
2256 5 27.075 27.075 32.49 0 0 0
2257 5 25.269999999999996 27.075 37.905 0 0 0
2258 2 27.075 25.269999999999996 37.905 0 0 0
2259 3 27.075 27.075 36.1 0 0 0
2260 3 25.269999999999996 27.075 41.515 0 0 0
2261 4 27.075 25.269999999999996 41.515 0 0 0
2262 2 27.075 27.075 39.71 0 0 0
2263 4 25.269999999999996 27.075 45.125 0 0 0
2264 4 27.075 25.269999999999996 45.125 0 0 0
2265 3 27.075 27.075 43.32 0 0 0
2266 1 25.269999999999996 27.075 48.735 0 0 0
2267 5 27.075 25.269999999999996 48.735 0 0 0
2268 3 27.075 27.075 46.92999999999999 0 0 0
2269 1 25.269999999999996 27.075 52.345 0 0 0
2270 2 27.075 25.269999999999996 52.345 0 0 0
2271 5 27.075 27.075 50.53999999999999 0 0 0
2297 3 25.269999999999996 30.685 27.075 0 0 0
2298 5 27.075 28.880000000000003 27.075 0 0 0
2299 4 27.075 30.685 25.269999999999996 0 0 0
2300 2 25.269999999999996 28.880000000000003 28.880000000000003 0 0 0
2301 4 25.269999999999996 30.685 30.685 0 0 0
2302 1 27.075 28.880000000000003 30.685 0 0 0
2303 1 27.075 30.685 28.880000000000003 0 0 0
2304 3 25.269999999999996 28.880000000000003 32.49 0 0 0
2305 1 25.269999999999996 30.685 34.294999999999995 0 0 0
2306 2 27.075 28.880000000000003 34.294999999999995 0 0 0
2307 2 27.075 30.685 32.49 0 0 0
2308 4 25.269999999999996 28.880000000000003 36.1 0 0 0
2309 4 25.269999999999996 30.685 37.905 0 0 0
2310 3 27.075 28.880000000000003 37.905 0 0 0
2311 4 27.075 30.685 36.1 0 0 0
2312 5 25.269999999999996 28.880000000000003 39.71 0 0 0
2313 4 25.269999999999996 30.685 41.515 0 0 0
2314 2 27.075 28.880000000000003 41.515 0 0 0
2315 2 27.075 30.685 39.71 0 0 0
2316 1 25.269999999999996 28.880000000000003 43.32 0 0 0
2317 5 25.269999999999996 30.685 45.125 0 0 0
2318 4 27.075 28.880000000000003 45.125 0 0 0
2319 5 27.075 30.685 43.32 0 0 0
2320 2 25.269999999999996 28.880000000000003 46.92999999999999 0 0 0
2321 5 25.269999999999996 30.685 48.735 0 0 0
2322 3 27.075 28.880000000000003 48.735 0 0 0
2323 5 27.075 30.685 46.92999999999999 0 0 0
2324 2 25.269999999999996 28.880000000000003 50.53999999999999 0 0 0
2325 3 25.269999999999996 30.685 52.345 0 0 0
2326 3 27.075 28.880000000000003 52.345 0 0 0
2327 1 27.075 30.685 50.53999999999999 0 0 0
2361 5 25.269999999999996 34.294999999999995 27.075 0 0 0
2362 3 27.075 32.49 27.075 0 0 0
2363 1 27.075 34.294999999999995 25.269999999999996 0 0 0
2364 3 25.269999999999996 32.49 28.880000000000003 0 0 0
2365 1 25.269999999999996 34.294999999999995 30.685 0 0 0
2366 3 27.075 32.49 30.685 0 0 0
2367 4 27.075 34.294999999999995 28.880000000000003 0 0 0
2368 3 25.269999999999996 32.49 32.49 0 0 0
2369 4 25.269999999999996 34.294999999999995 34.294999999999995 0 0 0
2370 2 27.075 32.49 34.294999999999995 0 0 0
2371 4 27.075 34.294999999999995 32.49 0 0 0
2372 2 25.269999999999996 32.49 36.1 0 0 0
2373 4 25.269999999999996 34.294999999999995 37.905 0 0 0
2374 2 27.075 32.49 37.905 0 0 0
2375 3 27.075 34.294999999999995 36.1 0 0 0
2376 2 25.269999999999996 32.49 39.71 0 0 0
2377 1 25.269999999999996 34.294999999999995 41.515 0 0 0
2378 1 27.075 32.49 41.515 0 0 0
2379 1 27.075 34.294999999999995 39.71 0 0 0
2380 4 25.269999999999996 32.49 43.32 0 0 0
2381 2 25.269999999999996 34.294999999999995 45.125 0 0 0
2382 4 27.075 32.49 45.125 0 0 0
2383 2 27.075 34.294999999999995 43.32 0 0 0
2384 1 25.269999999999996 32.49 46.92999999999999 0 0 0
2385 2 25.269999999999996 34.294999999999995 48.735 0 0 0
2386 4 27.075 32.49 48.735 0 0 0
2387 3 27.075 34.294999999999995 46.92999999999999 0 0 0
2388 1 25.269999999999996 32.49 50.53999999999999 0 0 0
2389 3 25.269999999999996 34.294999999999995 52.345 0 0 0
2390 1 27.075 32.49 52.345 0 0 0
2391 1 27.075 34.294999999999995 50.53999999999999 0 0 0
2425 2 25.269999999999996 37.905 27.075 0 0 0
2426 4 27.075 36.1 27.075 0 0 0
2427 3 27.075 37.905 25.269999999999996 0 0 0
2428 2 25.269999999999996 36.1 28.880000000000003 0 0 0
2429 2 25.269999999999996 37.905 30.685 0 0 0
2430 1 27.075 36.1 30.685 0 0 0
2431 1 27.075 37.905 28.880000000000003 0 0 0
2432 3 25.269999999999996 36.1 32.49 0 0 0
2433 1 25.269999999999996 37.905 34.294999999999995 0 0 0
2434 3 27.075 36.1 34.294999999999995 0 0 0
2435 3 27.075 37.905 32.49 0 0 0
2436 2 25.269999999999996 36.1 36.1 0 0 0
2437 4 25.269999999999996 37.905 37.905 0 0 0
2438 5 27.075 36.1 37.905 0 0 0
2439 4 27.075 37.905 36.1 0 0 0
2440 1 25.269999999999996 36.1 39.71 0 0 0
2441 3 25.269999999999996 37.905 41.515 0 0 0
2442 1 27.075 36.1 41.515 0 0 0
2443 3 27.075 37.905 39.71 0 0 0
2444 1 25.269999999999996 36.1 43.32 0 0 0
2445 5 25.269999999999996 37.905 45.125 0 0 0
2446 2 27.075 36.1 45.125 0 0 0
2447 2 27.075 37.905 43.32 0 0 0
2448 1 25.269999999999996 36.1 46.92999999999999 0 0 0
2449 3 25.269999999999996 37.905 48.735 0 0 0
2450 3 27.075 36.1 48.735 0 0 0