model_files/NiFeCrCoAl/NiFeCrCoAl_30000/NiFeCrCoAl_110/NiFeCrCoAl_110_fcc_31263_temp.data (written by ASE) 

31263 	 atoms 
5  atom types
0.0                     108  xlo xhi
0.0                     108  ylo yhi
0.0                     108  zlo zhi


Atoms 

     1   1                       0      52.344999999999999      52.344999999999999
     2   1      1.8049999999999997      50.539999999999992      52.344999999999999
     3   1      1.8049999999999997      52.344999999999999      50.539999999999992
     4   1                       0      52.344999999999999      55.954999999999991
     5   1      1.8049999999999997      50.539999999999992      55.954999999999991
     6   1      1.8049999999999997      52.344999999999999      54.149999999999999
     7   1      1.8049999999999997      52.344999999999999      57.759999999999991
     8   1                       0      55.954999999999991      52.344999999999999
     9   1      1.8049999999999997      54.149999999999999      52.344999999999999
    10   1      1.8049999999999997      55.954999999999991      50.539999999999992
    11   1                       0      54.149999999999999      54.149999999999999
    12   1                       0      55.954999999999991      55.954999999999991
    13   1      1.8049999999999997      54.149999999999999      55.954999999999991
    14   1      1.8049999999999997      55.954999999999991      54.149999999999999
    15   1      1.8049999999999997      55.954999999999991      57.759999999999991
    16   1      1.8049999999999997      57.759999999999991      52.344999999999999
    17   1      1.8049999999999997      57.759999999999991      55.954999999999991
    18   1      3.6099999999999994      48.734999999999999      48.734999999999999
    19   1      5.4149999999999991      46.929999999999993      48.734999999999999
    20   1      5.4149999999999991      48.734999999999999      46.929999999999993
    21   1      3.6099999999999994      48.734999999999999      52.344999999999999
    22   1      5.4149999999999991      46.929999999999993      52.344999999999999
    23   1      5.4149999999999991      48.734999999999999      50.539999999999992
    24   1      3.6099999999999994      48.734999999999999      55.954999999999991
    25   1      5.4149999999999991      46.929999999999993      55.954999999999991
    26   1      5.4149999999999991      48.734999999999999      54.149999999999999
    27   1      3.6099999999999994      48.734999999999999      59.564999999999998
    28   1      5.4149999999999991      46.929999999999993      59.564999999999998
    29   1      5.4149999999999991      48.734999999999999      57.759999999999991
    30   1      5.4149999999999991      48.734999999999999      61.369999999999997
    31   1      3.6099999999999994      52.344999999999999      48.734999999999999
    32   1      5.4149999999999991      50.539999999999992      48.734999999999999
    33   1      5.4149999999999991      52.344999999999999      46.929999999999993
    34   1      3.6099999999999994      50.539999999999992      50.539999999999992
    35   1      3.6099999999999994      52.344999999999999      52.344999999999999
    36   1      5.4149999999999991      50.539999999999992      52.344999999999999
    37   1      5.4149999999999991      52.344999999999999      50.539999999999992
    38   1      3.6099999999999994      50.539999999999992      54.149999999999999
    39   1      3.6099999999999994      52.344999999999999      55.954999999999991
    40   1      5.4149999999999991      50.539999999999992      55.954999999999991
    41   1      5.4149999999999991      52.344999999999999      54.149999999999999
    42   1      3.6099999999999994      50.539999999999992      57.759999999999991
    43   1      3.6099999999999994      52.344999999999999      59.564999999999998
    44   1      5.4149999999999991      50.539999999999992      59.564999999999998
    45   1      5.4149999999999991      52.344999999999999      57.759999999999991
    46   1      5.4149999999999991      52.344999999999999      61.369999999999997
    47   1      3.6099999999999994      55.954999999999991      48.734999999999999
    48   1      5.4149999999999991      54.149999999999999      48.734999999999999
    49   1      5.4149999999999991      55.954999999999991      46.929999999999993
    50   1      3.6099999999999994      54.149999999999999      50.539999999999992
    51   1      3.6099999999999994      55.954999999999991      52.344999999999999
    52   1      5.4149999999999991      54.149999999999999      52.344999999999999
    53   1      5.4149999999999991      55.954999999999991      50.539999999999992
    54   1      3.6099999999999994      54.149999999999999      54.149999999999999
    55   1      3.6099999999999994      55.954999999999991      55.954999999999991
    56   1      5.4149999999999991      54.149999999999999      55.954999999999991
    57   1      5.4149999999999991      55.954999999999991      54.149999999999999
    58   1      3.6099999999999994      54.149999999999999      57.759999999999991
    59   1      3.6099999999999994      55.954999999999991      59.564999999999998
    60   1      5.4149999999999991      54.149999999999999      59.564999999999998
    61   1      5.4149999999999991      55.954999999999991      57.759999999999991
    62   1      5.4149999999999991      55.954999999999991      61.369999999999997
    63   1      3.6099999999999994      59.564999999999998      48.734999999999999
    64   1      5.4149999999999991      57.759999999999991      48.734999999999999
    65   1      5.4149999999999991      59.564999999999998      46.929999999999993
    66   1      3.6099999999999994      57.759999999999991      50.539999999999992
    67   1      3.6099999999999994      59.564999999999998      52.344999999999999
    68   1      5.4149999999999991      57.759999999999991      52.344999999999999
    69   1      5.4149999999999991      59.564999999999998      50.539999999999992
    70   1      3.6099999999999994      57.759999999999991      54.149999999999999
    71   1      3.6099999999999994      59.564999999999998      55.954999999999991
    72   1      5.4149999999999991      57.759999999999991      55.954999999999991
    73   1      5.4149999999999991      59.564999999999998      54.149999999999999
    74   1      3.6099999999999994      57.759999999999991      57.759999999999991
    75   1      3.6099999999999994      59.564999999999998      59.564999999999998
    76   1      5.4149999999999991      57.759999999999991      59.564999999999998
    77   1      5.4149999999999991      59.564999999999998      57.759999999999991
    78   1      5.4149999999999991      59.564999999999998      61.369999999999997
    79   1      5.4149999999999991      61.369999999999997      48.734999999999999
    80   1      5.4149999999999991      61.369999999999997      52.344999999999999
    81   1      5.4149999999999991      61.369999999999997      55.954999999999991
    82   1      5.4149999999999991      61.369999999999997      59.564999999999998
    83   1      7.2199999999999989                  45.125                  45.125
    84   1      9.0249999999999986                   43.32                  45.125
    85   1      9.0249999999999986                  45.125                   43.32
    86   1      7.2199999999999989                  45.125      48.734999999999999
    87   1      9.0249999999999986                   43.32      48.734999999999999
    88   1      9.0249999999999986                  45.125      46.929999999999993
    89   1      7.2199999999999989                  45.125      52.344999999999999
    90   1      9.0249999999999986                   43.32      52.344999999999999
    91   1      9.0249999999999986                  45.125      50.539999999999992
    92   1      7.2199999999999989                  45.125      55.954999999999991
    93   1      9.0249999999999986                   43.32      55.954999999999991
    94   1      9.0249999999999986                  45.125      54.149999999999999
    95   1      7.2199999999999989                  45.125      59.564999999999998
    96   1      9.0249999999999986                   43.32      59.564999999999998
    97   1      9.0249999999999986                  45.125      57.759999999999991
    98   1      7.2199999999999989                  45.125      63.175000000000011
    99   1      9.0249999999999986                   43.32      63.175000000000011
   100   1      9.0249999999999986                  45.125      61.369999999999997
   101   1      9.0249999999999986                  45.125      64.980000000000004
   102   1      7.2199999999999989      48.734999999999999                  45.125
   103   1      9.0249999999999986      46.929999999999993                  45.125
   104   1      9.0249999999999986      48.734999999999999                   43.32
   105   1      7.2199999999999989      46.929999999999993      46.929999999999993
   106   1      7.2199999999999989      48.734999999999999      48.734999999999999
   107   1      9.0249999999999986      46.929999999999993      48.734999999999999
   108   1      9.0249999999999986      48.734999999999999      46.929999999999993
   109   1      7.2199999999999989      46.929999999999993      50.539999999999992
   110   1      7.2199999999999989      48.734999999999999      52.344999999999999
   111   1      9.0249999999999986      46.929999999999993      52.344999999999999
   112   1      9.0249999999999986      48.734999999999999      50.539999999999992
   113   1      7.2199999999999989      46.929999999999993      54.149999999999999
   114   1      7.2199999999999989      48.734999999999999      55.954999999999991
   115   1      9.0249999999999986      46.929999999999993      55.954999999999991
   116   1      9.0249999999999986      48.734999999999999      54.149999999999999
   117   1      7.2199999999999989      46.929999999999993      57.759999999999991
   118   1      7.2199999999999989      48.734999999999999      59.564999999999998
   119   1      9.0249999999999986      46.929999999999993      59.564999999999998
   120   1      9.0249999999999986      48.734999999999999      57.759999999999991
   121   1      7.2199999999999989      46.929999999999993      61.369999999999997
   122   1      7.2199999999999989      48.734999999999999      63.175000000000011
   123   1      9.0249999999999986      46.929999999999993      63.175000000000011
   124   1      9.0249999999999986      48.734999999999999      61.369999999999997
   125   1      9.0249999999999986      48.734999999999999      64.980000000000004
   126   1      7.2199999999999989      52.344999999999999                  45.125
   127   1      9.0249999999999986      50.539999999999992                  45.125
   128   1      9.0249999999999986      52.344999999999999                   43.32
   129   1      7.2199999999999989      50.539999999999992      46.929999999999993
   130   1      7.2199999999999989      52.344999999999999      48.734999999999999
   131   1      9.0249999999999986      50.539999999999992      48.734999999999999
   132   1      9.0249999999999986      52.344999999999999      46.929999999999993
   133   1      7.2199999999999989      50.539999999999992      50.539999999999992
   134   1      7.2199999999999989      52.344999999999999      52.344999999999999
   135   1      9.0249999999999986      50.539999999999992      52.344999999999999
   136   1      9.0249999999999986      52.344999999999999      50.539999999999992
   137   1      7.2199999999999989      50.539999999999992      54.149999999999999
   138   1      7.2199999999999989      52.344999999999999      55.954999999999991
   139   1      9.0249999999999986      50.539999999999992      55.954999999999991
   140   1      9.0249999999999986      52.344999999999999      54.149999999999999
   141   1      7.2199999999999989      50.539999999999992      57.759999999999991
   142   1      7.2199999999999989      52.344999999999999      59.564999999999998
   143   1      9.0249999999999986      50.539999999999992      59.564999999999998
   144   1      9.0249999999999986      52.344999999999999      57.759999999999991
   145   1      7.2199999999999989      50.539999999999992      61.369999999999997
   146   1      7.2199999999999989      52.344999999999999      63.175000000000011
   147   1      9.0249999999999986      50.539999999999992      63.175000000000011
   148   1      9.0249999999999986      52.344999999999999      61.369999999999997
   149   1      9.0249999999999986      52.344999999999999      64.980000000000004
   150   1      7.2199999999999989      55.954999999999991                  45.125
   151   1      9.0249999999999986      54.149999999999999                  45.125
   152   1      9.0249999999999986      55.954999999999991                   43.32
   153   1      7.2199999999999989      54.149999999999999      46.929999999999993
   154   1      7.2199999999999989      55.954999999999991      48.734999999999999
   155   1      9.0249999999999986      54.149999999999999      48.734999999999999
   156   1      9.0249999999999986      55.954999999999991      46.929999999999993
   157   1      7.2199999999999989      54.149999999999999      50.539999999999992
   158   1      7.2199999999999989      55.954999999999991      52.344999999999999
   159   1      9.0249999999999986      54.149999999999999      52.344999999999999
   160   1      9.0249999999999986      55.954999999999991      50.539999999999992
   161   1      7.2199999999999989      54.149999999999999      54.149999999999999
   162   1      7.2199999999999989      55.954999999999991      55.954999999999991
   163   1      9.0249999999999986      54.149999999999999      55.954999999999991
   164   1      9.0249999999999986      55.954999999999991      54.149999999999999
   165   1      7.2199999999999989      54.149999999999999      57.759999999999991
   166   1      7.2199999999999989      55.954999999999991      59.564999999999998
   167   1      9.0249999999999986      54.149999999999999      59.564999999999998
   168   1      9.0249999999999986      55.954999999999991      57.759999999999991
   169   1      7.2199999999999989      54.149999999999999      61.369999999999997
   170   1      7.2199999999999989      55.954999999999991      63.175000000000011
   171   1      9.0249999999999986      54.149999999999999      63.175000000000011
   172   1      9.0249999999999986      55.954999999999991      61.369999999999997
   173   1      9.0249999999999986      55.954999999999991      64.980000000000004
   174   1      7.2199999999999989      59.564999999999998                  45.125
   175   1      9.0249999999999986      57.759999999999991                  45.125
   176   1      9.0249999999999986      59.564999999999998                   43.32
   177   1      7.2199999999999989      57.759999999999991      46.929999999999993
   178   1      7.2199999999999989      59.564999999999998      48.734999999999999
   179   1      9.0249999999999986      57.759999999999991      48.734999999999999
   180   1      9.0249999999999986      59.564999999999998      46.929999999999993
   181   1      7.2199999999999989      57.759999999999991      50.539999999999992
   182   1      7.2199999999999989      59.564999999999998      52.344999999999999
   183   1      9.0249999999999986      57.759999999999991      52.344999999999999
   184   1      9.0249999999999986      59.564999999999998      50.539999999999992
   185   1      7.2199999999999989      57.759999999999991      54.149999999999999
   186   1      7.2199999999999989      59.564999999999998      55.954999999999991
   187   1      9.0249999999999986      57.759999999999991      55.954999999999991
   188   1      9.0249999999999986      59.564999999999998      54.149999999999999
   189   1      7.2199999999999989      57.759999999999991      57.759999999999991
   190   1      7.2199999999999989      59.564999999999998      59.564999999999998
   191   1      9.0249999999999986      57.759999999999991      59.564999999999998
   192   1      9.0249999999999986      59.564999999999998      57.759999999999991
   193   1      7.2199999999999989      57.759999999999991      61.369999999999997
   194   1      7.2199999999999989      59.564999999999998      63.175000000000011
   195   1      9.0249999999999986      57.759999999999991      63.175000000000011
   196   1      9.0249999999999986      59.564999999999998      61.369999999999997
   197   1      9.0249999999999986      59.564999999999998      64.980000000000004
   198   1      7.2199999999999989      63.175000000000011                  45.125
   199   1      9.0249999999999986      61.369999999999997                  45.125
   200   1      9.0249999999999986      63.175000000000011                   43.32
   201   1      7.2199999999999989      61.369999999999997      46.929999999999993
   202   1      7.2199999999999989      63.175000000000011      48.734999999999999
   203   1      9.0249999999999986      61.369999999999997      48.734999999999999
   204   1      9.0249999999999986      63.175000000000011      46.929999999999993
   205   1      7.2199999999999989      61.369999999999997      50.539999999999992
   206   1      7.2199999999999989      63.175000000000011      52.344999999999999
   207   1      9.0249999999999986      61.369999999999997      52.344999999999999
   208   1      9.0249999999999986      63.175000000000011      50.539999999999992
   209   1      7.2199999999999989      61.369999999999997      54.149999999999999
   210   1      7.2199999999999989      63.175000000000011      55.954999999999991
   211   1      9.0249999999999986      61.369999999999997      55.954999999999991
   212   1      9.0249999999999986      63.175000000000011      54.149999999999999
   213   1      7.2199999999999989      61.369999999999997      57.759999999999991
   214   1      7.2199999999999989      63.175000000000011      59.564999999999998
   215   1      9.0249999999999986      61.369999999999997      59.564999999999998
   216   1      9.0249999999999986      63.175000000000011      57.759999999999991
   217   1      7.2199999999999989      61.369999999999997      61.369999999999997
   218   1      7.2199999999999989      63.175000000000011      63.175000000000011
   219   1      9.0249999999999986      61.369999999999997      63.175000000000011
   220   1      9.0249999999999986      63.175000000000011      61.369999999999997
   221   1      9.0249999999999986      63.175000000000011      64.980000000000004
   222   1      9.0249999999999986      64.980000000000004                  45.125
   223   1      9.0249999999999986      64.980000000000004      48.734999999999999
   224   1      9.0249999999999986      64.980000000000004      52.344999999999999
   225   1      9.0249999999999986      64.980000000000004      55.954999999999991
   226   1      9.0249999999999986      64.980000000000004      59.564999999999998
   227   1      9.0249999999999986      64.980000000000004      63.175000000000011
   228   1      10.829999999999998      41.515000000000001      41.515000000000001
   229   1      12.634999999999998      39.710000000000001      41.515000000000001
   230   1      12.634999999999998      41.515000000000001      39.710000000000001
   231   1      10.829999999999998      41.515000000000001                  45.125
   232   1      12.634999999999998      39.710000000000001                  45.125
   233   1      12.634999999999998      41.515000000000001                   43.32
   234   1      10.829999999999998      41.515000000000001      48.734999999999999
   235   1      12.634999999999998      39.710000000000001      48.734999999999999
   236   1      12.634999999999998      41.515000000000001      46.929999999999993
   237   1      10.829999999999998      41.515000000000001      52.344999999999999
   238   1      12.634999999999998      39.710000000000001      52.344999999999999
   239   1      12.634999999999998      41.515000000000001      50.539999999999992
   240   1      10.829999999999998      41.515000000000001      55.954999999999991
   241   1      12.634999999999998      39.710000000000001      55.954999999999991
   242   1      12.634999999999998      41.515000000000001      54.149999999999999
   243   1      10.829999999999998      41.515000000000001      59.564999999999998
   244   1      12.634999999999998      39.710000000000001      59.564999999999998
   245   1      12.634999999999998      41.515000000000001      57.759999999999991
   246   1      10.829999999999998      41.515000000000001      63.175000000000011
   247   1      12.634999999999998      39.710000000000001      63.175000000000011
   248   1      12.634999999999998      41.515000000000001      61.369999999999997
   249   1      10.829999999999998      41.515000000000001      66.785000000000011
   250   1      12.634999999999998      39.710000000000001      66.785000000000011
   251   1      12.634999999999998      41.515000000000001      64.980000000000004
   252   1      12.634999999999998      41.515000000000001      68.589999999999989
   253   1      10.829999999999998                  45.125      41.515000000000001
   254   1      12.634999999999998                   43.32      41.515000000000001
   255   1      12.634999999999998                  45.125      39.710000000000001
   256   1      10.829999999999998                   43.32                   43.32
   257   1      10.829999999999998                  45.125                  45.125
   258   1      12.634999999999998                   43.32                  45.125
   259   1      12.634999999999998                  45.125                   43.32
   260   1      10.829999999999998                   43.32      46.929999999999993
   261   1      10.829999999999998                  45.125      48.734999999999999
   262   1      12.634999999999998                   43.32      48.734999999999999
   263   1      12.634999999999998                  45.125      46.929999999999993
   264   1      10.829999999999998                   43.32      50.539999999999992
   265   1      10.829999999999998                  45.125      52.344999999999999
   266   1      12.634999999999998                   43.32      52.344999999999999
   267   1      12.634999999999998                  45.125      50.539999999999992
   268   1      10.829999999999998                   43.32      54.149999999999999
   269   1      10.829999999999998                  45.125      55.954999999999991
   270   1      12.634999999999998                   43.32      55.954999999999991
   271   1      12.634999999999998                  45.125      54.149999999999999
   272   1      10.829999999999998                   43.32      57.759999999999991
   273   1      10.829999999999998                  45.125      59.564999999999998
   274   1      12.634999999999998                   43.32      59.564999999999998
   275   1      12.634999999999998                  45.125      57.759999999999991
   276   1      10.829999999999998                   43.32      61.369999999999997
   277   1      10.829999999999998                  45.125      63.175000000000011
   278   1      12.634999999999998                   43.32      63.175000000000011
   279   1      12.634999999999998                  45.125      61.369999999999997
   280   1      10.829999999999998                   43.32      64.980000000000004
   281   1      10.829999999999998                  45.125      66.785000000000011
   282   1      12.634999999999998                   43.32      66.785000000000011
   283   1      12.634999999999998                  45.125      64.980000000000004
   284   1      12.634999999999998                  45.125      68.589999999999989
   285   1      10.829999999999998      48.734999999999999      41.515000000000001
   286   1      12.634999999999998      46.929999999999993      41.515000000000001
   287   1      12.634999999999998      48.734999999999999      39.710000000000001
   288   1      10.829999999999998      46.929999999999993                   43.32
   289   1      10.829999999999998      48.734999999999999                  45.125
   290   1      12.634999999999998      46.929999999999993                  45.125
   291   1      12.634999999999998      48.734999999999999                   43.32
   292   1      10.829999999999998      46.929999999999993      46.929999999999993
   293   1      10.829999999999998      48.734999999999999      48.734999999999999
   294   1      12.634999999999998      46.929999999999993      48.734999999999999
   295   1      12.634999999999998      48.734999999999999      46.929999999999993
   296   1      10.829999999999998      46.929999999999993      50.539999999999992
   297   1      10.829999999999998      48.734999999999999      52.344999999999999
   298   1      12.634999999999998      46.929999999999993      52.344999999999999
   299   1      12.634999999999998      48.734999999999999      50.539999999999992
   300   1      10.829999999999998      46.929999999999993      54.149999999999999
   301   1      10.829999999999998      48.734999999999999      55.954999999999991
   302   1      12.634999999999998      46.929999999999993      55.954999999999991
   303   1      12.634999999999998      48.734999999999999      54.149999999999999
   304   1      10.829999999999998      46.929999999999993      57.759999999999991
   305   1      10.829999999999998      48.734999999999999      59.564999999999998
   306   1      12.634999999999998      46.929999999999993      59.564999999999998
   307   1      12.634999999999998      48.734999999999999      57.759999999999991
   308   1      10.829999999999998      46.929999999999993      61.369999999999997
   309   1      10.829999999999998      48.734999999999999      63.175000000000011
   310   1      12.634999999999998      46.929999999999993      63.175000000000011
   311   1      12.634999999999998      48.734999999999999      61.369999999999997
   312   1      10.829999999999998      46.929999999999993      64.980000000000004
   313   1      10.829999999999998      48.734999999999999      66.785000000000011
   314   1      12.634999999999998      46.929999999999993      66.785000000000011
   315   1      12.634999999999998      48.734999999999999      64.980000000000004
   316   1      12.634999999999998      48.734999999999999      68.589999999999989
   317   1      10.829999999999998      52.344999999999999      41.515000000000001
   318   1      12.634999999999998      50.539999999999992      41.515000000000001
   319   1      12.634999999999998      52.344999999999999      39.710000000000001
   320   1      10.829999999999998      50.539999999999992                   43.32
   321   1      10.829999999999998      52.344999999999999                  45.125
   322   1      12.634999999999998      50.539999999999992                  45.125
   323   1      12.634999999999998      52.344999999999999                   43.32
   324   1      10.829999999999998      50.539999999999992      46.929999999999993
   325   1      10.829999999999998      52.344999999999999      48.734999999999999
   326   1      12.634999999999998      50.539999999999992      48.734999999999999
   327   1      12.634999999999998      52.344999999999999      46.929999999999993
   328   1      10.829999999999998      50.539999999999992      50.539999999999992
   329   1      10.829999999999998      52.344999999999999      52.344999999999999
   330   1      12.634999999999998      50.539999999999992      52.344999999999999
   331   1      12.634999999999998      52.344999999999999      50.539999999999992
   332   1      10.829999999999998      50.539999999999992      54.149999999999999
   333   1      10.829999999999998      52.344999999999999      55.954999999999991
   334   1      12.634999999999998      50.539999999999992      55.954999999999991
   335   1      12.634999999999998      52.344999999999999      54.149999999999999
   336   1      10.829999999999998      50.539999999999992      57.759999999999991
   337   1      10.829999999999998      52.344999999999999      59.564999999999998
   338   1      12.634999999999998      50.539999999999992      59.564999999999998
   339   1      12.634999999999998      52.344999999999999      57.759999999999991
   340   1      10.829999999999998      50.539999999999992      61.369999999999997
   341   1      10.829999999999998      52.344999999999999      63.175000000000011
   342   1      12.634999999999998      50.539999999999992      63.175000000000011
   343   1      12.634999999999998      52.344999999999999      61.369999999999997
   344   1      10.829999999999998      50.539999999999992      64.980000000000004
   345   1      10.829999999999998      52.344999999999999      66.785000000000011
   346   1      12.634999999999998      50.539999999999992      66.785000000000011
   347   1      12.634999999999998      52.344999999999999      64.980000000000004
   348   1      12.634999999999998      52.344999999999999      68.589999999999989
   349   1      10.829999999999998      55.954999999999991      41.515000000000001
   350   1      12.634999999999998      54.149999999999999      41.515000000000001
   351   1      12.634999999999998      55.954999999999991      39.710000000000001
   352   1      10.829999999999998      54.149999999999999                   43.32
   353   1      10.829999999999998      55.954999999999991                  45.125
   354   1      12.634999999999998      54.149999999999999                  45.125
   355   1      12.634999999999998      55.954999999999991                   43.32
   356   1      10.829999999999998      54.149999999999999      46.929999999999993
   357   1      10.829999999999998      55.954999999999991      48.734999999999999
   358   1      12.634999999999998      54.149999999999999      48.734999999999999