LAMMPS data file via write_data, version 30 Nov 2020, timestep = 0

30453 atoms
5 atom types

0 91 xlo xhi
0 91 ylo yhi
0 91 zlo zhi

Masses

1 58.69
2 58.933
3 51.96
4 55.847
5 54.94

Atoms # atomic

1 4 0 43.14000000000001 44.9375 0 0 0
2 4 0 44.9375 43.14000000000001 0 0 0
5 1 3.5949999999999993 32.35500000000001 44.9375 0 0 0
6 2 3.5949999999999993 34.1525 43.14000000000001 0 0 0
7 1 3.5949999999999993 35.95 41.34250000000001 0 0 0
9 3 3.5949999999999993 35.95 44.9375 0 0 0
11 1 3.5949999999999993 37.74750000000001 39.545 0 0 0
12 3 3.5949999999999993 39.545 37.74750000000001 0 0 0
13 2 1.7974999999999997 39.545 43.14000000000001 0 0 0
14 3 3.5949999999999993 37.74750000000001 43.14000000000001 0 0 0
15 2 3.5949999999999993 39.545 41.34250000000001 0 0 0
16 4 1.7974999999999997 37.74750000000001 44.9375 0 0 0
19 5 3.5949999999999993 39.545 44.9375 0 0 0
23 4 3.5949999999999993 41.34250000000001 35.95 0 0 0
24 1 3.5949999999999993 43.14000000000001 34.1525 0 0 0
25 1 1.7974999999999997 43.14000000000001 39.545 0 0 0
26 2 3.5949999999999993 41.34250000000001 39.545 0 0 0
27 3 3.5949999999999993 43.14000000000001 37.74750000000001 0 0 0
28 1 1.7974999999999997 41.34250000000001 41.34250000000001 0 0 0
29 1 1.7974999999999997 43.14000000000001 43.14000000000001 0 0 0
30 5 3.5949999999999993 41.34250000000001 43.14000000000001 0 0 0
31 5 3.5949999999999993 43.14000000000001 41.34250000000001 0 0 0
32 3 1.7974999999999997 41.34250000000001 44.9375 0 0 0
35 2 3.5949999999999993 43.14000000000001 44.9375 0 0 0
43 3 3.5949999999999993 44.9375 32.35500000000001 0 0 0
44 5 3.5949999999999993 44.9375 35.95 0 0 0
46 3 1.7974999999999997 44.9375 37.74750000000001 0 0 0
48 2 3.5949999999999993 44.9375 39.545 0 0 0
50 5 1.7974999999999997 44.9375 41.34250000000001 0 0 0
52 3 3.5949999999999993 44.9375 43.14000000000001 0 0 0
54 5 1.7974999999999997 44.9375 44.9375 0 0 0
94 4 7.189999999999999 21.570000000000004 44.9375 0 0 0
95 5 7.189999999999999 23.367500000000003 43.14000000000001 0 0 0
96 3 7.189999999999999 25.165000000000003 41.34250000000001 0 0 0
98 1 7.189999999999999 25.165000000000003 44.9375 0 0 0
100 5 7.189999999999999 26.962500000000006 39.545 0 0 0
101 4 7.189999999999999 28.76 37.74750000000001 0 0 0
102 4 5.392499999999998 28.76 43.14000000000001 0 0 0
103 3 7.189999999999999 26.962500000000006 43.14000000000001 0 0 0
104 3 7.189999999999999 28.76 41.34250000000001 0 0 0
105 2 5.392499999999998 26.962500000000006 44.9375 0 0 0
108 2 7.189999999999999 28.76 44.9375 0 0 0
112 3 7.189999999999999 30.557500000000005 35.95 0 0 0
113 5 7.189999999999999 32.35500000000001 34.1525 0 0 0
114 5 5.392499999999998 32.35500000000001 39.545 0 0 0
115 3 7.189999999999999 30.557500000000005 39.545 0 0 0
116 3 7.189999999999999 32.35500000000001 37.74750000000001 0 0 0
117 5 5.392499999999998 30.557500000000005 41.34250000000001 0 0 0
118 2 5.392499999999998 32.35500000000001 43.14000000000001 0 0 0
119 2 7.189999999999999 30.557500000000005 43.14000000000001 0 0 0
120 1 7.189999999999999 32.35500000000001 41.34250000000001 0 0 0
121 4 5.392499999999998 30.557500000000005 44.9375 0 0 0
124 2 7.189999999999999 32.35500000000001 44.9375 0 0 0
132 3 7.189999999999999 34.1525 32.35500000000001 0 0 0
133 1 7.189999999999999 35.95 30.557500000000005 0 0 0
134 5 5.392499999999998 35.95 35.95 0 0 0
135 5 7.189999999999999 34.1525 35.95 0 0 0
136 5 7.189999999999999 35.95 34.1525 0 0 0
137 3 5.392499999999998 34.1525 37.74750000000001 0 0 0
138 3 5.392499999999998 35.95 39.545 0 0 0
139 1 7.189999999999999 34.1525 39.545 0 0 0
140 4 7.189999999999999 35.95 37.74750000000001 0 0 0
141 3 5.392499999999998 34.1525 41.34250000000001 0 0 0
142 3 5.392499999999998 35.95 43.14000000000001 0 0 0
143 4 7.189999999999999 34.1525 43.14000000000001 0 0 0
144 2 7.189999999999999 35.95 41.34250000000001 0 0 0
145 3 5.392499999999998 34.1525 44.9375 0 0 0
148 3 7.189999999999999 35.95 44.9375 0 0 0
160 2 7.189999999999999 37.74750000000001 28.76 0 0 0
161 3 7.189999999999999 39.545 26.962500000000006 0 0 0
162 1 5.392499999999998 39.545 32.35500000000001 0 0 0
163 3 7.189999999999999 37.74750000000001 32.35500000000001 0 0 0
164 4 7.189999999999999 39.545 30.557500000000005 0 0 0
165 1 5.392499999999998 37.74750000000001 34.1525 0 0 0
166 4 5.392499999999998 39.545 35.95 0 0 0
167 3 7.189999999999999 37.74750000000001 35.95 0 0 0
168 1 7.189999999999999 39.545 34.1525 0 0 0
169 5 5.392499999999998 37.74750000000001 37.74750000000001 0 0 0
170 1 5.392499999999998 39.545 39.545 0 0 0
171 2 7.189999999999999 37.74750000000001 39.545 0 0 0
172 1 7.189999999999999 39.545 37.74750000000001 0 0 0
173 3 5.392499999999998 37.74750000000001 41.34250000000001 0 0 0
174 1 5.392499999999998 39.545 43.14000000000001 0 0 0
175 5 7.189999999999999 37.74750000000001 43.14000000000001 0 0 0
176 1 7.189999999999999 39.545 41.34250000000001 0 0 0
177 5 5.392499999999998 37.74750000000001 44.9375 0 0 0
180 5 7.189999999999999 39.545 44.9375 0 0 0
196 3 7.189999999999999 41.34250000000001 25.165000000000003 0 0 0
197 1 7.189999999999999 43.14000000000001 23.367500000000003 0 0 0
198 4 5.392499999999998 43.14000000000001 28.76 0 0 0
199 5 7.189999999999999 41.34250000000001 28.76 0 0 0
200 1 7.189999999999999 43.14000000000001 26.962500000000006 0 0 0
201 3 5.392499999999998 41.34250000000001 30.557500000000005 0 0 0
202 5 5.392499999999998 43.14000000000001 32.35500000000001 0 0 0
203 5 7.189999999999999 41.34250000000001 32.35500000000001 0 0 0
204 1 7.189999999999999 43.14000000000001 30.557500000000005 0 0 0
205 1 5.392499999999998 41.34250000000001 34.1525 0 0 0
206 3 5.392499999999998 43.14000000000001 35.95 0 0 0
207 3 7.189999999999999 41.34250000000001 35.95 0 0 0
208 3 7.189999999999999 43.14000000000001 34.1525 0 0 0
209 3 5.392499999999998 41.34250000000001 37.74750000000001 0 0 0
210 4 5.392499999999998 43.14000000000001 39.545 0 0 0
211 2 7.189999999999999 41.34250000000001 39.545 0 0 0
212 3 7.189999999999999 43.14000000000001 37.74750000000001 0 0 0
213 5 5.392499999999998 41.34250000000001 41.34250000000001 0 0 0
214 3 5.392499999999998 43.14000000000001 43.14000000000001 0 0 0
215 4 7.189999999999999 41.34250000000001 43.14000000000001 0 0 0
216 3 7.189999999999999 43.14000000000001 41.34250000000001 0 0 0
217 5 5.392499999999998 41.34250000000001 44.9375 0 0 0
220 1 7.189999999999999 43.14000000000001 44.9375 0 0 0
240 4 7.189999999999999 44.9375 21.570000000000004 0 0 0
241 4 7.189999999999999 44.9375 25.165000000000003 0 0 0
243 4 5.392499999999998 44.9375 26.962500000000006 0 0 0
245 3 7.189999999999999 44.9375 28.76 0 0 0
247 3 5.392499999999998 44.9375 30.557500000000005 0 0 0
249 1 7.189999999999999 44.9375 32.35500000000001 0 0 0
251 4 5.392499999999998 44.9375 34.1525 0 0 0
253 5 7.189999999999999 44.9375 35.95 0 0 0
255 3 5.392499999999998 44.9375 37.74750000000001 0 0 0
257 1 7.189999999999999 44.9375 39.545 0 0 0
259 3 5.392499999999998 44.9375 41.34250000000001 0 0 0
261 4 7.189999999999999 44.9375 43.14000000000001 0 0 0
263 1 5.392499999999998 44.9375 44.9375 0 0 0
411 1 10.784999999999997 10.784999999999997 44.9375 0 0 0
412 3 10.784999999999997 12.582500000000003 43.14000000000001 0 0 0
413 1 10.784999999999997 14.380000000000004 41.34250000000001 0 0 0
415 1 10.784999999999997 14.380000000000004 44.9375 0 0 0
417 5 10.784999999999997 16.177500000000006 39.545 0 0 0
418 3 10.784999999999997 17.975 37.74750000000001 0 0 0
419 5 8.987499999999999 17.975 43.14000000000001 0 0 0
420 1 10.784999999999997 16.177500000000006 43.14000000000001 0 0 0
421 2 10.784999999999997 17.975 41.34250000000001 0 0 0
422 2 8.987499999999999 16.177500000000006 44.9375 0 0 0
425 5 10.784999999999997 17.975 44.9375 0 0 0
429 4 10.784999999999997 19.7725 35.95 0 0 0
430 1 10.784999999999997 21.570000000000004 34.1525 0 0 0
431 5 8.987499999999999 21.570000000000004 39.545 0 0 0
432 2 10.784999999999997 19.7725 39.545 0 0 0
433 4 10.784999999999997 21.570000000000004 37.74750000000001 0 0 0
434 3 8.987499999999999 19.7725 41.34250000000001 0 0 0
435 2 8.987499999999999 21.570000000000004 43.14000000000001 0 0 0
436 5 10.784999999999997 19.7725 43.14000000000001 0 0 0
437 1 10.784999999999997 21.570000000000004 41.34250000000001 0 0 0
438 1 8.987499999999999 19.7725 44.9375 0 0 0
441 2 10.784999999999997 21.570000000000004 44.9375 0 0 0
449 3 10.784999999999997 23.367500000000003 32.35500000000001 0 0 0
450 1 10.784999999999997 25.165000000000003 30.557500000000005 0 0 0
451 1 8.987499999999999 25.165000000000003 35.95 0 0 0
452 5 10.784999999999997 23.367500000000003 35.95 0 0 0
453 2 10.784999999999997 25.165000000000003 34.1525 0 0 0
454 2 8.987499999999999 23.367500000000003 37.74750000000001 0 0 0
455 4 8.987499999999999 25.165000000000003 39.545 0 0 0
456 3 10.784999999999997 23.367500000000003 39.545 0 0 0
457 5 10.784999999999997 25.165000000000003 37.74750000000001 0 0 0
458 3 8.987499999999999 23.367500000000003 41.34250000000001 0 0 0
459 2 8.987499999999999 25.165000000000003 43.14000000000001 0 0 0
460 1 10.784999999999997 23.367500000000003 43.14000000000001 0 0 0
461 4 10.784999999999997 25.165000000000003 41.34250000000001 0 0 0
462 5 8.987499999999999 23.367500000000003 44.9375 0 0 0
465 4 10.784999999999997 25.165000000000003 44.9375 0 0 0
477 2 10.784999999999997 26.962500000000006 28.76 0 0 0
478 3 10.784999999999997 28.76 26.962500000000006 0 0 0
479 1 8.987499999999999 28.76 32.35500000000001 0 0 0
480 3 10.784999999999997 26.962500000000006 32.35500000000001 0 0 0
481 2 10.784999999999997 28.76 30.557500000000005 0 0 0
482 1 8.987499999999999 26.962500000000006 34.1525 0 0 0
483 1 8.987499999999999 28.76 35.95 0 0 0
484 3 10.784999999999997 26.962500000000006 35.95 0 0 0
485 5 10.784999999999997 28.76 34.1525 0 0 0
486 2 8.987499999999999 26.962500000000006 37.74750000000001 0 0 0
487 4 8.987499999999999 28.76 39.545 0 0 0
488 3 10.784999999999997 26.962500000000006 39.545 0 0 0
489 2 10.784999999999997 28.76 37.74750000000001 0 0 0
490 1 8.987499999999999 26.962500000000006 41.34250000000001 0 0 0
491 1 8.987499999999999 28.76 43.14000000000001 0 0 0
492 4 10.784999999999997 26.962500000000006 43.14000000000001 0 0 0
493 1 10.784999999999997 28.76 41.34250000000001 0 0 0
494 5 8.987499999999999 26.962500000000006 44.9375 0 0 0
497 4 10.784999999999997 28.76 44.9375 0 0 0
513 3 10.784999999999997 30.557500000000005 25.165000000000003 0 0 0
514 1 10.784999999999997 32.35500000000001 23.367500000000003 0 0 0
515 3 8.987499999999999 32.35500000000001 28.76 0 0 0
516 3 10.784999999999997 30.557500000000005 28.76 0 0 0
517 5 10.784999999999997 32.35500000000001 26.962500000000006 0 0 0
518 5 8.987499999999999 30.557500000000005 30.557500000000005 0 0 0
519 3 8.987499999999999 32.35500000000001 32.35500000000001 0 0 0
520 2 10.784999999999997 30.557500000000005 32.35500000000001 0 0 0
521 3 10.784999999999997 32.35500000000001 30.557500000000005 0 0 0
522 2 8.987499999999999 30.557500000000005 34.1525 0 0 0
523 2 8.987499999999999 32.35500000000001 35.95 0 0 0
524 1 10.784999999999997 30.557500000000005 35.95 0 0 0
525 4 10.784999999999997 32.35500000000001 34.1525 0 0 0
526 4 8.987499999999999 30.557500000000005 37.74750000000001 0 0 0
527 1 8.987499999999999 32.35500000000001 39.545 0 0 0
528 4 10.784999999999997 30.557500000000005 39.545 0 0 0
529 3 10.784999999999997 32.35500000000001 37.74750000000001 0 0 0
530 3 8.987499999999999 30.557500000000005 41.34250000000001 0 0 0
531 5 8.987499999999999 32.35500000000001 43.14000000000001 0 0 0
532 2 10.784999999999997 30.557500000000005 43.14000000000001 0 0 0
533 4 10.784999999999997 32.35500000000001 41.34250000000001 0 0 0
534 5 8.987499999999999 30.557500000000005 44.9375 0 0 0
537 5 10.784999999999997 32.35500000000001 44.9375 0 0 0
557 3 10.784999999999997 34.1525 21.570000000000004 0 0 0
558 1 10.784999999999997 35.95 19.7725 0 0 0
559 5 8.987499999999999 35.95 25.165000000000003 0 0 0
560 2 10.784999999999997 34.1525 25.165000000000003 0 0 0
561 5 10.784999999999997 35.95 23.367500000000003 0 0 0
562 3 8.987499999999999 34.1525 26.962500000000006 0 0 0
563 5 8.987499999999999 35.95 28.76 0 0 0
564 1 10.784999999999997 34.1525 28.76 0 0 0
565 5 10.784999999999997 35.95 26.962500000000006 0 0 0
566 1 8.987499999999999 34.1525 30.557500000000005 0 0 0
567 2 8.987499999999999 35.95 32.35500000000001 0 0 0
568 2 10.784999999999997 34.1525 32.35500000000001 0 0 0
569 5 10.784999999999997 35.95 30.557500000000005 0 0 0
570 5 8.987499999999999 34.1525 34.1525 0 0 0
571 4 8.987499999999999 35.95 35.95 0 0 0
572 4 10.784999999999997 34.1525 35.95 0 0 0
573 4 10.784999999999997 35.95 34.1525 0 0 0
574 4 8.987499999999999 34.1525 37.74750000000001 0 0 0
575 4 8.987499999999999 35.95 39.545 0 0 0
576 3 10.784999999999997 34.1525 39.545 0 0 0
577 2 10.784999999999997 35.95 37.74750000000001 0 0 0
578 5 8.987499999999999 34.1525 41.34250000000001 0 0 0
579 4 8.987499999999999 35.95 43.14000000000001 0 0 0
580 5 10.784999999999997 34.1525 43.14000000000001 0 0 0
581 5 10.784999999999997 35.95 41.34250000000001 0 0 0
582 2 8.987499999999999 34.1525 44.9375 0 0 0
585 3 10.784999999999997 35.95 44.9375 0 0 0
609 3 10.784999999999997 37.74750000000001 17.975 0 0 0
610 5 10.784999999999997 39.545 16.177500000000006 0 0 0
611 3 8.987499999999999 39.545 21.570000000000004 0 0 0
612 4 10.784999999999997 37.74750000000001 21.570000000000004 0 0 0
613 1 10.784999999999997 39.545 19.7725 0 0 0
614 5 8.987499999999999 37.74750000000001 23.367500000000003 0 0 0
615 3 8.987499999999999 39.545 25.165000000000003 0 0 0
616 1 10.784999999999997 37.74750000000001 25.165000000000003 0 0 0
617 5 10.784999999999997 39.545 23.367500000000003 0 0 0
618 1 8.987499999999999 37.74750000000001 26.962500000000006 0 0 0
619 3 8.987499999999999 39.545 28.76 0 0 0
620 3 10.784999999999997 37.74750000000001 28.76 0 0 0
621 3 10.784999999999997 39.545 26.962500000000006 0 0 0
622 5 8.987499999999999 37.74750000000001 30.557500000000005 0 0 0
623 1 8.987499999999999 39.545 32.35500000000001 0 0 0
624 3 10.784999999999997 37.74750000000001 32.35500000000001 0 0 0
625 5 10.784999999999997 39.545 30.557500000000005 0 0 0
626 1 8.987499999999999 37.74750000000001 34.1525 0 0 0
627 3 8.987499999999999 39.545 35.95 0 0 0
628 2 10.784999999999997 37.74750000000001 35.95 0 0 0
629 4 10.784999999999997 39.545 34.1525 0 0 0
630 4 8.987499999999999 37.74750000000001 37.74750000000001 0 0 0
631 4 8.987499999999999 39.545 39.545 0 0 0
632 1 10.784999999999997 37.74750000000001 39.545 0 0 0
633 5 10.784999999999997 39.545 37.74750000000001 0 0 0
634 2 8.987499999999999 37.74750000000001 41.34250000000001 0 0 0
635 5 8.987499999999999 39.545 43.14000000000001 0 0 0
636 3 10.784999999999997 37.74750000000001 43.14000000000001 0 0 0
637 5 10.784999999999997 39.545 41.34250000000001 0 0 0
638 1 8.987499999999999 37.74750000000001 44.9375 0 0 0
641 5 10.784999999999997 39.545 44.9375 0 0 0
669 2 10.784999999999997 41.34250000000001 14.380000000000004 0 0 0
670 2 10.784999999999997 43.14000000000001 12.582500000000003 0 0 0
671 3 8.987499999999999 43.14000000000001 17.975 0 0 0
672 4 10.784999999999997 41.34250000000001 17.975 0 0 0
673 5 10.784999999999997 43.14000000000001 16.177500000000006 0 0 0
674 5 8.987499999999999 41.34250000000001 19.7725 0 0 0
675 5 8.987499999999999 43.14000000000001 21.570000000000004 0 0 0
676 2 10.784999999999997 41.34250000000001 21.570000000000004 0 0 0
677 3 10.784999999999997 43.14000000000001 19.7725 0 0 0
678 4 8.987499999999999 41.34250000000001 23.367500000000003 0 0 0
679 5 8.987499999999999 43.14000000000001 25.165000000000003 0 0 0
680 1 10.784999999999997 41.34250000000001 25.165000000000003 0 0 0
681 5 10.784999999999997 43.14000000000001 23.367500000000003 0 0 0
682 4 8.987499999999999 41.34250000000001 26.962500000000006 0 0 0
683 4 8.987499999999999 43.14000000000001 28.76 0 0 0
684 4 10.784999999999997 41.34250000000001 28.76 0 0 0
685 3 10.784999999999997 43.14000000000001 26.962500000000006 0 0 0
686 3 8.987499999999999 41.34250000000001 30.557500000000005 0 0 0
687 2 8.987499999999999 43.14000000000001 32.35500000000001 0 0 0
688 2 10.784999999999997 41.34250000000001 32.35500000000001 0 0 0
689 2 10.784999999999997 43.14000000000001 30.557500000000005 0 0 0
690 4 8.987499999999999 41.34250000000001 34.1525 0 0 0
691 5 8.987499999999999 43.14000000000001 35.95 0 0 0
692 5 10.784999999999997 41.34250000000001 35.95 0 0 0
693 4 10.784999999999997 43.14000000000001 34.1525 0 0 0
694 4 8.987499999999999 41.34250000000001 37.74750000000001 0 0 0
695 2 8.987499999999999 43.14000000000001 39.545 0 0 0
696 5 10.784999999999997 41.34250000000001 39.545 0 0 0
697 3 10.784999999999997 43.14000000000001 37.74750000000001 0 0 0
698 3 8.987499999999999 41.34250000000001 41.34250000000001 0 0 0
699 1 8.987499999999999 43.14000000000001 43.14000000000001 0 0 0
700 3 10.784999999999997 41.34250000000001 43.14000000000001 0 0 0
701 5 10.784999999999997 43.14000000000001 41.34250000000001 0 0 0
702 5 8.987499999999999 41.34250000000001 44.9375 0 0 0
705 4 10.784999999999997 43.14000000000001 44.9375 0 0 0
737 5 10.784999999999997 44.9375 10.784999999999997 0 0 0
738 4 10.784999999999997 44.9375 14.380000000000004 0 0 0
740 5 8.987499999999999 44.9375 16.177500000000006 0 0 0
742 5 10.784999999999997 44.9375 17.975 0 0 0
744 4 8.987499999999999 44.9375 19.7725 0 0 0
746 1 10.784999999999997 44.9375 21.570000000000004 0 0 0
748 3 8.987499999999999 44.9375 23.367500000000003 0 0 0
750 3 10.784999999999997 44.9375 25.165000000000003 0 0 0
752 3 8.987499999999999 44.9375 26.962500000000006 0 0 0
754 5 10.784999999999997 44.9375 28.76 0 0 0
756 2 8.987499999999999 44.9375 30.557500000000005 0 0 0
758 5 10.784999999999997 44.9375 32.35500000000001 0 0 0
760 3 8.987499999999999 44.9375 34.1525 0 0 0
762 4 10.784999999999997 44.9375 35.95 0 0 0
764 1 8.987499999999999 44.9375 37.74750000000001 0 0 0
766 4 10.784999999999997 44.9375 39.545 0 0 0
768 1 8.987499999999999 44.9375 41.34250000000001 0 0 0
770 2 10.784999999999997 44.9375 43.14000000000001 0 0 0
772 1 8.987499999999999 44.9375 44.9375 0 0 0
1100 3 12.582500000000003 10.784999999999997 43.14000000000001 0 0 0
1101 4 14.380000000000004 10.784999999999997 41.34250000000001 0 0 0
1103 5 14.380000000000004 10.784999999999997 44.9375 0 0 0
1105 3 14.380000000000004 14.380000000000004 30.557500000000005 0 0 0
1106 2 12.582500000000003 14.380000000000004 35.95 0 0 0
1107 5 14.380000000000004 12.582500000000003 35.95 0 0 0
1108 1 14.380000000000004 14.380000000000004 34.1525 0 0 0
1109 1 12.582500000000003 12.582500000000003 37.74750000000001 0 0 0
1110 4 12.582500000000003 14.380000000000004 39.545 0 0 0
1111 1 14.380000000000004 12.582500000000003 39.545 0 0 0
1112 1 14.380000000000004 14.380000000000004 37.74750000000001 0 0 0
1113 2 12.582500000000003 12.582500000000003 41.34250000000001 0 0 0
1114 3 12.582500000000003 14.380000000000004 43.14000000000001 0 0 0
1115 5 14.380000000000004 12.582500000000003 43.14000000000001 0 0 0
1116 5 14.380000000000004 14.380000000000004 41.34250000000001 0 0 0
1117 5 12.582500000000003 12.582500000000003 44.9375 0 0 0
1120 4 14.380000000000004 14.380000000000004 44.9375 0 0 0
1131 5 14.380000000000004 16.177500000000006 28.76 0 0 0
1132 5 14.380000000000004 17.975 26.962500000000006 0 0 0
1133 1 12.582500000000003 17.975 32.35500000000001 0 0 0
1134 2 14.380000000000004 16.177500000000006 32.35500000000001 0 0 0
1135 2 14.380000000000004 17.975 30.557500000000005 0 0 0
1136 1 12.582500000000003 16.177500000000006 34.1525 0 0 0
1137 2 12.582500000000003 17.975 35.95 0 0 0
1138 5 14.380000000000004 16.177500000000006 35.95 0 0 0
1139 3 14.380000000000004 17.975 34.1525 0 0 0
1140 4 12.582500000000003 16.177500000000006 37.74750000000001 0 0 0
1141 3 12.582500000000003 17.975 39.545 0 0 0
1142 3 14.380000000000004 16.177500000000006 39.545 0 0 0
1143 3 14.380000000000004 17.975 37.74750000000001 0 0 0
1144 2 12.582500000000003 16.177500000000006 41.34250000000001 0 0 0
1145 3 12.582500000000003 17.975 43.14000000000001 0 0 0
1146 3 14.380000000000004 16.177500000000006 43.14000000000001 0 0 0
1147 3 14.380000000000004 17.975 41.34250000000001 0 0 0
1148 3 12.582500000000003 16.177500000000006 44.9375 0 0 0
1151 2 14.380000000000004 17.975 44.9375 0 0 0
1167 2 14.380000000000004 19.7725 25.165000000000003 0 0 0
1168 4 14.380000000000004 21.570000000000004 23.367500000000003 0 0 0
1169 2 12.582500000000003 21.570000000000004 28.76 0 0 0
1170 2 14.380000000000004 19.7725 28.76 0 0 0
1171 5 14.380000000000004 21.570000000000004 26.962500000000006 0 0 0
1172 5 12.582500000000003 19.7725 30.557500000000005 0 0 0
1173 1 12.582500000000003 21.570000000000004 32.35500000000001 0 0 0
1174 2 14.380000000000004 19.7725 32.35500000000001 0 0 0
1175 2 14.380000000000004 21.570000000000004 30.557500000000005 0 0 0
1176 2 12.582500000000003 19.7725 34.1525 0 0 0
1177 3 12.582500000000003 21.570000000000004 35.95 0 0 0
1178 3 14.380000000000004 19.7725 35.95 0 0 0
1179 4 14.380000000000004 21.570000000000004 34.1525 0 0 0
1180 5 12.582500000000003 19.7725 37.74750000000001 0 0 0
1181 5 12.582500000000003 21.570000000000004 39.545 0 0 0
1182 1 14.380000000000004 19.7725 39.545 0 0 0
1183 2 14.380000000000004 21.570000000000004 37.74750000000001 0 0 0
1184 3 12.582500000000003 19.7725 41.34250000000001 0 0 0
1185 1 12.582500000000003 21.570000000000004 43.14000000000001 0 0 0
1186 1 14.380000000000004 19.7725 43.14000000000001 0 0 0
1187 4 14.380000000000004 21.570000000000004 41.34250000000001 0 0 0
1188 3 12.582500000000003 19.7725 44.9375 0 0 0
1191 2 14.380000000000004 21.570000000000004 44.9375 0 0 0
1211 2 14.380000000000004 23.367500000000003 21.570000000000004 0 0 0
1212 3 14.380000000000004 25.165000000000003 19.7725 0 0 0
1213 4 12.582500000000003 25.165000000000003 25.165000000000003 0 0 0
1214 5 14.380000000000004 23.367500000000003 25.165000000000003 0 0 0
1215 4 14.380000000000004 25.165000000000003 23.367500000000003 0 0 0
1216 5 12.582500000000003 23.367500000000003 26.962500000000006 0 0 0
1217 1 12.582500000000003 25.165000000000003 28.76 0 0 0
1218 4 14.380000000000004 23.367500000000003 28.76 0 0 0
1219 5 14.380000000000004 25.165000000000003 26.962500000000006 0 0 0
1220 2 12.582500000000003 23.367500000000003 30.557500000000005 0 0 0
1221 4 12.582500000000003 25.165000000000003 32.35500000000001 0 0 0
1222 4 14.380000000000004 23.367500000000003 32.35500000000001 0 0 0
1223 5 14.380000000000004 25.165000000000003 30.557500000000005 0 0 0
1224 2 12.582500000000003 23.367500000000003 34.1525 0 0 0
1225 5 12.582500000000003 25.165000000000003 35.95 0 0 0
1226 4 14.380000000000004 23.367500000000003 35.95 0 0 0
1227 3 14.380000000000004 25.165000000000003 34.1525 0 0 0
1228 2 12.582500000000003 23.367500000000003 37.74750000000001 0 0 0
1229 5 12.582500000000003 25.165000000000003 39.545 0 0 0
1230 2 14.380000000000004 23.367500000000003 39.545 0 0 0
1231 3 14.380000000000004 25.165000000000003 37.74750000000001 0 0 0
1232 5 12.582500000000003 23.367500000000003 41.34250000000001 0 0 0
1233 5 12.582500000000003 25.165000000000003 43.14000000000001 0 0 0
1234 2 14.380000000000004 23.367500000000003 43.14000000000001 0 0 0
1235 5 14.380000000000004 25.165000000000003 41.34250000000001 0 0 0
1236 4 12.582500000000003 23.367500000000003 44.9375 0 0 0
1239 2 14.380000000000004 25.165000000000003 44.9375 0 0 0
1263 3 14.380000000000004 26.962500000000006 17.975 0 0 0
1264 3 14.380000000000004 28.76 16.177500000000006 0 0 0
1265 2 12.582500000000003 28.76 21.570000000000004 0 0 0
1266 2 14.380000000000004 26.962500000000006 21.570000000000004 0 0 0
1267 2 14.380000000000004 28.76 19.7725 0 0 0
1268 3 12.582500000000003 26.962500000000006 23.367500000000003 0 0 0
1269 1 12.582500000000003 28.76 25.165000000000003 0 0 0
1270 4 14.380000000000004 26.962500000000006 25.165000000000003 0 0 0
1271 5 14.380000000000004 28.76 23.367500000000003 0 0 0
1272 2 12.582500000000003 26.962500000000006 26.962500000000006 0 0 0
1273 3 12.582500000000003 28.76 28.76 0 0 0
1274 5 14.380000000000004 26.962500000000006 28.76 0 0 0
1275 3 14.380000000000004 28.76 26.962500000000006 0 0 0
1276 4 12.582500000000003 26.962500000000006 30.557500000000005 0 0 0
1277 4 12.582500000000003 28.76 32.35500000000001 0 0 0
1278 1 14.380000000000004 26.962500000000006 32.35500000000001 0 0 0
1279 1 14.380000000000004 28.76 30.557500000000005 0 0 0
1280 3 12.582500000000003 26.962500000000006 34.1525 0 0 0
1281 5 12.582500000000003 28.76 35.95 0 0 0
1282 4 14.380000000000004 26.962500000000006 35.95 0 0 0
1283 1 14.380000000000004 28.76 34.1525 0 0 0
1284 3 12.582500000000003 26.962500000000006 37.74750000000001 0 0 0
1285 4 12.582500000000003 28.76 39.545 0 0 0
1286 2 14.380000000000004 26.962500000000006 39.545 0 0 0
1287 2 14.380000000000004 28.76 37.74750000000001 0 0 0
1288 4 12.582500000000003 26.962500000000006 41.34250000000001 0 0 0
1289 3 12.582500000000003 28.76 43.14000000000001 0 0 0
1290 4 14.380000000000004 26.962500000000006 43.14000000000001 0 0 0
1291 1 14.380000000000004 28.76 41.34250000000001 0 0 0
1292 3 12.582500000000003 26.962500000000006 44.9375 0 0 0
1295 2 14.380000000000004 28.76 44.9375 0 0 0
1323 5 14.380000000000004 30.557500000000005 14.380000000000004 0 0 0
1324 2 12.582500000000003 32.35500000000001 17.975 0 0 0
1325 2 14.380000000000004 30.557500000000005 17.975 0 0 0
1326 3 14.380000000000004 32.35500000000001 16.177500000000006 0 0 0
1327 4 12.582500000000003 30.557500000000005 19.7725 0 0 0
1328 3 12.582500000000003 32.35500000000001 21.570000000000004 0 0 0
1329 3 14.380000000000004 30.557500000000005 21.570000000000004 0 0 0
1330 2 14.380000000000004 32.35500000000001 19.7725 0 0 0
1331 3 12.582500000000003 30.557500000000005 23.367500000000003 0 0 0
1332 5 12.582500000000003 32.35500000000001 25.165000000000003 0 0 0
1333 5 14.380000000000004 30.557500000000005 25.165000000000003 0 0 0
1334 5 14.380000000000004 32.35500000000001 23.367500000000003 0 0 0
1335 2 12.582500000000003 30.557500000000005 26.962500000000006 0 0 0
1336 4 12.582500000000003 32.35500000000001 28.76 0 0 0
1337 5 14.380000000000004 30.557500000000005 28.76 0 0 0
1338 3 14.380000000000004 32.35500000000001 26.962500000000006 0 0 0
1339 4 12.582500000000003 30.557500000000005 30.557500000000005 0 0 0
1340 4 12.582500000000003 32.35500000000001 32.35500000000001 0 0 0
1341 1 14.380000000000004 30.557500000000005 32.35500000000001 0 0 0
1342 5 14.380000000000004 32.35500000000001 30.557500000000005 0 0 0
1343 2 12.582500000000003 30.557500000000005 34.1525 0 0 0
1344 5 12.582500000000003 32.35500000000001 35.95 0 0 0
1345 1 14.380000000000004 30.557500000000005 35.95 0 0 0
1346 5 14.380000000000004 32.35500000000001 34.1525 0 0 0
1347 4 12.582500000000003 30.557500000000005 37.74750000000001 0 0 0
1348 5 12.582500000000003 32.35500000000001 39.545 0 0 0
1349 2 14.380000000000004 30.557500000000005 39.545 0 0 0
1350 1 14.380000000000004 32.35500000000001 37.74750000000001 0 0 0
1351 1 12.582500000000003 30.557500000000005 41.34250000000001 0 0 0
1352 5 12.582500000000003 32.35500000000001 43.14000000000001 0 0 0
1353 4 14.380000000000004 30.557500000000005 43.14000000000001 0 0 0
1354 2 14.380000000000004 32.35500000000001 41.34250000000001 0 0 0
1355 3 12.582500000000003 30.557500000000005 44.9375 0 0 0
1358 5 14.380000000000004 32.35500000000001 44.9375 0 0 0
1389 2 12.582500000000003 35.95 14.380000000000004 0 0 0
1390 4 14.380000000000004 34.1525 14.380000000000004 0 0 0
1391 4 14.380000000000004 35.95 12.582500000000003 0 0 0
1392 3 12.582500000000003 34.1525 16.177500000000006 0 0 0
1393 3 12.582500000000003 35.95 17.975 0 0 0
1394 1 14.380000000000004 34.1525 17.975 0 0 0
1395 4 14.380000000000004 35.95 16.177500000000006 0 0 0
1396 5 12.582500000000003 34.1525 19.7725 0 0 0
1397 4 12.582500000000003 35.95 21.570000000000004 0 0 0
1398 4 14.380000000000004 34.1525 21.570000000000004 0 0 0
1399 2 14.380000000000004 35.95 19.7725 0 0 0
1400 2 12.582500000000003 34.1525 23.367500000000003 0 0 0
1401 2 12.582500000000003 35.95 25.165000000000003 0 0 0
1402 2 14.380000000000004 34.1525 25.165000000000003 0 0 0
1403 5 14.380000000000004 35.95 23.367500000000003 0 0 0
1404 5 12.582500000000003 34.1525 26.962500000000006 0 0 0
1405 2 12.582500000000003 35.95 28.76 0 0 0
1406 3 14.380000000000004 34.1525 28.76 0 0 0
1407 1 14.380000000000004 35.95 26.962500000000006 0 0 0
1408 1 12.582500000000003 34.1525 30.557500000000005 0 0 0
1409 4 12.582500000000003 35.95 32.35500000000001 0 0 0
1410 3 14.380000000000004 34.1525 32.35500000000001 0 0 0
1411 5 14.380000000000004 35.95 30.557500000000005 0 0 0
1412 5 12.582500000000003 34.1525 34.1525 0 0 0
1413 4 12.582500000000003 35.95 35.95 0 0 0
1414 3 14.380000000000004 34.1525 35.95 0 0 0
1415 4 14.380000000000004 35.95 34.1525 0 0 0
1416 4 12.582500000000003 34.1525 37.74750000000001 0 0 0
1417 5 12.582500000000003 35.95 39.545 0 0 0
1418 4 14.380000000000004 34.1525 39.545 0 0 0
1419 1 14.380000000000004 35.95 37.74750000000001 0 0 0
1420 5 12.582500000000003 34.1525 41.34250000000001 0 0 0
1421 4 12.582500000000003 35.95 43.14000000000001 0 0 0
1422 4 14.380000000000004 34.1525 43.14000000000001 0 0 0
1423 5 14.380000000000004 35.95 41.34250000000001 0 0 0
1424 4 12.582500000000003 34.1525 44.9375 0 0 0
1427 5 14.380000000000004 35.95 44.9375 0 0 0
1461 3 12.582500000000003 37.74750000000001 12.582500000000003 0 0 0
1462 4 12.582500000000003 39.545 14.380000000000004 0 0 0
1463 1 14.380000000000004 37.74750000000001 14.380000000000004 0 0 0
1464 3 14.380000000000004 39.545 12.582500000000003 0 0 0
1465 4 12.582500000000003 37.74750000000001 16.177500000000006 0 0 0
1466 5 12.582500000000003 39.545 17.975 0 0 0
1467 2 14.380000000000004 37.74750000000001 17.975 0 0 0
1468 5 14.380000000000004 39.545 16.177500000000006 0 0 0
1469 1 12.582500000000003 37.74750000000001 19.7725 0 0 0
1470 5 12.582500000000003 39.545 21.570000000000004 0 0 0