model_files/NiCoCrFeMn/NiCoCrFeMn_30000/NiCoCrFeMn_311/NiCoCrFeMn_311_fcc_30453_temp.data (written by ASE) 

30453 	 atoms 
5  atom types
0.0                      91  xlo xhi
0.0                      91  ylo yhi
0.0                      91  zlo zhi


Atoms 

     1   1                       0      43.140000000000008                 44.9375
     2   1                       0                 44.9375      43.140000000000008
     3   1                       0                 44.9375      46.734999999999999
     4   1                       0      46.734999999999999                 44.9375
     5   1      3.5949999999999993      32.355000000000011                 44.9375
     6   1      3.5949999999999993      34.152500000000003      43.140000000000008
     7   1      3.5949999999999993      35.950000000000003      41.342500000000008
     8   1      3.5949999999999993      34.152500000000003      46.734999999999999
     9   1      3.5949999999999993      35.950000000000003                 44.9375
    10   1      3.5949999999999993      35.950000000000003      48.532500000000006
    11   1      3.5949999999999993      37.747500000000009      39.545000000000002
    12   1      3.5949999999999993      39.545000000000002      37.747500000000009
    13   1      1.7974999999999997      39.545000000000002      43.140000000000008
    14   1      3.5949999999999993      37.747500000000009      43.140000000000008
    15   1      3.5949999999999993      39.545000000000002      41.342500000000008
    16   1      1.7974999999999997      37.747500000000009                 44.9375
    17   1      1.7974999999999997      39.545000000000002      46.734999999999999
    18   1      3.5949999999999993      37.747500000000009      46.734999999999999
    19   1      3.5949999999999993      39.545000000000002                 44.9375
    20   1      3.5949999999999993      37.747500000000009      50.330000000000005
    21   1      3.5949999999999993      39.545000000000002      48.532500000000006
    22   1      3.5949999999999993      39.545000000000002      52.127500000000012
    23   1      3.5949999999999993      41.342500000000008      35.950000000000003
    24   1      3.5949999999999993      43.140000000000008      34.152500000000003
    25   1      1.7974999999999997      43.140000000000008      39.545000000000002
    26   1      3.5949999999999993      41.342500000000008      39.545000000000002
    27   1      3.5949999999999993      43.140000000000008      37.747500000000009
    28   1      1.7974999999999997      41.342500000000008      41.342500000000008
    29   1      1.7974999999999997      43.140000000000008      43.140000000000008
    30   1      3.5949999999999993      41.342500000000008      43.140000000000008
    31   1      3.5949999999999993      43.140000000000008      41.342500000000008
    32   1      1.7974999999999997      41.342500000000008                 44.9375
    33   1      1.7974999999999997      43.140000000000008      46.734999999999999
    34   1      3.5949999999999993      41.342500000000008      46.734999999999999
    35   1      3.5949999999999993      43.140000000000008                 44.9375
    36   1      1.7974999999999997      41.342500000000008      48.532500000000006
    37   1      1.7974999999999997      43.140000000000008      50.330000000000005
    38   1      3.5949999999999993      41.342500000000008      50.330000000000005
    39   1      3.5949999999999993      43.140000000000008      48.532500000000006
    40   1      3.5949999999999993      41.342500000000008      53.925000000000011
    41   1      3.5949999999999993      43.140000000000008      52.127500000000012
    42   1      3.5949999999999993      43.140000000000008      55.722500000000011
    43   1      3.5949999999999993                 44.9375      32.355000000000011
    44   1      3.5949999999999993                 44.9375      35.950000000000003
    45   1      3.5949999999999993      46.734999999999999      34.152500000000003
    46   1      1.7974999999999997                 44.9375      37.747500000000009
    47   1      1.7974999999999997      46.734999999999999      39.545000000000002
    48   1      3.5949999999999993                 44.9375      39.545000000000002
    49   1      3.5949999999999993      46.734999999999999      37.747500000000009
    50   1      1.7974999999999997                 44.9375      41.342500000000008
    51   1      1.7974999999999997      46.734999999999999      43.140000000000008
    52   1      3.5949999999999993                 44.9375      43.140000000000008
    53   1      3.5949999999999993      46.734999999999999      41.342500000000008
    54   1      1.7974999999999997                 44.9375                 44.9375
    55   1      1.7974999999999997      46.734999999999999      46.734999999999999
    56   1      3.5949999999999993                 44.9375      46.734999999999999
    57   1      3.5949999999999993      46.734999999999999                 44.9375
    58   1      1.7974999999999997                 44.9375      48.532500000000006
    59   1      1.7974999999999997      46.734999999999999      50.330000000000005
    60   1      3.5949999999999993                 44.9375      50.330000000000005
    61   1      3.5949999999999993      46.734999999999999      48.532500000000006
    62   1      1.7974999999999997                 44.9375      52.127500000000012
    63   1      3.5949999999999993                 44.9375      53.925000000000011
    64   1      3.5949999999999993      46.734999999999999      52.127500000000012
    65   1      3.5949999999999993                 44.9375      57.520000000000003
    66   1      3.5949999999999993      46.734999999999999      55.722500000000011
    67   1      3.5949999999999993      48.532500000000006      35.950000000000003
    68   1      3.5949999999999993      48.532500000000006      39.545000000000002
    69   1      3.5949999999999993      50.330000000000005      37.747500000000009
    70   1      1.7974999999999997      48.532500000000006      41.342500000000008
    71   1      1.7974999999999997      50.330000000000005      43.140000000000008
    72   1      3.5949999999999993      48.532500000000006      43.140000000000008
    73   1      3.5949999999999993      50.330000000000005      41.342500000000008
    74   1      1.7974999999999997      48.532500000000006                 44.9375
    75   1      1.7974999999999997      50.330000000000005      46.734999999999999
    76   1      3.5949999999999993      48.532500000000006      46.734999999999999
    77   1      3.5949999999999993      50.330000000000005                 44.9375
    78   1      1.7974999999999997      48.532500000000006      48.532500000000006
    79   1      3.5949999999999993      48.532500000000006      50.330000000000005
    80   1      3.5949999999999993      50.330000000000005      48.532500000000006
    81   1      3.5949999999999993      48.532500000000006      53.925000000000011
    82   1      3.5949999999999993      50.330000000000005      52.127500000000012
    83   1      3.5949999999999993      52.127500000000012      39.545000000000002
    84   1      3.5949999999999993      52.127500000000012      43.140000000000008
    85   1      3.5949999999999993      53.925000000000011      41.342500000000008
    86   1      1.7974999999999997      52.127500000000012                 44.9375
    87   1      3.5949999999999993      52.127500000000012      46.734999999999999
    88   1      3.5949999999999993      53.925000000000011                 44.9375
    89   1      3.5949999999999993      52.127500000000012      50.330000000000005
    90   1      3.5949999999999993      53.925000000000011      48.532500000000006
    91   1      3.5949999999999993      55.722500000000011      43.140000000000008
    92   1      3.5949999999999993      55.722500000000011      46.734999999999999
    93   1      3.5949999999999993      57.520000000000003                 44.9375
    94   1      7.1899999999999986      21.570000000000004                 44.9375
    95   1      7.1899999999999986      23.367500000000003      43.140000000000008
    96   1      7.1899999999999986      25.165000000000003      41.342500000000008
    97   1      7.1899999999999986      23.367500000000003      46.734999999999999
    98   1      7.1899999999999986      25.165000000000003                 44.9375
    99   1      7.1899999999999986      25.165000000000003      48.532500000000006
   100   1      7.1899999999999986      26.962500000000006      39.545000000000002
   101   1      7.1899999999999986      28.760000000000002      37.747500000000009
   102   1      5.3924999999999983      28.760000000000002      43.140000000000008
   103   1      7.1899999999999986      26.962500000000006      43.140000000000008
   104   1      7.1899999999999986      28.760000000000002      41.342500000000008
   105   1      5.3924999999999983      26.962500000000006                 44.9375
   106   1      5.3924999999999983      28.760000000000002      46.734999999999999
   107   1      7.1899999999999986      26.962500000000006      46.734999999999999
   108   1      7.1899999999999986      28.760000000000002                 44.9375
   109   1      7.1899999999999986      26.962500000000006      50.330000000000005
   110   1      7.1899999999999986      28.760000000000002      48.532500000000006
   111   1      7.1899999999999986      28.760000000000002      52.127500000000012
   112   1      7.1899999999999986      30.557500000000005      35.950000000000003
   113   1      7.1899999999999986      32.355000000000011      34.152500000000003
   114   1      5.3924999999999983      32.355000000000011      39.545000000000002
   115   1      7.1899999999999986      30.557500000000005      39.545000000000002
   116   1      7.1899999999999986      32.355000000000011      37.747500000000009
   117   1      5.3924999999999983      30.557500000000005      41.342500000000008
   118   1      5.3924999999999983      32.355000000000011      43.140000000000008
   119   1      7.1899999999999986      30.557500000000005      43.140000000000008
   120   1      7.1899999999999986      32.355000000000011      41.342500000000008
   121   1      5.3924999999999983      30.557500000000005                 44.9375
   122   1      5.3924999999999983      32.355000000000011      46.734999999999999
   123   1      7.1899999999999986      30.557500000000005      46.734999999999999
   124   1      7.1899999999999986      32.355000000000011                 44.9375
   125   1      5.3924999999999983      30.557500000000005      48.532500000000006
   126   1      5.3924999999999983      32.355000000000011      50.330000000000005
   127   1      7.1899999999999986      30.557500000000005      50.330000000000005
   128   1      7.1899999999999986      32.355000000000011      48.532500000000006
   129   1      7.1899999999999986      30.557500000000005      53.925000000000011
   130   1      7.1899999999999986      32.355000000000011      52.127500000000012
   131   1      7.1899999999999986      32.355000000000011      55.722500000000011
   132   1      7.1899999999999986      34.152500000000003      32.355000000000011
   133   1      7.1899999999999986      35.950000000000003      30.557500000000005
   134   1      5.3924999999999983      35.950000000000003      35.950000000000003
   135   1      7.1899999999999986      34.152500000000003      35.950000000000003
   136   1      7.1899999999999986      35.950000000000003      34.152500000000003
   137   1      5.3924999999999983      34.152500000000003      37.747500000000009
   138   1      5.3924999999999983      35.950000000000003      39.545000000000002
   139   1      7.1899999999999986      34.152500000000003      39.545000000000002
   140   1      7.1899999999999986      35.950000000000003      37.747500000000009
   141   1      5.3924999999999983      34.152500000000003      41.342500000000008
   142   1      5.3924999999999983      35.950000000000003      43.140000000000008
   143   1      7.1899999999999986      34.152500000000003      43.140000000000008
   144   1      7.1899999999999986      35.950000000000003      41.342500000000008
   145   1      5.3924999999999983      34.152500000000003                 44.9375
   146   1      5.3924999999999983      35.950000000000003      46.734999999999999
   147   1      7.1899999999999986      34.152500000000003      46.734999999999999
   148   1      7.1899999999999986      35.950000000000003                 44.9375
   149   1      5.3924999999999983      34.152500000000003      48.532500000000006
   150   1      5.3924999999999983      35.950000000000003      50.330000000000005
   151   1      7.1899999999999986      34.152500000000003      50.330000000000005
   152   1      7.1899999999999986      35.950000000000003      48.532500000000006
   153   1      5.3924999999999983      34.152500000000003      52.127500000000012
   154   1      5.3924999999999983      35.950000000000003      53.925000000000011
   155   1      7.1899999999999986      34.152500000000003      53.925000000000011
   156   1      7.1899999999999986      35.950000000000003      52.127500000000012
   157   1      7.1899999999999986      34.152500000000003      57.520000000000003
   158   1      7.1899999999999986      35.950000000000003      55.722500000000011
   159   1      7.1899999999999986      35.950000000000003      59.317500000000003
   160   1      7.1899999999999986      37.747500000000009      28.760000000000002
   161   1      7.1899999999999986      39.545000000000002      26.962500000000006
   162   1      5.3924999999999983      39.545000000000002      32.355000000000011
   163   1      7.1899999999999986      37.747500000000009      32.355000000000011
   164   1      7.1899999999999986      39.545000000000002      30.557500000000005
   165   1      5.3924999999999983      37.747500000000009      34.152500000000003
   166   1      5.3924999999999983      39.545000000000002      35.950000000000003
   167   1      7.1899999999999986      37.747500000000009      35.950000000000003
   168   1      7.1899999999999986      39.545000000000002      34.152500000000003
   169   1      5.3924999999999983      37.747500000000009      37.747500000000009
   170   1      5.3924999999999983      39.545000000000002      39.545000000000002
   171   1      7.1899999999999986      37.747500000000009      39.545000000000002
   172   1      7.1899999999999986      39.545000000000002      37.747500000000009
   173   1      5.3924999999999983      37.747500000000009      41.342500000000008
   174   1      5.3924999999999983      39.545000000000002      43.140000000000008
   175   1      7.1899999999999986      37.747500000000009      43.140000000000008
   176   1      7.1899999999999986      39.545000000000002      41.342500000000008
   177   1      5.3924999999999983      37.747500000000009                 44.9375
   178   1      5.3924999999999983      39.545000000000002      46.734999999999999
   179   1      7.1899999999999986      37.747500000000009      46.734999999999999
   180   1      7.1899999999999986      39.545000000000002                 44.9375
   181   1      5.3924999999999983      37.747500000000009      48.532500000000006
   182   1      5.3924999999999983      39.545000000000002      50.330000000000005
   183   1      7.1899999999999986      37.747500000000009      50.330000000000005
   184   1      7.1899999999999986      39.545000000000002      48.532500000000006
   185   1      5.3924999999999983      37.747500000000009      52.127500000000012
   186   1      5.3924999999999983      39.545000000000002      53.925000000000011
   187   1      7.1899999999999986      37.747500000000009      53.925000000000011
   188   1      7.1899999999999986      39.545000000000002      52.127500000000012
   189   1      5.3924999999999983      37.747500000000009      55.722500000000011
   190   1      5.3924999999999983      39.545000000000002      57.520000000000003
   191   1      7.1899999999999986      37.747500000000009      57.520000000000003
   192   1      7.1899999999999986      39.545000000000002      55.722500000000011
   193   1      7.1899999999999986      37.747500000000009      61.115000000000009
   194   1      7.1899999999999986      39.545000000000002      59.317500000000003
   195   1      7.1899999999999986      39.545000000000002      62.912500000000009
   196   1      7.1899999999999986      41.342500000000008      25.165000000000003
   197   1      7.1899999999999986      43.140000000000008      23.367500000000003
   198   1      5.3924999999999983      43.140000000000008      28.760000000000002
   199   1      7.1899999999999986      41.342500000000008      28.760000000000002
   200   1      7.1899999999999986      43.140000000000008      26.962500000000006
   201   1      5.3924999999999983      41.342500000000008      30.557500000000005
   202   1      5.3924999999999983      43.140000000000008      32.355000000000011
   203   1      7.1899999999999986      41.342500000000008      32.355000000000011
   204   1      7.1899999999999986      43.140000000000008      30.557500000000005
   205   1      5.3924999999999983      41.342500000000008      34.152500000000003
   206   1      5.3924999999999983      43.140000000000008      35.950000000000003
   207   1      7.1899999999999986      41.342500000000008      35.950000000000003
   208   1      7.1899999999999986      43.140000000000008      34.152500000000003
   209   1      5.3924999999999983      41.342500000000008      37.747500000000009
   210   1      5.3924999999999983      43.140000000000008      39.545000000000002
   211   1      7.1899999999999986      41.342500000000008      39.545000000000002
   212   1      7.1899999999999986      43.140000000000008      37.747500000000009
   213   1      5.3924999999999983      41.342500000000008      41.342500000000008
   214   1      5.3924999999999983      43.140000000000008      43.140000000000008
   215   1      7.1899999999999986      41.342500000000008      43.140000000000008
   216   1      7.1899999999999986      43.140000000000008      41.342500000000008
   217   1      5.3924999999999983      41.342500000000008                 44.9375
   218   1      5.3924999999999983      43.140000000000008      46.734999999999999
   219   1      7.1899999999999986      41.342500000000008      46.734999999999999
   220   1      7.1899999999999986      43.140000000000008                 44.9375
   221   1      5.3924999999999983      41.342500000000008      48.532500000000006
   222   1      5.3924999999999983      43.140000000000008      50.330000000000005
   223   1      7.1899999999999986      41.342500000000008      50.330000000000005
   224   1      7.1899999999999986      43.140000000000008      48.532500000000006
   225   1      5.3924999999999983      41.342500000000008      52.127500000000012
   226   1      5.3924999999999983      43.140000000000008      53.925000000000011
   227   1      7.1899999999999986      41.342500000000008      53.925000000000011
   228   1      7.1899999999999986      43.140000000000008      52.127500000000012
   229   1      5.3924999999999983      41.342500000000008      55.722500000000011
   230   1      5.3924999999999983      43.140000000000008      57.520000000000003
   231   1      7.1899999999999986      41.342500000000008      57.520000000000003
   232   1      7.1899999999999986      43.140000000000008      55.722500000000011
   233   1      5.3924999999999983      41.342500000000008      59.317500000000003
   234   1      5.3924999999999983      43.140000000000008      61.115000000000009
   235   1      7.1899999999999986      41.342500000000008      61.115000000000009
   236   1      7.1899999999999986      43.140000000000008      59.317500000000003
   237   1      7.1899999999999986      41.342500000000008      64.710000000000022
   238   1      7.1899999999999986      43.140000000000008      62.912500000000009
   239   1      7.1899999999999986      43.140000000000008      66.507500000000007
   240   1      7.1899999999999986                 44.9375      21.570000000000004
   241   1      7.1899999999999986                 44.9375      25.165000000000003
   242   1      7.1899999999999986      46.734999999999999      23.367500000000003
   243   1      5.3924999999999983                 44.9375      26.962500000000006
   244   1      5.3924999999999983      46.734999999999999      28.760000000000002
   245   1      7.1899999999999986                 44.9375      28.760000000000002
   246   1      7.1899999999999986      46.734999999999999      26.962500000000006
   247   1      5.3924999999999983                 44.9375      30.557500000000005
   248   1      5.3924999999999983      46.734999999999999      32.355000000000011
   249   1      7.1899999999999986                 44.9375      32.355000000000011
   250   1      7.1899999999999986      46.734999999999999      30.557500000000005
   251   1      5.3924999999999983                 44.9375      34.152500000000003
   252   1      5.3924999999999983      46.734999999999999      35.950000000000003
   253   1      7.1899999999999986                 44.9375      35.950000000000003
   254   1      7.1899999999999986      46.734999999999999      34.152500000000003
   255   1      5.3924999999999983                 44.9375      37.747500000000009
   256   1      5.3924999999999983      46.734999999999999      39.545000000000002
   257   1      7.1899999999999986                 44.9375      39.545000000000002
   258   1      7.1899999999999986      46.734999999999999      37.747500000000009
   259   1      5.3924999999999983                 44.9375      41.342500000000008
   260   1      5.3924999999999983      46.734999999999999      43.140000000000008
   261   1      7.1899999999999986                 44.9375      43.140000000000008
   262   1      7.1899999999999986      46.734999999999999      41.342500000000008
   263   1      5.3924999999999983                 44.9375                 44.9375
   264   1      5.3924999999999983      46.734999999999999      46.734999999999999
   265   1      7.1899999999999986                 44.9375      46.734999999999999
   266   1      7.1899999999999986      46.734999999999999                 44.9375
   267   1      5.3924999999999983                 44.9375      48.532500000000006
   268   1      5.3924999999999983      46.734999999999999      50.330000000000005
   269   1      7.1899999999999986                 44.9375      50.330000000000005
   270   1      7.1899999999999986      46.734999999999999      48.532500000000006
   271   1      5.3924999999999983                 44.9375      52.127500000000012
   272   1      5.3924999999999983      46.734999999999999      53.925000000000011
   273   1      7.1899999999999986                 44.9375      53.925000000000011
   274   1      7.1899999999999986      46.734999999999999      52.127500000000012
   275   1      5.3924999999999983                 44.9375      55.722500000000011
   276   1      5.3924999999999983      46.734999999999999      57.520000000000003
   277   1      7.1899999999999986                 44.9375      57.520000000000003
   278   1      7.1899999999999986      46.734999999999999      55.722500000000011
   279   1      5.3924999999999983                 44.9375      59.317500000000003
   280   1      5.3924999999999983      46.734999999999999      61.115000000000009
   281   1      7.1899999999999986                 44.9375      61.115000000000009
   282   1      7.1899999999999986      46.734999999999999      59.317500000000003
   283   1      5.3924999999999983                 44.9375      62.912500000000009
   284   1      7.1899999999999986                 44.9375      64.710000000000022
   285   1      7.1899999999999986      46.734999999999999      62.912500000000009
   286   1      7.1899999999999986                 44.9375      68.305000000000007
   287   1      7.1899999999999986      46.734999999999999      66.507500000000007
   288   1      7.1899999999999986      48.532500000000006      25.165000000000003
   289   1      7.1899999999999986      48.532500000000006      28.760000000000002
   290   1      7.1899999999999986      50.330000000000005      26.962500000000006
   291   1      5.3924999999999983      48.532500000000006      30.557500000000005
   292   1      5.3924999999999983      50.330000000000005      32.355000000000011
   293   1      7.1899999999999986      48.532500000000006      32.355000000000011
   294   1      7.1899999999999986      50.330000000000005      30.557500000000005
   295   1      5.3924999999999983      48.532500000000006      34.152500000000003
   296   1      5.3924999999999983      50.330000000000005      35.950000000000003
   297   1      7.1899999999999986      48.532500000000006      35.950000000000003
   298   1      7.1899999999999986      50.330000000000005      34.152500000000003
   299   1      5.3924999999999983      48.532500000000006      37.747500000000009
   300   1      5.3924999999999983      50.330000000000005      39.545000000000002
   301   1      7.1899999999999986      48.532500000000006      39.545000000000002
   302   1      7.1899999999999986      50.330000000000005      37.747500000000009
   303   1      5.3924999999999983      48.532500000000006      41.342500000000008
   304   1      5.3924999999999983      50.330000000000005      43.140000000000008
   305   1      7.1899999999999986      48.532500000000006      43.140000000000008
   306   1      7.1899999999999986      50.330000000000005      41.342500000000008
   307   1      5.3924999999999983      48.532500000000006                 44.9375
   308   1      5.3924999999999983      50.330000000000005      46.734999999999999
   309   1      7.1899999999999986      48.532500000000006      46.734999999999999
   310   1      7.1899999999999986      50.330000000000005                 44.9375
   311   1      5.3924999999999983      48.532500000000006      48.532500000000006
   312   1      5.3924999999999983      50.330000000000005      50.330000000000005
   313   1      7.1899999999999986      48.532500000000006      50.330000000000005
   314   1      7.1899999999999986      50.330000000000005      48.532500000000006
   315   1      5.3924999999999983      48.532500000000006      52.127500000000012
   316   1      5.3924999999999983      50.330000000000005      53.925000000000011
   317   1      7.1899999999999986      48.532500000000006      53.925000000000011
   318   1      7.1899999999999986      50.330000000000005      52.127500000000012
   319   1      5.3924999999999983      48.532500000000006      55.722500000000011
   320   1      5.3924999999999983      50.330000000000005      57.520000000000003
   321   1      7.1899999999999986      48.532500000000006      57.520000000000003
   322   1      7.1899999999999986      50.330000000000005      55.722500000000011
   323   1      5.3924999999999983      48.532500000000006      59.317500000000003
   324   1      7.1899999999999986      48.532500000000006      61.115000000000009
   325   1      7.1899999999999986      50.330000000000005      59.317500000000003
   326   1      7.1899999999999986      48.532500000000006      64.710000000000022
   327   1      7.1899999999999986      50.330000000000005      62.912500000000009
   328   1      7.1899999999999986      52.127500000000012      28.760000000000002
   329   1      7.1899999999999986      52.127500000000012      32.355000000000011
   330   1      7.1899999999999986      53.925000000000011      30.557500000000005
   331   1      5.3924999999999983      52.127500000000012      34.152500000000003
   332   1      5.3924999999999983      53.925000000000011      35.950000000000003
   333   1      7.1899999999999986      52.127500000000012      35.950000000000003
   334   1      7.1899999999999986      53.925000000000011      34.152500000000003
   335   1      5.3924999999999983      52.127500000000012      37.747500000000009
   336   1      5.3924999999999983      53.925000000000011      39.545000000000002
   337   1      7.1899999999999986      52.127500000000012      39.545000000000002
   338   1      7.1899999999999986      53.925000000000011      37.747500000000009
   339   1      5.3924999999999983      52.127500000000012      41.342500000000008
   340   1      5.3924999999999983      53.925000000000011      43.140000000000008
   341   1      7.1899999999999986      52.127500000000012      43.140000000000008
   342   1      7.1899999999999986      53.925000000000011      41.342500000000008
   343   1      5.3924999999999983      52.127500000000012                 44.9375
   344   1      5.3924999999999983      53.925000000000011      46.734999999999999
   345   1      7.1899999999999986      52.127500000000012      46.734999999999999
   346   1      7.1899999999999986      53.925000000000011                 44.9375
   347   1      5.3924999999999983      52.127500000000012      48.532500000000006
   348   1      5.3924999999999983      53.925000000000011      50.330000000000005
   349   1      7.1899999999999986      52.127500000000012      50.330000000000005
   350   1      7.1899999999999986      53.925000000000011      48.532500000000006
   351   1      5.3924999999999983      52.127500000000012      52.127500000000012
   352   1      5.3924999999999983      53.925000000000011      53.925000000000011
   353   1      7.1899999999999986      52.127500000000012      53.925000000000011
   354   1      7.1899999999999986      53.925000000000011      52.127500000000012
   355   1      5.3924999999999983      52.127500000000012      55.722500000000011
   356   1      7.1899999999999986      52.127500000000012      57.520000000000003
   357   1      7.1899999999999986      53.925000000000011      55.722500000000011
   358   1      7.1899999999999986      52.127500000000012      61.115000000000009