model_files/CuAu/CuAu_30000/CuAu_431/CuAu_431_fcc_29685_temp.data (written by ASE) 

29685 	 atoms 
2  atom types
0.0                     104  xlo xhi
0.0                     104  ylo yhi
0.0                     104  zlo zhi


Atoms 

     1   1      1.8700000000000048      46.750000000000007      52.360000000000007
     2   1  7.1054273576010019e-15      50.490000000000002      50.490000000000002
     3   1      1.8700000000000048      48.620000000000012      50.490000000000002
     4   1      1.8700000000000048      50.490000000000002      48.620000000000012
     5   1  7.1054273576010019e-15      48.620000000000012      52.360000000000007
     6   1  7.1054273576010019e-15      50.490000000000002      54.230000000000004
     7   1      1.8700000000000048      48.620000000000012      54.230000000000004
     8   1      1.8700000000000048      50.490000000000002      52.360000000000007
     9   1      1.8700000000000048      50.490000000000002      56.100000000000009
    10   1      1.8700000000000048      52.360000000000007      46.750000000000007
    11   1  7.1054273576010019e-15      52.360000000000007      48.620000000000012
    12   1  7.1054273576010019e-15      54.230000000000004      50.490000000000002
    13   1      1.8700000000000048      52.360000000000007      50.490000000000002
    14   1      1.8700000000000048      54.230000000000004      48.620000000000012
    15   1  7.1054273576010019e-15      52.360000000000007      52.360000000000007
    16   1  7.1054273576010019e-15      54.230000000000004      54.230000000000004
    17   1      1.8700000000000048      52.360000000000007      54.230000000000004
    18   1      1.8700000000000048      54.230000000000004      52.360000000000007
    19   1  7.1054273576010019e-15      52.360000000000007      56.100000000000009
    20   1      1.8700000000000048      52.360000000000007      57.970000000000006
    21   1      1.8700000000000048      54.230000000000004      56.100000000000009
    22   1      1.8700000000000048      56.100000000000009      50.490000000000002
    23   1  7.1054273576010019e-15      56.100000000000009      52.360000000000007
    24   1      1.8700000000000048      56.100000000000009      54.230000000000004
    25   1      1.8700000000000048      57.970000000000006      52.360000000000007
    26   1      5.6100000000000074      43.010000000000012      48.620000000000012
    27   1      5.6100000000000074      43.010000000000012      52.360000000000007
    28   1      5.6100000000000074      43.010000000000012      56.100000000000009
    29   1       3.740000000000002      46.750000000000007      46.750000000000007
    30   1      5.6100000000000074       44.88000000000001      46.750000000000007
    31   1      5.6100000000000074      46.750000000000007       44.88000000000001
    32   1       3.740000000000002       44.88000000000001      48.620000000000012
    33   1       3.740000000000002      46.750000000000007      50.490000000000002
    34   1      5.6100000000000074       44.88000000000001      50.490000000000002
    35   1      5.6100000000000074      46.750000000000007      48.620000000000012
    36   1       3.740000000000002       44.88000000000001      52.360000000000007
    37   1       3.740000000000002      46.750000000000007      54.230000000000004
    38   1      5.6100000000000074       44.88000000000001      54.230000000000004
    39   1      5.6100000000000074      46.750000000000007      52.360000000000007
    40   1       3.740000000000002       44.88000000000001      56.100000000000009
    41   1       3.740000000000002      46.750000000000007      57.970000000000006
    42   1      5.6100000000000074       44.88000000000001      57.970000000000006
    43   1      5.6100000000000074      46.750000000000007      56.100000000000009
    44   1      5.6100000000000074      46.750000000000007      59.840000000000011
    45   1      5.6100000000000074      48.620000000000012      43.010000000000012
    46   1       3.740000000000002      48.620000000000012       44.88000000000001
    47   1       3.740000000000002      50.490000000000002      46.750000000000007
    48   1      5.6100000000000074      48.620000000000012      46.750000000000007
    49   1      5.6100000000000074      50.490000000000002       44.88000000000001
    50   1       3.740000000000002      48.620000000000012      48.620000000000012
    51   1       3.740000000000002      50.490000000000002      50.490000000000002
    52   1      5.6100000000000074      48.620000000000012      50.490000000000002
    53   1      5.6100000000000074      50.490000000000002      48.620000000000012
    54   1       3.740000000000002      48.620000000000012      52.360000000000007
    55   1       3.740000000000002      50.490000000000002      54.230000000000004
    56   1      5.6100000000000074      48.620000000000012      54.230000000000004
    57   1      5.6100000000000074      50.490000000000002      52.360000000000007
    58   1       3.740000000000002      48.620000000000012      56.100000000000009
    59   1       3.740000000000002      50.490000000000002      57.970000000000006
    60   1      5.6100000000000074      48.620000000000012      57.970000000000006
    61   1      5.6100000000000074      50.490000000000002      56.100000000000009
    62   1       3.740000000000002      48.620000000000012      59.840000000000011
    63   1      5.6100000000000074      48.620000000000012      61.710000000000008
    64   1      5.6100000000000074      50.490000000000002      59.840000000000011
    65   1      5.6100000000000074      52.360000000000007      43.010000000000012
    66   1       3.740000000000002      52.360000000000007       44.88000000000001
    67   1       3.740000000000002      54.230000000000004      46.750000000000007
    68   1      5.6100000000000074      52.360000000000007      46.750000000000007
    69   1      5.6100000000000074      54.230000000000004       44.88000000000001
    70   1       3.740000000000002      52.360000000000007      48.620000000000012
    71   1       3.740000000000002      54.230000000000004      50.490000000000002
    72   1      5.6100000000000074      52.360000000000007      50.490000000000002
    73   1      5.6100000000000074      54.230000000000004      48.620000000000012
    74   1       3.740000000000002      52.360000000000007      52.360000000000007
    75   1       3.740000000000002      54.230000000000004      54.230000000000004
    76   1      5.6100000000000074      52.360000000000007      54.230000000000004
    77   1      5.6100000000000074      54.230000000000004      52.360000000000007
    78   1       3.740000000000002      52.360000000000007      56.100000000000009
    79   1       3.740000000000002      54.230000000000004      57.970000000000006
    80   1      5.6100000000000074      52.360000000000007      57.970000000000006
    81   1      5.6100000000000074      54.230000000000004      56.100000000000009
    82   1       3.740000000000002      52.360000000000007      59.840000000000011
    83   1      5.6100000000000074      52.360000000000007      61.710000000000008
    84   1      5.6100000000000074      54.230000000000004      59.840000000000011
    85   1      5.6100000000000074      56.100000000000009      43.010000000000012
    86   1       3.740000000000002      56.100000000000009       44.88000000000001
    87   1       3.740000000000002      57.970000000000006      46.750000000000007
    88   1      5.6100000000000074      56.100000000000009      46.750000000000007
    89   1      5.6100000000000074      57.970000000000006       44.88000000000001
    90   1       3.740000000000002      56.100000000000009      48.620000000000012
    91   1       3.740000000000002      57.970000000000006      50.490000000000002
    92   1      5.6100000000000074      56.100000000000009      50.490000000000002
    93   1      5.6100000000000074      57.970000000000006      48.620000000000012
    94   1       3.740000000000002      56.100000000000009      52.360000000000007
    95   1       3.740000000000002      57.970000000000006      54.230000000000004
    96   1      5.6100000000000074      56.100000000000009      54.230000000000004
    97   1      5.6100000000000074      57.970000000000006      52.360000000000007
    98   1       3.740000000000002      56.100000000000009      56.100000000000009
    99   1       3.740000000000002      57.970000000000006      57.970000000000006
   100   1      5.6100000000000074      56.100000000000009      57.970000000000006
   101   1      5.6100000000000074      57.970000000000006      56.100000000000009
   102   1       3.740000000000002      56.100000000000009      59.840000000000011
   103   1      5.6100000000000074      56.100000000000009      61.710000000000008
   104   1      5.6100000000000074      57.970000000000006      59.840000000000011
   105   1      5.6100000000000074      59.840000000000011      46.750000000000007
   106   1       3.740000000000002      59.840000000000011      48.620000000000012
   107   1      5.6100000000000074      59.840000000000011      50.490000000000002
   108   1      5.6100000000000074      61.710000000000008      48.620000000000012
   109   1       3.740000000000002      59.840000000000011      52.360000000000007
   110   1      5.6100000000000074      59.840000000000011      54.230000000000004
   111   1      5.6100000000000074      61.710000000000008      52.360000000000007
   112   1       3.740000000000002      59.840000000000011      56.100000000000009
   113   1      5.6100000000000074      59.840000000000011      57.970000000000006
   114   1      5.6100000000000074      61.710000000000008      56.100000000000009
   115   1      9.3500000000000014       39.27000000000001       44.88000000000001
   116   1       7.480000000000004       39.27000000000001      50.490000000000002
   117   1      9.3500000000000014      37.400000000000006      50.490000000000002
   118   1      9.3500000000000014       39.27000000000001      48.620000000000012
   119   1       7.480000000000004       39.27000000000001      54.230000000000004
   120   1      9.3500000000000014      37.400000000000006      54.230000000000004
   121   1      9.3500000000000014       39.27000000000001      52.360000000000007
   122   1      9.3500000000000014       39.27000000000001      56.100000000000009
   123   1      9.3500000000000014       39.27000000000001      59.840000000000011
   124   1       7.480000000000004      43.010000000000012      43.010000000000012
   125   1      9.3500000000000014      41.140000000000008      43.010000000000012
   126   1      9.3500000000000014      43.010000000000012      41.140000000000008
   127   1       7.480000000000004      41.140000000000008       44.88000000000001
   128   1       7.480000000000004      43.010000000000012      46.750000000000007
   129   1      9.3500000000000014      41.140000000000008      46.750000000000007
   130   1      9.3500000000000014      43.010000000000012       44.88000000000001
   131   1       7.480000000000004      41.140000000000008      48.620000000000012
   132   1       7.480000000000004      43.010000000000012      50.490000000000002
   133   1      9.3500000000000014      41.140000000000008      50.490000000000002
   134   1      9.3500000000000014      43.010000000000012      48.620000000000012
   135   1       7.480000000000004      41.140000000000008      52.360000000000007
   136   1       7.480000000000004      43.010000000000012      54.230000000000004
   137   1      9.3500000000000014      41.140000000000008      54.230000000000004
   138   1      9.3500000000000014      43.010000000000012      52.360000000000007
   139   1       7.480000000000004      41.140000000000008      56.100000000000009
   140   1       7.480000000000004      43.010000000000012      57.970000000000006
   141   1      9.3500000000000014      41.140000000000008      57.970000000000006
   142   1      9.3500000000000014      43.010000000000012      56.100000000000009
   143   1       7.480000000000004      41.140000000000008      59.840000000000011
   144   1       7.480000000000004      43.010000000000012      61.710000000000008
   145   1      9.3500000000000014      41.140000000000008      61.710000000000008
   146   1      9.3500000000000014      43.010000000000012      59.840000000000011
   147   1      9.3500000000000014      43.010000000000012      63.580000000000013
   148   1      9.3500000000000014       44.88000000000001       39.27000000000001
   149   1       7.480000000000004       44.88000000000001      41.140000000000008
   150   1       7.480000000000004      46.750000000000007      43.010000000000012
   151   1      9.3500000000000014       44.88000000000001      43.010000000000012
   152   1      9.3500000000000014      46.750000000000007      41.140000000000008
   153   1       7.480000000000004       44.88000000000001       44.88000000000001
   154   1       7.480000000000004      46.750000000000007      46.750000000000007
   155   1      9.3500000000000014       44.88000000000001      46.750000000000007
   156   1      9.3500000000000014      46.750000000000007       44.88000000000001
   157   1       7.480000000000004       44.88000000000001      48.620000000000012
   158   1       7.480000000000004      46.750000000000007      50.490000000000002
   159   1      9.3500000000000014       44.88000000000001      50.490000000000002
   160   1      9.3500000000000014      46.750000000000007      48.620000000000012
   161   1       7.480000000000004       44.88000000000001      52.360000000000007
   162   1       7.480000000000004      46.750000000000007      54.230000000000004
   163   1      9.3500000000000014       44.88000000000001      54.230000000000004
   164   1      9.3500000000000014      46.750000000000007      52.360000000000007
   165   1       7.480000000000004       44.88000000000001      56.100000000000009
   166   1       7.480000000000004      46.750000000000007      57.970000000000006
   167   1      9.3500000000000014       44.88000000000001      57.970000000000006
   168   1      9.3500000000000014      46.750000000000007      56.100000000000009
   169   1       7.480000000000004       44.88000000000001      59.840000000000011
   170   1       7.480000000000004      46.750000000000007      61.710000000000008
   171   1      9.3500000000000014       44.88000000000001      61.710000000000008
   172   1      9.3500000000000014      46.750000000000007      59.840000000000011
   173   1       7.480000000000004       44.88000000000001      63.580000000000013
   174   1      9.3500000000000014       44.88000000000001      65.450000000000017
   175   1      9.3500000000000014      46.750000000000007      63.580000000000013
   176   1       7.480000000000004      50.490000000000002       39.27000000000001
   177   1      9.3500000000000014      48.620000000000012       39.27000000000001
   178   1      9.3500000000000014      50.490000000000002      37.400000000000006
   179   1       7.480000000000004      48.620000000000012      41.140000000000008
   180   1       7.480000000000004      50.490000000000002      43.010000000000012
   181   1      9.3500000000000014      48.620000000000012      43.010000000000012
   182   1      9.3500000000000014      50.490000000000002      41.140000000000008
   183   1       7.480000000000004      48.620000000000012       44.88000000000001
   184   1       7.480000000000004      50.490000000000002      46.750000000000007
   185   1      9.3500000000000014      48.620000000000012      46.750000000000007
   186   1      9.3500000000000014      50.490000000000002       44.88000000000001
   187   1       7.480000000000004      48.620000000000012      48.620000000000012
   188   1       7.480000000000004      50.490000000000002      50.490000000000002
   189   1      9.3500000000000014      48.620000000000012      50.490000000000002
   190   1      9.3500000000000014      50.490000000000002      48.620000000000012
   191   1       7.480000000000004      48.620000000000012      52.360000000000007
   192   1       7.480000000000004      50.490000000000002      54.230000000000004
   193   1      9.3500000000000014      48.620000000000012      54.230000000000004
   194   1      9.3500000000000014      50.490000000000002      52.360000000000007
   195   1       7.480000000000004      48.620000000000012      56.100000000000009
   196   1       7.480000000000004      50.490000000000002      57.970000000000006
   197   1      9.3500000000000014      48.620000000000012      57.970000000000006
   198   1      9.3500000000000014      50.490000000000002      56.100000000000009
   199   1       7.480000000000004      48.620000000000012      59.840000000000011
   200   1       7.480000000000004      50.490000000000002      61.710000000000008
   201   1      9.3500000000000014      48.620000000000012      61.710000000000008
   202   1      9.3500000000000014      50.490000000000002      59.840000000000011
   203   1       7.480000000000004      48.620000000000012      63.580000000000013
   204   1       7.480000000000004      50.490000000000002      65.450000000000017
   205   1      9.3500000000000014      48.620000000000012      65.450000000000017
   206   1      9.3500000000000014      50.490000000000002      63.580000000000013
   207   1      9.3500000000000014      50.490000000000002      67.320000000000007
   208   1       7.480000000000004      54.230000000000004       39.27000000000001
   209   1      9.3500000000000014      52.360000000000007       39.27000000000001
   210   1      9.3500000000000014      54.230000000000004      37.400000000000006
   211   1       7.480000000000004      52.360000000000007      41.140000000000008
   212   1       7.480000000000004      54.230000000000004      43.010000000000012
   213   1      9.3500000000000014      52.360000000000007      43.010000000000012
   214   1      9.3500000000000014      54.230000000000004      41.140000000000008
   215   1       7.480000000000004      52.360000000000007       44.88000000000001
   216   1       7.480000000000004      54.230000000000004      46.750000000000007
   217   1      9.3500000000000014      52.360000000000007      46.750000000000007
   218   1      9.3500000000000014      54.230000000000004       44.88000000000001
   219   1       7.480000000000004      52.360000000000007      48.620000000000012
   220   1       7.480000000000004      54.230000000000004      50.490000000000002
   221   1      9.3500000000000014      52.360000000000007      50.490000000000002
   222   1      9.3500000000000014      54.230000000000004      48.620000000000012
   223   1       7.480000000000004      52.360000000000007      52.360000000000007
   224   1       7.480000000000004      54.230000000000004      54.230000000000004
   225   1      9.3500000000000014      52.360000000000007      54.230000000000004
   226   1      9.3500000000000014      54.230000000000004      52.360000000000007
   227   1       7.480000000000004      52.360000000000007      56.100000000000009
   228   1       7.480000000000004      54.230000000000004      57.970000000000006
   229   1      9.3500000000000014      52.360000000000007      57.970000000000006
   230   1      9.3500000000000014      54.230000000000004      56.100000000000009
   231   1       7.480000000000004      52.360000000000007      59.840000000000011
   232   1       7.480000000000004      54.230000000000004      61.710000000000008
   233   1      9.3500000000000014      52.360000000000007      61.710000000000008
   234   1      9.3500000000000014      54.230000000000004      59.840000000000011
   235   1       7.480000000000004      52.360000000000007      63.580000000000013
   236   1       7.480000000000004      54.230000000000004      65.450000000000017
   237   1      9.3500000000000014      52.360000000000007      65.450000000000017
   238   1      9.3500000000000014      54.230000000000004      63.580000000000013
   239   1      9.3500000000000014      54.230000000000004      67.320000000000007
   240   1      9.3500000000000014      56.100000000000009       39.27000000000001
   241   1       7.480000000000004      56.100000000000009      41.140000000000008
   242   1       7.480000000000004      57.970000000000006      43.010000000000012
   243   1      9.3500000000000014      56.100000000000009      43.010000000000012
   244   1      9.3500000000000014      57.970000000000006      41.140000000000008
   245   1       7.480000000000004      56.100000000000009       44.88000000000001
   246   1       7.480000000000004      57.970000000000006      46.750000000000007
   247   1      9.3500000000000014      56.100000000000009      46.750000000000007
   248   1      9.3500000000000014      57.970000000000006       44.88000000000001
   249   1       7.480000000000004      56.100000000000009      48.620000000000012
   250   1       7.480000000000004      57.970000000000006      50.490000000000002
   251   1      9.3500000000000014      56.100000000000009      50.490000000000002
   252   1      9.3500000000000014      57.970000000000006      48.620000000000012
   253   1       7.480000000000004      56.100000000000009      52.360000000000007
   254   1       7.480000000000004      57.970000000000006      54.230000000000004
   255   1      9.3500000000000014      56.100000000000009      54.230000000000004
   256   1      9.3500000000000014      57.970000000000006      52.360000000000007
   257   1       7.480000000000004      56.100000000000009      56.100000000000009
   258   1       7.480000000000004      57.970000000000006      57.970000000000006
   259   1      9.3500000000000014      56.100000000000009      57.970000000000006
   260   1      9.3500000000000014      57.970000000000006      56.100000000000009
   261   1       7.480000000000004      56.100000000000009      59.840000000000011
   262   1       7.480000000000004      57.970000000000006      61.710000000000008
   263   1      9.3500000000000014      56.100000000000009      61.710000000000008
   264   1      9.3500000000000014      57.970000000000006      59.840000000000011
   265   1       7.480000000000004      56.100000000000009      63.580000000000013
   266   1      9.3500000000000014      56.100000000000009      65.450000000000017
   267   1      9.3500000000000014      57.970000000000006      63.580000000000013
   268   1      9.3500000000000014      59.840000000000011       39.27000000000001
   269   1       7.480000000000004      59.840000000000011      41.140000000000008
   270   1       7.480000000000004      61.710000000000008      43.010000000000012
   271   1      9.3500000000000014      59.840000000000011      43.010000000000012
   272   1      9.3500000000000014      61.710000000000008      41.140000000000008
   273   1       7.480000000000004      59.840000000000011       44.88000000000001
   274   1       7.480000000000004      61.710000000000008      46.750000000000007
   275   1      9.3500000000000014      59.840000000000011      46.750000000000007
   276   1      9.3500000000000014      61.710000000000008       44.88000000000001
   277   1       7.480000000000004      59.840000000000011      48.620000000000012
   278   1       7.480000000000004      61.710000000000008      50.490000000000002
   279   1      9.3500000000000014      59.840000000000011      50.490000000000002
   280   1      9.3500000000000014      61.710000000000008      48.620000000000012
   281   1       7.480000000000004      59.840000000000011      52.360000000000007
   282   1       7.480000000000004      61.710000000000008      54.230000000000004
   283   1      9.3500000000000014      59.840000000000011      54.230000000000004
   284   1      9.3500000000000014      61.710000000000008      52.360000000000007
   285   1       7.480000000000004      59.840000000000011      56.100000000000009
   286   1       7.480000000000004      61.710000000000008      57.970000000000006
   287   1      9.3500000000000014      59.840000000000011      57.970000000000006
   288   1      9.3500000000000014      61.710000000000008      56.100000000000009
   289   1       7.480000000000004      59.840000000000011      59.840000000000011
   290   1       7.480000000000004      61.710000000000008      61.710000000000008
   291   1      9.3500000000000014      59.840000000000011      61.710000000000008
   292   1      9.3500000000000014      61.710000000000008      59.840000000000011
   293   1       7.480000000000004      59.840000000000011      63.580000000000013
   294   1      9.3500000000000014      59.840000000000011      65.450000000000017
   295   1      9.3500000000000014      61.710000000000008      63.580000000000013
   296   1      9.3500000000000014      63.580000000000013      43.010000000000012
   297   1       7.480000000000004      63.580000000000013       44.88000000000001
   298   1      9.3500000000000014      63.580000000000013      46.750000000000007
   299   1      9.3500000000000014      65.450000000000017       44.88000000000001
   300   1       7.480000000000004      63.580000000000013      48.620000000000012
   301   1       7.480000000000004      65.450000000000017      50.490000000000002
   302   1      9.3500000000000014      63.580000000000013      50.490000000000002
   303   1      9.3500000000000014      65.450000000000017      48.620000000000012
   304   1       7.480000000000004      63.580000000000013      52.360000000000007
   305   1       7.480000000000004      65.450000000000017      54.230000000000004
   306   1      9.3500000000000014      63.580000000000013      54.230000000000004
   307   1      9.3500000000000014      65.450000000000017      52.360000000000007
   308   1       7.480000000000004      63.580000000000013      56.100000000000009
   309   1      9.3500000000000014      63.580000000000013      57.970000000000006
   310   1      9.3500000000000014      65.450000000000017      56.100000000000009
   311   1       7.480000000000004      63.580000000000013      59.840000000000011
   312   1      9.3500000000000014      63.580000000000013      61.710000000000008
   313   1      9.3500000000000014      65.450000000000017      59.840000000000011
   314   1      9.3500000000000014      67.320000000000007      50.490000000000002
   315   1      9.3500000000000014      67.320000000000007      54.230000000000004
   316   1      13.090000000000011      31.790000000000006      52.360000000000007
   317   1      13.090000000000011      35.530000000000008      41.140000000000008
   318   1      11.220000000000008      35.530000000000008      46.750000000000007
   319   1      13.090000000000011      33.660000000000011      46.750000000000007
   320   1      13.090000000000011      35.530000000000008       44.88000000000001
   321   1      11.220000000000008      35.530000000000008      50.490000000000002
   322   1      13.090000000000011      33.660000000000011      50.490000000000002
   323   1      13.090000000000011      35.530000000000008      48.620000000000012
   324   1      11.220000000000008      33.660000000000011      52.360000000000007
   325   1      11.220000000000008      35.530000000000008      54.230000000000004
   326   1      13.090000000000011      33.660000000000011      54.230000000000004
   327   1      13.090000000000011      35.530000000000008      52.360000000000007
   328   1      11.220000000000008      35.530000000000008      57.970000000000006
   329   1      13.090000000000011      33.660000000000011      57.970000000000006
   330   1      13.090000000000011      35.530000000000008      56.100000000000009
   331   1      13.090000000000011      35.530000000000008      59.840000000000011
   332   1      13.090000000000011      35.530000000000008      63.580000000000013
   333   1      11.220000000000008       39.27000000000001       39.27000000000001
   334   1      13.090000000000011      37.400000000000006       39.27000000000001
   335   1      13.090000000000011       39.27000000000001      37.400000000000006
   336   1      11.220000000000008      37.400000000000006      41.140000000000008
   337   1      11.220000000000008       39.27000000000001      43.010000000000012
   338   1      13.090000000000011      37.400000000000006      43.010000000000012
   339   1      13.090000000000011       39.27000000000001      41.140000000000008
   340   1      11.220000000000008      37.400000000000006       44.88000000000001
   341   1      11.220000000000008       39.27000000000001      46.750000000000007
   342   1      13.090000000000011      37.400000000000006      46.750000000000007
   343   1      13.090000000000011       39.27000000000001       44.88000000000001
   344   1      11.220000000000008      37.400000000000006      48.620000000000012
   345   1      11.220000000000008       39.27000000000001      50.490000000000002
   346   1      13.090000000000011      37.400000000000006      50.490000000000002
   347   1      13.090000000000011       39.27000000000001      48.620000000000012
   348   1      11.220000000000008      37.400000000000006      52.360000000000007
   349   1      11.220000000000008       39.27000000000001      54.230000000000004
   350   1      13.090000000000011      37.400000000000006      54.230000000000004
   351   1      13.090000000000011       39.27000000000001      52.360000000000007
   352   1      11.220000000000008      37.400000000000006      56.100000000000009
   353   1      11.220000000000008       39.27000000000001      57.970000000000006
   354   1      13.090000000000011      37.400000000000006      57.970000000000006
   355   1      13.090000000000011       39.27000000000001      56.100000000000009
   356   1      11.220000000000008      37.400000000000006      59.840000000000011
   357   1      11.220000000000008       39.27000000000001      61.710000000000008
   358   1      13.090000000000011      37.400000000000006      61.710000000000008