model_files/PtCu/PtCu_30000/PtCu_510/PtCu_510_fcc_29899_temp.data (written by ASE) 

29899 	 atoms 
2  atom types
0.0                      84  xlo xhi
0.0                      84  ylo yhi
0.0                      84  zlo zhi


Atoms 

     1   1      1.9249999999999901      32.724999999999987      34.649999999999991
     2   1      1.9249999999999901      32.724999999999987      38.499999999999986
     3   1      1.9249999999999901      32.724999999999987      42.349999999999987
     4   1      1.9249999999999901      32.724999999999987      46.199999999999996
     5   1      1.9249999999999901      32.724999999999987       50.04999999999999
     6   1      1.9249999999999901      34.649999999999991      32.724999999999987
     7   1      1.9249999999999901      34.649999999999991      36.574999999999989
     8   1      1.9249999999999901      36.574999999999989      34.649999999999991
     9   1      1.9249999999999901      34.649999999999991       40.42499999999999
    10   1      1.9249999999999901      36.574999999999989      38.499999999999986
    11   1      1.9249999999999901      34.649999999999991      44.274999999999991
    12   1      1.9249999999999901      36.574999999999989      42.349999999999987
    13   1      1.9249999999999901      34.649999999999991      48.124999999999986
    14   1      1.9249999999999901      36.574999999999989      46.199999999999996
    15   1      1.9249999999999901      34.649999999999991       51.97499999999998
    16   1      1.9249999999999901      36.574999999999989       50.04999999999999
    17   1      1.9249999999999901      38.499999999999986      32.724999999999987
    18   1      1.9249999999999901      38.499999999999986      36.574999999999989
    19   1      1.9249999999999901       40.42499999999999      34.649999999999991
    20   1      1.9249999999999901      38.499999999999986       40.42499999999999
    21   1      1.9249999999999901       40.42499999999999      38.499999999999986
    22   1      1.9249999999999901      38.499999999999986      44.274999999999991
    23   1      1.9249999999999901       40.42499999999999      42.349999999999987
    24   1      1.9249999999999901      38.499999999999986      48.124999999999986
    25   1      1.9249999999999901       40.42499999999999      46.199999999999996
    26   1      1.9249999999999901      38.499999999999986       51.97499999999998
    27   1      1.9249999999999901       40.42499999999999       50.04999999999999
    28   1      1.9249999999999901      42.349999999999987      32.724999999999987
    29   1      1.9249999999999901      42.349999999999987      36.574999999999989
    30   1      1.9249999999999901      44.274999999999991      34.649999999999991
    31   1      1.9249999999999901      42.349999999999987       40.42499999999999
    32   1      1.9249999999999901      44.274999999999991      38.499999999999986
    33   1      83.999999999999986      42.349999999999987      42.349999999999987
    34   1      1.9249999999999901      42.349999999999987      44.274999999999991
    35   1      1.9249999999999901      44.274999999999991      42.349999999999987
    36   1      1.9249999999999901      42.349999999999987      48.124999999999986
    37   1      1.9249999999999901      44.274999999999991      46.199999999999996
    38   1      1.9249999999999901      42.349999999999987       51.97499999999998
    39   1      1.9249999999999901      44.274999999999991       50.04999999999999
    40   1      1.9249999999999901      46.199999999999996      32.724999999999987
    41   1      1.9249999999999901      46.199999999999996      36.574999999999989
    42   1      1.9249999999999901      48.124999999999986      34.649999999999991
    43   1      1.9249999999999901      46.199999999999996       40.42499999999999
    44   1      1.9249999999999901      48.124999999999986      38.499999999999986
    45   1      1.9249999999999901      46.199999999999996      44.274999999999991
    46   1      1.9249999999999901      48.124999999999986      42.349999999999987
    47   1      1.9249999999999901      46.199999999999996      48.124999999999986
    48   1      1.9249999999999901      48.124999999999986      46.199999999999996
    49   1      1.9249999999999901      46.199999999999996       51.97499999999998
    50   1      1.9249999999999901      48.124999999999986       50.04999999999999
    51   1      1.9249999999999901       50.04999999999999      32.724999999999987
    52   1      1.9249999999999901       50.04999999999999      36.574999999999989
    53   1      1.9249999999999901       51.97499999999998      34.649999999999991
    54   1      1.9249999999999901       50.04999999999999       40.42499999999999
    55   1      1.9249999999999901       51.97499999999998      38.499999999999986
    56   1      1.9249999999999901       50.04999999999999      44.274999999999991
    57   1      1.9249999999999901       51.97499999999998      42.349999999999987
    58   1      1.9249999999999901       50.04999999999999      48.124999999999986
    59   1      1.9249999999999901       51.97499999999998      46.199999999999996
    60   1      1.9249999999999901       50.04999999999999       51.97499999999998
    61   1      1.9249999999999901       51.97499999999998       50.04999999999999
    62   1      5.7749999999999915      13.474999999999989       15.39999999999999
    63   1      5.7749999999999915      13.474999999999989      19.249999999999993
    64   1      5.7749999999999915      13.474999999999989      23.099999999999987
    65   1      5.7749999999999915      13.474999999999989      26.949999999999992
    66   1      5.7749999999999915      13.474999999999989       30.79999999999999
    67   1      5.7749999999999915      13.474999999999989      34.649999999999991
    68   1      5.7749999999999915      13.474999999999989      38.499999999999986
    69   1      5.7749999999999915      13.474999999999989      42.349999999999987
    70   1      5.7749999999999915      13.474999999999989      46.199999999999996
    71   1      5.7749999999999915      13.474999999999989       50.04999999999999
    72   1      5.7749999999999915      13.474999999999989      53.899999999999984
    73   1      5.7749999999999915      13.474999999999989      57.749999999999993
    74   1      5.7749999999999915      13.474999999999989      61.599999999999987
    75   1      5.7749999999999915      13.474999999999989      65.449999999999989
    76   1      5.7749999999999915      13.474999999999989      69.299999999999997
    77   1      5.7749999999999915       15.39999999999999      13.474999999999989
    78   1      5.7749999999999915       15.39999999999999      17.324999999999992
    79   1      5.7749999999999915      17.324999999999992       15.39999999999999
    80   1      5.7749999999999915       15.39999999999999      21.174999999999994
    81   1      5.7749999999999915      17.324999999999992      19.249999999999993
    82   1      5.7749999999999915       15.39999999999999      25.024999999999991
    83   1      5.7749999999999915      17.324999999999992      23.099999999999987
    84   1      5.7749999999999915       15.39999999999999      28.874999999999989
    85   1      5.7749999999999915      17.324999999999992      26.949999999999992
    86   1      5.7749999999999915       15.39999999999999      32.724999999999987
    87   1      5.7749999999999915      17.324999999999992       30.79999999999999
    88   1      5.7749999999999915       15.39999999999999      36.574999999999989
    89   1      5.7749999999999915      17.324999999999992      34.649999999999991
    90   1      5.7749999999999915       15.39999999999999       40.42499999999999
    91   1      5.7749999999999915      17.324999999999992      38.499999999999986
    92   1      5.7749999999999915       15.39999999999999      44.274999999999991
    93   1      5.7749999999999915      17.324999999999992      42.349999999999987
    94   1      5.7749999999999915       15.39999999999999      48.124999999999986
    95   1      5.7749999999999915      17.324999999999992      46.199999999999996
    96   1      5.7749999999999915       15.39999999999999       51.97499999999998
    97   1      5.7749999999999915      17.324999999999992       50.04999999999999
    98   1      5.7749999999999915       15.39999999999999      55.824999999999989
    99   1      5.7749999999999915      17.324999999999992      53.899999999999984
   100   1      5.7749999999999915       15.39999999999999      59.674999999999983
   101   1      5.7749999999999915      17.324999999999992      57.749999999999993
   102   1      5.7749999999999915       15.39999999999999      63.524999999999991
   103   1      5.7749999999999915      17.324999999999992      61.599999999999987
   104   1      5.7749999999999915       15.39999999999999      67.374999999999986
   105   1      5.7749999999999915      17.324999999999992      65.449999999999989
   106   1      5.7749999999999915       15.39999999999999      71.224999999999994
   107   1      5.7749999999999915      17.324999999999992      69.299999999999997
   108   1      5.7749999999999915      19.249999999999993      13.474999999999989
   109   1      5.7749999999999915      19.249999999999993      17.324999999999992
   110   1      5.7749999999999915      21.174999999999994       15.39999999999999
   111   1      5.7749999999999915      19.249999999999993      21.174999999999994
   112   1      5.7749999999999915      21.174999999999994      19.249999999999993
   113   1      5.7749999999999915      19.249999999999993      25.024999999999991
   114   1      5.7749999999999915      21.174999999999994      23.099999999999987
   115   1      5.7749999999999915      19.249999999999993      28.874999999999989
   116   1      5.7749999999999915      21.174999999999994      26.949999999999992
   117   1      5.7749999999999915      19.249999999999993      32.724999999999987
   118   1      5.7749999999999915      21.174999999999994       30.79999999999999
   119   1      5.7749999999999915      19.249999999999993      36.574999999999989
   120   1      5.7749999999999915      21.174999999999994      34.649999999999991
   121   1      5.7749999999999915      19.249999999999993       40.42499999999999
   122   1      5.7749999999999915      21.174999999999994      38.499999999999986
   123   1      5.7749999999999915      19.249999999999993      44.274999999999991
   124   1      5.7749999999999915      21.174999999999994      42.349999999999987
   125   1      5.7749999999999915      19.249999999999993      48.124999999999986
   126   1      5.7749999999999915      21.174999999999994      46.199999999999996
   127   1      5.7749999999999915      19.249999999999993       51.97499999999998
   128   1      5.7749999999999915      21.174999999999994       50.04999999999999
   129   1      5.7749999999999915      19.249999999999993      55.824999999999989
   130   1      5.7749999999999915      21.174999999999994      53.899999999999984
   131   1      5.7749999999999915      19.249999999999993      59.674999999999983
   132   1      5.7749999999999915      21.174999999999994      57.749999999999993
   133   1      5.7749999999999915      19.249999999999993      63.524999999999991
   134   1      5.7749999999999915      21.174999999999994      61.599999999999987
   135   1      5.7749999999999915      19.249999999999993      67.374999999999986
   136   1      5.7749999999999915      21.174999999999994      65.449999999999989
   137   1      5.7749999999999915      19.249999999999993      71.224999999999994
   138   1      5.7749999999999915      21.174999999999994      69.299999999999997
   139   1      5.7749999999999915      23.099999999999987      13.474999999999989
   140   1      5.7749999999999915      23.099999999999987      17.324999999999992
   141   1      5.7749999999999915      25.024999999999991       15.39999999999999
   142   1      5.7749999999999915      23.099999999999987      21.174999999999994
   143   1      5.7749999999999915      25.024999999999991      19.249999999999993
   144   1      3.8499999999999939      23.099999999999987      23.099999999999987
   145   1      3.8499999999999939      25.024999999999991      25.024999999999991
   146   1      5.7749999999999915      23.099999999999987      25.024999999999991
   147   1      5.7749999999999915      25.024999999999991      23.099999999999987
   148   1      3.8499999999999939      23.099999999999987      26.949999999999992
   149   1      3.8499999999999939      25.024999999999991      28.874999999999989
   150   1      5.7749999999999915      23.099999999999987      28.874999999999989
   151   1      5.7749999999999915      25.024999999999991      26.949999999999992
   152   1      3.8499999999999939      23.099999999999987       30.79999999999999
   153   1      3.8499999999999939      25.024999999999991      32.724999999999987
   154   1      5.7749999999999915      23.099999999999987      32.724999999999987
   155   1      5.7749999999999915      25.024999999999991       30.79999999999999
   156   1      3.8499999999999939      23.099999999999987      34.649999999999991
   157   1      3.8499999999999939      25.024999999999991      36.574999999999989
   158   1      5.7749999999999915      23.099999999999987      36.574999999999989
   159   1      5.7749999999999915      25.024999999999991      34.649999999999991
   160   1      3.8499999999999939      23.099999999999987      38.499999999999986
   161   1      3.8499999999999939      25.024999999999991       40.42499999999999
   162   1      5.7749999999999915      23.099999999999987       40.42499999999999
   163   1      5.7749999999999915      25.024999999999991      38.499999999999986
   164   1      3.8499999999999939      23.099999999999987      42.349999999999987
   165   1      3.8499999999999939      25.024999999999991      44.274999999999991
   166   1      5.7749999999999915      23.099999999999987      44.274999999999991
   167   1      5.7749999999999915      25.024999999999991      42.349999999999987
   168   1      3.8499999999999939      23.099999999999987      46.199999999999996
   169   1      3.8499999999999939      25.024999999999991      48.124999999999986
   170   1      5.7749999999999915      23.099999999999987      48.124999999999986
   171   1      5.7749999999999915      25.024999999999991      46.199999999999996
   172   1      3.8499999999999939      23.099999999999987       50.04999999999999
   173   1      3.8499999999999939      25.024999999999991       51.97499999999998
   174   1      5.7749999999999915      23.099999999999987       51.97499999999998
   175   1      5.7749999999999915      25.024999999999991       50.04999999999999
   176   1      3.8499999999999939      23.099999999999987      53.899999999999984
   177   1      3.8499999999999939      25.024999999999991      55.824999999999989
   178   1      5.7749999999999915      23.099999999999987      55.824999999999989
   179   1      5.7749999999999915      25.024999999999991      53.899999999999984
   180   1      3.8499999999999939      23.099999999999987      57.749999999999993
   181   1      3.8499999999999939      25.024999999999991      59.674999999999983
   182   1      5.7749999999999915      23.099999999999987      59.674999999999983
   183   1      5.7749999999999915      25.024999999999991      57.749999999999993
   184   1      3.8499999999999939      23.099999999999987      61.599999999999987
   185   1      5.7749999999999915      23.099999999999987      63.524999999999991
   186   1      5.7749999999999915      25.024999999999991      61.599999999999987
   187   1      5.7749999999999915      23.099999999999987      67.374999999999986
   188   1      5.7749999999999915      25.024999999999991      65.449999999999989
   189   1      5.7749999999999915      23.099999999999987      71.224999999999994
   190   1      5.7749999999999915      25.024999999999991      69.299999999999997
   191   1      5.7749999999999915      26.949999999999992      13.474999999999989
   192   1      5.7749999999999915      26.949999999999992      17.324999999999992
   193   1      5.7749999999999915      28.874999999999989       15.39999999999999
   194   1      5.7749999999999915      26.949999999999992      21.174999999999994
   195   1      5.7749999999999915      28.874999999999989      19.249999999999993
   196   1      3.8499999999999939      26.949999999999992      23.099999999999987
   197   1      3.8499999999999939      28.874999999999989      25.024999999999991
   198   1      5.7749999999999915      26.949999999999992      25.024999999999991
   199   1      5.7749999999999915      28.874999999999989      23.099999999999987
   200   1      3.8499999999999939      26.949999999999992      26.949999999999992
   201   1      3.8499999999999939      28.874999999999989      28.874999999999989
   202   1      5.7749999999999915      26.949999999999992      28.874999999999989
   203   1      5.7749999999999915      28.874999999999989      26.949999999999992
   204   1      3.8499999999999939      26.949999999999992       30.79999999999999
   205   1      3.8499999999999939      28.874999999999989      32.724999999999987
   206   1      5.7749999999999915      26.949999999999992      32.724999999999987
   207   1      5.7749999999999915      28.874999999999989       30.79999999999999
   208   1      3.8499999999999939      26.949999999999992      34.649999999999991
   209   1      3.8499999999999939      28.874999999999989      36.574999999999989
   210   1      5.7749999999999915      26.949999999999992      36.574999999999989
   211   1      5.7749999999999915      28.874999999999989      34.649999999999991
   212   1      3.8499999999999939      26.949999999999992      38.499999999999986
   213   1      3.8499999999999939      28.874999999999989       40.42499999999999
   214   1      5.7749999999999915      26.949999999999992       40.42499999999999
   215   1      5.7749999999999915      28.874999999999989      38.499999999999986
   216   1      3.8499999999999939      26.949999999999992      42.349999999999987
   217   1      3.8499999999999939      28.874999999999989      44.274999999999991
   218   1      5.7749999999999915      26.949999999999992      44.274999999999991
   219   1      5.7749999999999915      28.874999999999989      42.349999999999987
   220   1      3.8499999999999939      26.949999999999992      46.199999999999996
   221   1      3.8499999999999939      28.874999999999989      48.124999999999986
   222   1      5.7749999999999915      26.949999999999992      48.124999999999986
   223   1      5.7749999999999915      28.874999999999989      46.199999999999996
   224   1      3.8499999999999939      26.949999999999992       50.04999999999999
   225   1      3.8499999999999939      28.874999999999989       51.97499999999998
   226   1      5.7749999999999915      26.949999999999992       51.97499999999998
   227   1      5.7749999999999915      28.874999999999989       50.04999999999999
   228   1      3.8499999999999939      26.949999999999992      53.899999999999984
   229   1      3.8499999999999939      28.874999999999989      55.824999999999989
   230   1      5.7749999999999915      26.949999999999992      55.824999999999989
   231   1      5.7749999999999915      28.874999999999989      53.899999999999984
   232   1      3.8499999999999939      26.949999999999992      57.749999999999993
   233   1      3.8499999999999939      28.874999999999989      59.674999999999983
   234   1      5.7749999999999915      26.949999999999992      59.674999999999983
   235   1      5.7749999999999915      28.874999999999989      57.749999999999993
   236   1      3.8499999999999939      26.949999999999992      61.599999999999987
   237   1      5.7749999999999915      26.949999999999992      63.524999999999991
   238   1      5.7749999999999915      28.874999999999989      61.599999999999987
   239   1      5.7749999999999915      26.949999999999992      67.374999999999986
   240   1      5.7749999999999915      28.874999999999989      65.449999999999989
   241   1      5.7749999999999915      26.949999999999992      71.224999999999994
   242   1      5.7749999999999915      28.874999999999989      69.299999999999997
   243   1      5.7749999999999915       30.79999999999999      13.474999999999989
   244   1      5.7749999999999915       30.79999999999999      17.324999999999992
   245   1      5.7749999999999915      32.724999999999987       15.39999999999999
   246   1      5.7749999999999915       30.79999999999999      21.174999999999994
   247   1      5.7749999999999915      32.724999999999987      19.249999999999993
   248   1      3.8499999999999939       30.79999999999999      23.099999999999987
   249   1      3.8499999999999939      32.724999999999987      25.024999999999991
   250   1      5.7749999999999915       30.79999999999999      25.024999999999991
   251   1      5.7749999999999915      32.724999999999987      23.099999999999987
   252   1      3.8499999999999939       30.79999999999999      26.949999999999992
   253   1      3.8499999999999939      32.724999999999987      28.874999999999989
   254   1      5.7749999999999915       30.79999999999999      28.874999999999989
   255   1      5.7749999999999915      32.724999999999987      26.949999999999992
   256   1      3.8499999999999939       30.79999999999999       30.79999999999999
   257   1      3.8499999999999939      32.724999999999987      32.724999999999987
   258   1      5.7749999999999915       30.79999999999999      32.724999999999987
   259   1      5.7749999999999915      32.724999999999987       30.79999999999999
   260   1      3.8499999999999939       30.79999999999999      34.649999999999991
   261   1      3.8499999999999939      32.724999999999987      36.574999999999989
   262   1      5.7749999999999915       30.79999999999999      36.574999999999989
   263   1      5.7749999999999915      32.724999999999987      34.649999999999991
   264   1      3.8499999999999939       30.79999999999999      38.499999999999986
   265   1      3.8499999999999939      32.724999999999987       40.42499999999999
   266   1      5.7749999999999915       30.79999999999999       40.42499999999999
   267   1      5.7749999999999915      32.724999999999987      38.499999999999986
   268   1      3.8499999999999939       30.79999999999999      42.349999999999987
   269   1      3.8499999999999939      32.724999999999987      44.274999999999991
   270   1      5.7749999999999915       30.79999999999999      44.274999999999991
   271   1      5.7749999999999915      32.724999999999987      42.349999999999987
   272   1      3.8499999999999939       30.79999999999999      46.199999999999996
   273   1      3.8499999999999939      32.724999999999987      48.124999999999986
   274   1      5.7749999999999915       30.79999999999999      48.124999999999986
   275   1      5.7749999999999915      32.724999999999987      46.199999999999996
   276   1      3.8499999999999939       30.79999999999999       50.04999999999999
   277   1      3.8499999999999939      32.724999999999987       51.97499999999998
   278   1      5.7749999999999915       30.79999999999999       51.97499999999998
   279   1      5.7749999999999915      32.724999999999987       50.04999999999999
   280   1      3.8499999999999939       30.79999999999999      53.899999999999984
   281   1      3.8499999999999939      32.724999999999987      55.824999999999989
   282   1      5.7749999999999915       30.79999999999999      55.824999999999989
   283   1      5.7749999999999915      32.724999999999987      53.899999999999984
   284   1      3.8499999999999939       30.79999999999999      57.749999999999993
   285   1      3.8499999999999939      32.724999999999987      59.674999999999983
   286   1      5.7749999999999915       30.79999999999999      59.674999999999983
   287   1      5.7749999999999915      32.724999999999987      57.749999999999993
   288   1      3.8499999999999939       30.79999999999999      61.599999999999987
   289   1      5.7749999999999915       30.79999999999999      63.524999999999991
   290   1      5.7749999999999915      32.724999999999987      61.599999999999987
   291   1      5.7749999999999915       30.79999999999999      67.374999999999986
   292   1      5.7749999999999915      32.724999999999987      65.449999999999989
   293   1      5.7749999999999915       30.79999999999999      71.224999999999994
   294   1      5.7749999999999915      32.724999999999987      69.299999999999997
   295   1      5.7749999999999915      34.649999999999991      13.474999999999989
   296   1      5.7749999999999915      34.649999999999991      17.324999999999992
   297   1      5.7749999999999915      36.574999999999989       15.39999999999999
   298   1      5.7749999999999915      34.649999999999991      21.174999999999994
   299   1      5.7749999999999915      36.574999999999989      19.249999999999993
   300   1      3.8499999999999939      34.649999999999991      23.099999999999987
   301   1      3.8499999999999939      36.574999999999989      25.024999999999991
   302   1      5.7749999999999915      34.649999999999991      25.024999999999991
   303   1      5.7749999999999915      36.574999999999989      23.099999999999987
   304   1      3.8499999999999939      34.649999999999991      26.949999999999992
   305   1      3.8499999999999939      36.574999999999989      28.874999999999989
   306   1      5.7749999999999915      34.649999999999991      28.874999999999989
   307   1      5.7749999999999915      36.574999999999989      26.949999999999992
   308   1      3.8499999999999939      34.649999999999991       30.79999999999999
   309   1      3.8499999999999939      36.574999999999989      32.724999999999987
   310   1      5.7749999999999915      34.649999999999991      32.724999999999987
   311   1      5.7749999999999915      36.574999999999989       30.79999999999999
   312   1      3.8499999999999939      34.649999999999991      34.649999999999991
   313   1      3.8499999999999939      36.574999999999989      36.574999999999989
   314   1      5.7749999999999915      34.649999999999991      36.574999999999989
   315   1      5.7749999999999915      36.574999999999989      34.649999999999991
   316   1      3.8499999999999939      34.649999999999991      38.499999999999986
   317   1      3.8499999999999939      36.574999999999989       40.42499999999999
   318   1      5.7749999999999915      34.649999999999991       40.42499999999999
   319   1      5.7749999999999915      36.574999999999989      38.499999999999986
   320   1      3.8499999999999939      34.649999999999991      42.349999999999987
   321   1      3.8499999999999939      36.574999999999989      44.274999999999991
   322   1      5.7749999999999915      34.649999999999991      44.274999999999991
   323   1      5.7749999999999915      36.574999999999989      42.349999999999987
   324   1      3.8499999999999939      34.649999999999991      46.199999999999996
   325   1      3.8499999999999939      36.574999999999989      48.124999999999986
   326   1      5.7749999999999915      34.649999999999991      48.124999999999986
   327   1      5.7749999999999915      36.574999999999989      46.199999999999996
   328   1      3.8499999999999939      34.649999999999991       50.04999999999999
   329   1      3.8499999999999939      36.574999999999989       51.97499999999998
   330   1      5.7749999999999915      34.649999999999991       51.97499999999998
   331   1      5.7749999999999915      36.574999999999989       50.04999999999999
   332   1      3.8499999999999939      34.649999999999991      53.899999999999984
   333   1      3.8499999999999939      36.574999999999989      55.824999999999989
   334   1      5.7749999999999915      34.649999999999991      55.824999999999989
   335   1      5.7749999999999915      36.574999999999989      53.899999999999984
   336   1      3.8499999999999939      34.649999999999991      57.749999999999993
   337   1      3.8499999999999939      36.574999999999989      59.674999999999983
   338   1      5.7749999999999915      34.649999999999991      59.674999999999983
   339   1      5.7749999999999915      36.574999999999989      57.749999999999993
   340   1      3.8499999999999939      34.649999999999991      61.599999999999987
   341   1      5.7749999999999915      34.649999999999991      63.524999999999991
   342   1      5.7749999999999915      36.574999999999989      61.599999999999987
   343   1      5.7749999999999915      34.649999999999991      67.374999999999986
   344   1      5.7749999999999915      36.574999999999989      65.449999999999989
   345   1      5.7749999999999915      34.649999999999991      71.224999999999994
   346   1      5.7749999999999915      36.574999999999989      69.299999999999997
   347   1      5.7749999999999915      38.499999999999986      13.474999999999989
   348   1      5.7749999999999915      38.499999999999986      17.324999999999992
   349   1      5.7749999999999915       40.42499999999999       15.39999999999999
   350   1      5.7749999999999915      38.499999999999986      21.174999999999994
   351   1      5.7749999999999915       40.42499999999999      19.249999999999993
   352   1      3.8499999999999939      38.499999999999986      23.099999999999987
   353   1      3.8499999999999939       40.42499999999999      25.024999999999991
   354   1      5.7749999999999915      38.499999999999986      25.024999999999991
   355   1      5.7749999999999915       40.42499999999999      23.099999999999987
   356   1      3.8499999999999939      38.499999999999986      26.949999999999992
   357   1      3.8499999999999939       40.42499999999999      28.874999999999989
   358   1      5.7749999999999915      38.499999999999986      28.874999999999989