model_files/Co/Co_3000/Co_321/data.Co_321_hcp_2941 (written by ASE) 

2941 	 atoms 
1  atom types
0.0                      30  xlo xhi
0.0                      30  ylo yhi
0.0                      30  zlo zhi


Atoms 

     1   1      1.2549999999999955      11.294999999999995      15.059999999999993
     2   1      29.999999999999993      13.804999999999993      13.804999999999993
     3   1      1.2549999999999955      12.549999999999994      13.804999999999993
     4   1      1.2549999999999955      13.804999999999993      12.549999999999994
     5   1      29.999999999999993      12.549999999999994      15.059999999999993
     6   1      29.999999999999993      13.804999999999993      16.314999999999994
     7   1      1.2549999999999955      12.549999999999994      16.314999999999994
     8   1      1.2549999999999955      13.804999999999993      15.059999999999993
     9   1      1.2549999999999955      13.804999999999993      17.569999999999993
    10   1      1.2549999999999955      15.059999999999993      11.294999999999995
    11   1      29.999999999999993      15.059999999999993      12.549999999999994
    12   1      29.999999999999993      16.314999999999994      13.804999999999993
    13   1      1.2549999999999955      15.059999999999993      13.804999999999993
    14   1      1.2549999999999955      16.314999999999994      12.549999999999994
    15   1      29.999999999999993      15.059999999999993      15.059999999999993
    16   1      29.999999999999993      16.314999999999994      16.314999999999994
    17   1      1.2549999999999955      15.059999999999993      16.314999999999994
    18   1      1.2549999999999955      16.314999999999994      15.059999999999993
    19   1      29.999999999999993      15.059999999999993      17.569999999999993
    20   1      1.2549999999999955      15.059999999999993      18.824999999999992
    21   1      1.2549999999999955      16.314999999999994      17.569999999999993
    22   1      1.2549999999999955      17.569999999999993      13.804999999999993
    23   1      29.999999999999993      17.569999999999993      15.059999999999993
    24   1      1.2549999999999955      17.569999999999993      16.314999999999994
    25   1      1.2549999999999955      18.824999999999992      15.059999999999993
    26   1      3.7649999999999935      7.5299999999999931      13.804999999999993
    27   1      3.7649999999999935       8.784999999999993      12.549999999999994
    28   1      3.7649999999999935      7.5299999999999931      16.314999999999994
    29   1      3.7649999999999935       8.784999999999993      15.059999999999993
    30   1      3.7649999999999935       8.784999999999993      17.569999999999993
    31   1      2.5099999999999945      11.294999999999995      11.294999999999995
    32   1      3.7649999999999935      10.039999999999994      11.294999999999995
    33   1      3.7649999999999935      11.294999999999995      10.039999999999994
    34   1      2.5099999999999945      10.039999999999994      12.549999999999994
    35   1      2.5099999999999945      11.294999999999995      13.804999999999993
    36   1      3.7649999999999935      10.039999999999994      13.804999999999993
    37   1      3.7649999999999935      11.294999999999995      12.549999999999994
    38   1      2.5099999999999945      10.039999999999994      15.059999999999993
    39   1      2.5099999999999945      11.294999999999995      16.314999999999994
    40   1      3.7649999999999935      10.039999999999994      16.314999999999994
    41   1      3.7649999999999935      11.294999999999995      15.059999999999993
    42   1      2.5099999999999945      10.039999999999994      17.569999999999993
    43   1      2.5099999999999945      11.294999999999995      18.824999999999992
    44   1      3.7649999999999935      10.039999999999994      18.824999999999992
    45   1      3.7649999999999935      11.294999999999995      17.569999999999993
    46   1      3.7649999999999935      11.294999999999995      20.079999999999991
    47   1      3.7649999999999935      12.549999999999994       8.784999999999993
    48   1      3.7649999999999935      13.804999999999993      7.5299999999999931
    49   1      2.5099999999999945      12.549999999999994      10.039999999999994
    50   1      2.5099999999999945      13.804999999999993      11.294999999999995
    51   1      3.7649999999999935      12.549999999999994      11.294999999999995
    52   1      3.7649999999999935      13.804999999999993      10.039999999999994
    53   1      2.5099999999999945      12.549999999999994      12.549999999999994
    54   1      2.5099999999999945      13.804999999999993      13.804999999999993
    55   1      3.7649999999999935      12.549999999999994      13.804999999999993
    56   1      3.7649999999999935      13.804999999999993      12.549999999999994
    57   1      2.5099999999999945      12.549999999999994      15.059999999999993
    58   1      2.5099999999999945      13.804999999999993      16.314999999999994
    59   1      3.7649999999999935      12.549999999999994      16.314999999999994
    60   1      3.7649999999999935      13.804999999999993      15.059999999999993
    61   1      2.5099999999999945      12.549999999999994      17.569999999999993
    62   1      2.5099999999999945      13.804999999999993      18.824999999999992
    63   1      3.7649999999999935      12.549999999999994      18.824999999999992
    64   1      3.7649999999999935      13.804999999999993      17.569999999999993
    65   1      2.5099999999999945      12.549999999999994      20.079999999999991
    66   1      3.7649999999999935      12.549999999999994      21.334999999999987
    67   1      3.7649999999999935      13.804999999999993      20.079999999999991
    68   1      3.7649999999999935      13.804999999999993      22.589999999999993
    69   1      3.7649999999999935      15.059999999999993       8.784999999999993
    70   1      3.7649999999999935      16.314999999999994      7.5299999999999931
    71   1      2.5099999999999945      15.059999999999993      10.039999999999994
    72   1      2.5099999999999945      16.314999999999994      11.294999999999995
    73   1      3.7649999999999935      15.059999999999993      11.294999999999995
    74   1      3.7649999999999935      16.314999999999994      10.039999999999994
    75   1      2.5099999999999945      15.059999999999993      12.549999999999994
    76   1      2.5099999999999945      16.314999999999994      13.804999999999993
    77   1      3.7649999999999935      15.059999999999993      13.804999999999993
    78   1      3.7649999999999935      16.314999999999994      12.549999999999994
    79   1      2.5099999999999945      15.059999999999993      15.059999999999993
    80   1      2.5099999999999945      16.314999999999994      16.314999999999994
    81   1      3.7649999999999935      15.059999999999993      16.314999999999994
    82   1      3.7649999999999935      16.314999999999994      15.059999999999993
    83   1      2.5099999999999945      15.059999999999993      17.569999999999993
    84   1      2.5099999999999945      16.314999999999994      18.824999999999992
    85   1      3.7649999999999935      15.059999999999993      18.824999999999992
    86   1      3.7649999999999935      16.314999999999994      17.569999999999993
    87   1      2.5099999999999945      15.059999999999993      20.079999999999991
    88   1      3.7649999999999935      15.059999999999993      21.334999999999987
    89   1      3.7649999999999935      16.314999999999994      20.079999999999991
    90   1      3.7649999999999935      16.314999999999994      22.589999999999993
    91   1      3.7649999999999935      17.569999999999993       8.784999999999993
    92   1      2.5099999999999945      17.569999999999993      10.039999999999994
    93   1      2.5099999999999945      18.824999999999992      11.294999999999995
    94   1      3.7649999999999935      17.569999999999993      11.294999999999995
    95   1      3.7649999999999935      18.824999999999992      10.039999999999994
    96   1      2.5099999999999945      17.569999999999993      12.549999999999994
    97   1      2.5099999999999945      18.824999999999992      13.804999999999993
    98   1      3.7649999999999935      17.569999999999993      13.804999999999993
    99   1      3.7649999999999935      18.824999999999992      12.549999999999994
   100   1      2.5099999999999945      17.569999999999993      15.059999999999993
   101   1      2.5099999999999945      18.824999999999992      16.314999999999994
   102   1      3.7649999999999935      17.569999999999993      16.314999999999994
   103   1      3.7649999999999935      18.824999999999992      15.059999999999993
   104   1      2.5099999999999945      17.569999999999993      17.569999999999993
   105   1      2.5099999999999945      18.824999999999992      18.824999999999992
   106   1      3.7649999999999935      17.569999999999993      18.824999999999992
   107   1      3.7649999999999935      18.824999999999992      17.569999999999993
   108   1      2.5099999999999945      17.569999999999993      20.079999999999991
   109   1      3.7649999999999935      17.569999999999993      21.334999999999987
   110   1      3.7649999999999935      18.824999999999992      20.079999999999991
   111   1      3.7649999999999935      20.079999999999991      11.294999999999995
   112   1      2.5099999999999945      20.079999999999991      12.549999999999994
   113   1      3.7649999999999935      20.079999999999991      13.804999999999993
   114   1      3.7649999999999935      21.334999999999987      12.549999999999994
   115   1      2.5099999999999945      20.079999999999991      15.059999999999993
   116   1      3.7649999999999935      20.079999999999991      16.314999999999994
   117   1      3.7649999999999935      21.334999999999987      15.059999999999993
   118   1      2.5099999999999945      20.079999999999991      17.569999999999993
   119   1      3.7649999999999935      20.079999999999991      18.824999999999992
   120   1      3.7649999999999935      21.334999999999987      17.569999999999993
   121   1      3.7649999999999935      22.589999999999993      13.804999999999993
   122   1      3.7649999999999935      22.589999999999993      16.314999999999994
   123   1       6.274999999999995       6.274999999999995      10.039999999999994
   124   1      5.0199999999999942       6.274999999999995      13.804999999999993
   125   1       6.274999999999995      5.0199999999999942      13.804999999999993
   126   1       6.274999999999995       6.274999999999995      12.549999999999994
   127   1      5.0199999999999942      5.0199999999999942      15.059999999999993
   128   1      5.0199999999999942       6.274999999999995      16.314999999999994
   129   1       6.274999999999995      5.0199999999999942      16.314999999999994
   130   1       6.274999999999995       6.274999999999995      15.059999999999993
   131   1       6.274999999999995       6.274999999999995      17.569999999999993
   132   1       6.274999999999995       6.274999999999995      20.079999999999991
   133   1      5.0199999999999942       8.784999999999993       8.784999999999993
   134   1       6.274999999999995      7.5299999999999931       8.784999999999993
   135   1       6.274999999999995       8.784999999999993      7.5299999999999931
   136   1      5.0199999999999942      7.5299999999999931      10.039999999999994
   137   1      5.0199999999999942       8.784999999999993      11.294999999999995
   138   1       6.274999999999995      7.5299999999999931      11.294999999999995
   139   1       6.274999999999995       8.784999999999993      10.039999999999994
   140   1      5.0199999999999942      7.5299999999999931      12.549999999999994
   141   1      5.0199999999999942       8.784999999999993      13.804999999999993
   142   1       6.274999999999995      7.5299999999999931      13.804999999999993
   143   1       6.274999999999995       8.784999999999993      12.549999999999994
   144   1      5.0199999999999942      7.5299999999999931      15.059999999999993
   145   1      5.0199999999999942       8.784999999999993      16.314999999999994
   146   1       6.274999999999995      7.5299999999999931      16.314999999999994
   147   1       6.274999999999995       8.784999999999993      15.059999999999993
   148   1      5.0199999999999942      7.5299999999999931      17.569999999999993
   149   1      5.0199999999999942       8.784999999999993      18.824999999999992
   150   1       6.274999999999995      7.5299999999999931      18.824999999999992
   151   1       6.274999999999995       8.784999999999993      17.569999999999993
   152   1      5.0199999999999942      7.5299999999999931      20.079999999999991
   153   1      5.0199999999999942       8.784999999999993      21.334999999999987
   154   1       6.274999999999995      7.5299999999999931      21.334999999999987
   155   1       6.274999999999995       8.784999999999993      20.079999999999991
   156   1       6.274999999999995       8.784999999999993      22.589999999999993
   157   1       6.274999999999995      10.039999999999994       6.274999999999995
   158   1      5.0199999999999942      10.039999999999994      7.5299999999999931
   159   1      5.0199999999999942      11.294999999999995       8.784999999999993
   160   1       6.274999999999995      10.039999999999994       8.784999999999993
   161   1       6.274999999999995      11.294999999999995      7.5299999999999931
   162   1      5.0199999999999942      10.039999999999994      10.039999999999994
   163   1      5.0199999999999942      11.294999999999995      11.294999999999995
   164   1       6.274999999999995      10.039999999999994      11.294999999999995
   165   1       6.274999999999995      11.294999999999995      10.039999999999994
   166   1      5.0199999999999942      10.039999999999994      12.549999999999994
   167   1      5.0199999999999942      11.294999999999995      13.804999999999993
   168   1       6.274999999999995      10.039999999999994      13.804999999999993
   169   1       6.274999999999995      11.294999999999995      12.549999999999994
   170   1      5.0199999999999942      10.039999999999994      15.059999999999993
   171   1      5.0199999999999942      11.294999999999995      16.314999999999994
   172   1       6.274999999999995      10.039999999999994      16.314999999999994
   173   1       6.274999999999995      11.294999999999995      15.059999999999993
   174   1      5.0199999999999942      10.039999999999994      17.569999999999993
   175   1      5.0199999999999942      11.294999999999995      18.824999999999992
   176   1       6.274999999999995      10.039999999999994      18.824999999999992
   177   1       6.274999999999995      11.294999999999995      17.569999999999993
   178   1      5.0199999999999942      10.039999999999994      20.079999999999991
   179   1      5.0199999999999942      11.294999999999995      21.334999999999987
   180   1       6.274999999999995      10.039999999999994      21.334999999999987
   181   1       6.274999999999995      11.294999999999995      20.079999999999991
   182   1      5.0199999999999942      10.039999999999994      22.589999999999993
   183   1       6.274999999999995      10.039999999999994      23.844999999999992
   184   1       6.274999999999995      11.294999999999995      22.589999999999993
   185   1      5.0199999999999942      13.804999999999993       6.274999999999995
   186   1       6.274999999999995      12.549999999999994       6.274999999999995
   187   1       6.274999999999995      13.804999999999993      5.0199999999999942
   188   1      5.0199999999999942      12.549999999999994      7.5299999999999931
   189   1      5.0199999999999942      13.804999999999993       8.784999999999993
   190   1       6.274999999999995      12.549999999999994       8.784999999999993
   191   1       6.274999999999995      13.804999999999993      7.5299999999999931
   192   1      5.0199999999999942      12.549999999999994      10.039999999999994
   193   1      5.0199999999999942      13.804999999999993      11.294999999999995
   194   1       6.274999999999995      12.549999999999994      11.294999999999995
   195   1       6.274999999999995      13.804999999999993      10.039999999999994
   196   1      5.0199999999999942      12.549999999999994      12.549999999999994
   197   1      5.0199999999999942      13.804999999999993      13.804999999999993
   198   1       6.274999999999995      12.549999999999994      13.804999999999993
   199   1       6.274999999999995      13.804999999999993      12.549999999999994
   200   1      5.0199999999999942      12.549999999999994      15.059999999999993
   201   1      5.0199999999999942      13.804999999999993      16.314999999999994
   202   1       6.274999999999995      12.549999999999994      16.314999999999994
   203   1       6.274999999999995      13.804999999999993      15.059999999999993
   204   1      5.0199999999999942      12.549999999999994      17.569999999999993
   205   1      5.0199999999999942      13.804999999999993      18.824999999999992
   206   1       6.274999999999995      12.549999999999994      18.824999999999992
   207   1       6.274999999999995      13.804999999999993      17.569999999999993
   208   1      5.0199999999999942      12.549999999999994      20.079999999999991
   209   1      5.0199999999999942      13.804999999999993      21.334999999999987
   210   1       6.274999999999995      12.549999999999994      21.334999999999987
   211   1       6.274999999999995      13.804999999999993      20.079999999999991
   212   1      5.0199999999999942      12.549999999999994      22.589999999999993
   213   1      5.0199999999999942      13.804999999999993      23.844999999999992
   214   1       6.274999999999995      12.549999999999994      23.844999999999992
   215   1       6.274999999999995      13.804999999999993      22.589999999999993
   216   1       6.274999999999995      13.804999999999993      25.099999999999994
   217   1      5.0199999999999942      15.059999999999993      5.0199999999999942
   218   1      5.0199999999999942      16.314999999999994       6.274999999999995
   219   1       6.274999999999995      15.059999999999993       6.274999999999995
   220   1       6.274999999999995      16.314999999999994      5.0199999999999942
   221   1      5.0199999999999942      15.059999999999993      7.5299999999999931
   222   1      5.0199999999999942      16.314999999999994       8.784999999999993
   223   1       6.274999999999995      15.059999999999993       8.784999999999993
   224   1       6.274999999999995      16.314999999999994      7.5299999999999931
   225   1      5.0199999999999942      15.059999999999993      10.039999999999994
   226   1      5.0199999999999942      16.314999999999994      11.294999999999995
   227   1       6.274999999999995      15.059999999999993      11.294999999999995
   228   1       6.274999999999995      16.314999999999994      10.039999999999994
   229   1      5.0199999999999942      15.059999999999993      12.549999999999994
   230   1      5.0199999999999942      16.314999999999994      13.804999999999993
   231   1       6.274999999999995      15.059999999999993      13.804999999999993
   232   1       6.274999999999995      16.314999999999994      12.549999999999994
   233   1      5.0199999999999942      15.059999999999993      15.059999999999993
   234   1      5.0199999999999942      16.314999999999994      16.314999999999994
   235   1       6.274999999999995      15.059999999999993      16.314999999999994
   236   1       6.274999999999995      16.314999999999994      15.059999999999993
   237   1      5.0199999999999942      15.059999999999993      17.569999999999993
   238   1      5.0199999999999942      16.314999999999994      18.824999999999992
   239   1       6.274999999999995      15.059999999999993      18.824999999999992
   240   1       6.274999999999995      16.314999999999994      17.569999999999993
   241   1      5.0199999999999942      15.059999999999993      20.079999999999991
   242   1      5.0199999999999942      16.314999999999994      21.334999999999987
   243   1       6.274999999999995      15.059999999999993      21.334999999999987
   244   1       6.274999999999995      16.314999999999994      20.079999999999991
   245   1      5.0199999999999942      15.059999999999993      22.589999999999993
   246   1      5.0199999999999942      16.314999999999994      23.844999999999992
   247   1       6.274999999999995      15.059999999999993      23.844999999999992
   248   1       6.274999999999995      16.314999999999994      22.589999999999993
   249   1      5.0199999999999942      15.059999999999993      25.099999999999994
   250   1       6.274999999999995      16.314999999999994      25.099999999999994
   251   1       6.274999999999995      17.569999999999993       6.274999999999995
   252   1      5.0199999999999942      17.569999999999993      7.5299999999999931
   253   1      5.0199999999999942      18.824999999999992       8.784999999999993
   254   1       6.274999999999995      17.569999999999993       8.784999999999993
   255   1       6.274999999999995      18.824999999999992      7.5299999999999931
   256   1      5.0199999999999942      17.569999999999993      10.039999999999994
   257   1      5.0199999999999942      18.824999999999992      11.294999999999995
   258   1       6.274999999999995      17.569999999999993      11.294999999999995
   259   1       6.274999999999995      18.824999999999992      10.039999999999994
   260   1      5.0199999999999942      17.569999999999993      12.549999999999994
   261   1      5.0199999999999942      18.824999999999992      13.804999999999993
   262   1       6.274999999999995      17.569999999999993      13.804999999999993
   263   1       6.274999999999995      18.824999999999992      12.549999999999994
   264   1      5.0199999999999942      17.569999999999993      15.059999999999993
   265   1      5.0199999999999942      18.824999999999992      16.314999999999994
   266   1       6.274999999999995      17.569999999999993      16.314999999999994
   267   1       6.274999999999995      18.824999999999992      15.059999999999993
   268   1      5.0199999999999942      17.569999999999993      17.569999999999993
   269   1      5.0199999999999942      18.824999999999992      18.824999999999992
   270   1       6.274999999999995      17.569999999999993      18.824999999999992
   271   1       6.274999999999995      18.824999999999992      17.569999999999993
   272   1      5.0199999999999942      17.569999999999993      20.079999999999991
   273   1      5.0199999999999942      18.824999999999992      21.334999999999987
   274   1       6.274999999999995      17.569999999999993      21.334999999999987
   275   1       6.274999999999995      18.824999999999992      20.079999999999991
   276   1      5.0199999999999942      17.569999999999993      22.589999999999993
   277   1       6.274999999999995      17.569999999999993      23.844999999999992
   278   1       6.274999999999995      18.824999999999992      22.589999999999993
   279   1       6.274999999999995      20.079999999999991       6.274999999999995
   280   1      5.0199999999999942      20.079999999999991      7.5299999999999931
   281   1      5.0199999999999942      21.334999999999987       8.784999999999993
   282   1       6.274999999999995      20.079999999999991       8.784999999999993
   283   1       6.274999999999995      21.334999999999987      7.5299999999999931
   284   1      5.0199999999999942      20.079999999999991      10.039999999999994
   285   1      5.0199999999999942      21.334999999999987      11.294999999999995
   286   1       6.274999999999995      20.079999999999991      11.294999999999995
   287   1       6.274999999999995      21.334999999999987      10.039999999999994
   288   1      5.0199999999999942      20.079999999999991      12.549999999999994
   289   1      5.0199999999999942      21.334999999999987      13.804999999999993
   290   1       6.274999999999995      20.079999999999991      13.804999999999993
   291   1       6.274999999999995      21.334999999999987      12.549999999999994
   292   1      5.0199999999999942      20.079999999999991      15.059999999999993
   293   1      5.0199999999999942      21.334999999999987      16.314999999999994
   294   1       6.274999999999995      20.079999999999991      16.314999999999994
   295   1       6.274999999999995      21.334999999999987      15.059999999999993
   296   1      5.0199999999999942      20.079999999999991      17.569999999999993
   297   1      5.0199999999999942      21.334999999999987      18.824999999999992
   298   1       6.274999999999995      20.079999999999991      18.824999999999992
   299   1       6.274999999999995      21.334999999999987      17.569999999999993
   300   1      5.0199999999999942      20.079999999999991      20.079999999999991
   301   1      5.0199999999999942      21.334999999999987      21.334999999999987
   302   1       6.274999999999995      20.079999999999991      21.334999999999987
   303   1       6.274999999999995      21.334999999999987      20.079999999999991
   304   1      5.0199999999999942      20.079999999999991      22.589999999999993
   305   1       6.274999999999995      20.079999999999991      23.844999999999992
   306   1       6.274999999999995      21.334999999999987      22.589999999999993
   307   1       6.274999999999995      22.589999999999993       8.784999999999993
   308   1      5.0199999999999942      22.589999999999993      10.039999999999994
   309   1       6.274999999999995      22.589999999999993      11.294999999999995
   310   1       6.274999999999995      23.844999999999992      10.039999999999994
   311   1      5.0199999999999942      22.589999999999993      12.549999999999994
   312   1      5.0199999999999942      23.844999999999992      13.804999999999993
   313   1       6.274999999999995      22.589999999999993      13.804999999999993
   314   1       6.274999999999995      23.844999999999992      12.549999999999994
   315   1      5.0199999999999942      22.589999999999993      15.059999999999993
   316   1      5.0199999999999942      23.844999999999992      16.314999999999994
   317   1       6.274999999999995      22.589999999999993      16.314999999999994
   318   1       6.274999999999995      23.844999999999992      15.059999999999993
   319   1      5.0199999999999942      22.589999999999993      17.569999999999993
   320   1       6.274999999999995      22.589999999999993      18.824999999999992
   321   1       6.274999999999995      23.844999999999992      17.569999999999993
   322   1      5.0199999999999942      22.589999999999993      20.079999999999991
   323   1       6.274999999999995      22.589999999999993      21.334999999999987
   324   1       6.274999999999995      23.844999999999992      20.079999999999991
   325   1       6.274999999999995      25.099999999999994      13.804999999999993
   326   1      5.0199999999999942      25.099999999999994      15.059999999999993
   327   1       6.274999999999995      25.099999999999994      16.314999999999994
   328   1      7.5299999999999931      3.7649999999999935      13.804999999999993
   329   1       8.784999999999993      3.7649999999999935      12.549999999999994
   330   1      7.5299999999999931      3.7649999999999935      16.314999999999994
   331   1       8.784999999999993      3.7649999999999935      15.059999999999993
   332   1       8.784999999999993      3.7649999999999935      17.569999999999993
   333   1      7.5299999999999931       6.274999999999995       8.784999999999993
   334   1       8.784999999999993      5.0199999999999942       8.784999999999993
   335   1       8.784999999999993       6.274999999999995      7.5299999999999931
   336   1      7.5299999999999931      5.0199999999999942      10.039999999999994
   337   1      7.5299999999999931       6.274999999999995      11.294999999999995
   338   1       8.784999999999993      5.0199999999999942      11.294999999999995
   339   1       8.784999999999993       6.274999999999995      10.039999999999994
   340   1      7.5299999999999931      5.0199999999999942      12.549999999999994
   341   1      7.5299999999999931       6.274999999999995      13.804999999999993
   342   1       8.784999999999993      5.0199999999999942      13.804999999999993
   343   1       8.784999999999993       6.274999999999995      12.549999999999994
   344   1      7.5299999999999931      5.0199999999999942      15.059999999999993
   345   1      7.5299999999999931       6.274999999999995      16.314999999999994
   346   1       8.784999999999993      5.0199999999999942      16.314999999999994
   347   1       8.784999999999993       6.274999999999995      15.059999999999993
   348   1      7.5299999999999931      5.0199999999999942      17.569999999999993
   349   1      7.5299999999999931       6.274999999999995      18.824999999999992
   350   1       8.784999999999993      5.0199999999999942      18.824999999999992
   351   1       8.784999999999993       6.274999999999995      17.569999999999993
   352   1      7.5299999999999931      5.0199999999999942      20.079999999999991
   353   1      7.5299999999999931       6.274999999999995      21.334999999999987
   354   1       8.784999999999993      5.0199999999999942      21.334999999999987
   355   1       8.784999999999993       6.274999999999995      20.079999999999991
   356   1       8.784999999999993       6.274999999999995      22.589999999999993
   357   1      7.5299999999999931       8.784999999999993       6.274999999999995
   358   1       8.784999999999993      7.5299999999999931       6.274999999999995