model_files/PdCo/PdCo_30000/PdCo_410/PdCo_410_fcc_29755_temp.data (written by ASE) 

29755 	 atoms 
2  atom types
0.0                      82  xlo xhi
0.0                      82  ylo yhi
0.0                      82  zlo zhi


Atoms 

     1   1                   1.875                      30                  31.875
     2   1                   1.875                  31.875                      30
     3   1                   1.875                      30                  35.625
     4   1                   1.875                  31.875                   33.75
     5   1                   1.875                      30                  39.375
     6   1                   1.875                  31.875                    37.5
     7   1                   1.875                      30                  43.125
     8   1                   1.875                  31.875                   41.25
     9   1                   1.875                      30                  46.875
    10   1                   1.875                  31.875                      45
    11   1                   1.875                      30      50.625000000000007
    12   1                   1.875                  31.875                   48.75
    13   1                   1.875                  31.875                    52.5
    14   1                   1.875                   33.75                  31.875
    15   1                   1.875                  35.625                      30
    16   1                   1.875                   33.75                  35.625
    17   1                   1.875                  35.625                   33.75
    18   1                   1.875                   33.75                  39.375
    19   1                   1.875                  35.625                    37.5
    20   1                   1.875                   33.75                  43.125
    21   1                   1.875                  35.625                   41.25
    22   1                   1.875                   33.75                  46.875
    23   1                   1.875                  35.625                      45
    24   1                   1.875                   33.75      50.625000000000007
    25   1                   1.875                  35.625                   48.75
    26   1                   1.875                  35.625                    52.5
    27   1                   1.875                    37.5                  31.875
    28   1                   1.875                  39.375                      30
    29   1                   1.875                    37.5                  35.625
    30   1                   1.875                  39.375                   33.75
    31   1                       0                    37.5                    37.5
    32   1                       0                  39.375                  39.375
    33   1                   1.875                    37.5                  39.375
    34   1                   1.875                  39.375                    37.5
    35   1                       0                    37.5                   41.25
    36   1                       0                  39.375                  43.125
    37   1                   1.875                    37.5                  43.125
    38   1                   1.875                  39.375                   41.25
    39   1                       0                    37.5                      45
    40   1                   1.875                    37.5                  46.875
    41   1                   1.875                  39.375                      45
    42   1                   1.875                    37.5      50.625000000000007
    43   1                   1.875                  39.375                   48.75
    44   1                   1.875                  39.375                    52.5
    45   1                   1.875                   41.25                  31.875
    46   1                   1.875                  43.125                      30
    47   1                   1.875                   41.25                  35.625
    48   1                   1.875                  43.125                   33.75
    49   1                       0                   41.25                    37.5
    50   1                       0                  43.125                  39.375
    51   1                   1.875                   41.25                  39.375
    52   1                   1.875                  43.125                    37.5
    53   1                       0                   41.25                   41.25
    54   1                       0                  43.125                  43.125
    55   1                   1.875                   41.25                  43.125
    56   1                   1.875                  43.125                   41.25
    57   1                       0                   41.25                      45
    58   1                   1.875                   41.25                  46.875
    59   1                   1.875                  43.125                      45
    60   1                   1.875                   41.25      50.625000000000007
    61   1                   1.875                  43.125                   48.75
    62   1                   1.875                  43.125                    52.5
    63   1                   1.875                      45                  31.875
    64   1                   1.875                  46.875                      30
    65   1                   1.875                      45                  35.625
    66   1                   1.875                  46.875                   33.75
    67   1                       0                      45                    37.5
    68   1                   1.875                      45                  39.375
    69   1                   1.875                  46.875                    37.5
    70   1                       0                      45                   41.25
    71   1                   1.875                      45                  43.125
    72   1                   1.875                  46.875                   41.25
    73   1                       0                      45                      45
    74   1                   1.875                      45                  46.875
    75   1                   1.875                  46.875                      45
    76   1                   1.875                      45      50.625000000000007
    77   1                   1.875                  46.875                   48.75
    78   1                   1.875                  46.875                    52.5
    79   1                   1.875                   48.75                  31.875
    80   1                   1.875      50.625000000000007                      30
    81   1                   1.875                   48.75                  35.625
    82   1                   1.875      50.625000000000007                   33.75
    83   1                   1.875                   48.75                  39.375
    84   1                   1.875      50.625000000000007                    37.5
    85   1                   1.875                   48.75                  43.125
    86   1                   1.875      50.625000000000007                   41.25
    87   1                   1.875                   48.75                  46.875
    88   1                   1.875      50.625000000000007                      45
    89   1                   1.875                   48.75      50.625000000000007
    90   1                   1.875      50.625000000000007                   48.75
    91   1                   1.875      50.625000000000007                    52.5
    92   1                   1.875                    52.5                  31.875
    93   1                   1.875                    52.5                  35.625
    94   1                   1.875                    52.5                  39.375
    95   1                   1.875                    52.5                  43.125
    96   1                   1.875                    52.5                  46.875
    97   1                   1.875                    52.5      50.625000000000007
    98   1                   5.625                      15                  16.875
    99   1                   5.625                  16.875                      15
   100   1                   5.625                      15                  20.625
   101   1                   5.625                  16.875                   18.75
   102   1                   5.625                      15                  24.375
   103   1                   5.625                  16.875                    22.5
   104   1                   5.625                      15      28.125000000000004
   105   1                   5.625                  16.875                   26.25
   106   1                   5.625                      15                  31.875
   107   1                   5.625                  16.875                      30
   108   1                   5.625                      15                  35.625
   109   1                   5.625                  16.875                   33.75
   110   1                   5.625                      15                  39.375
   111   1                   5.625                  16.875                    37.5
   112   1                   5.625                      15                  43.125
   113   1                   5.625                  16.875                   41.25
   114   1                   5.625                      15                  46.875
   115   1                   5.625                  16.875                      45
   116   1                   5.625                      15      50.625000000000007
   117   1                   5.625                  16.875                   48.75
   118   1                   5.625                      15                  54.375
   119   1                   5.625                  16.875                    52.5
   120   1                   5.625                      15                  58.125
   121   1                   5.625                  16.875      56.250000000000007
   122   1                   5.625                      15      61.875000000000007
   123   1                   5.625                  16.875                      60
   124   1                   5.625                      15                  65.625
   125   1                   5.625                  16.875                   63.75
   126   1                   5.625                  16.875                    67.5
   127   1                   5.625                   18.75                  16.875
   128   1                   5.625                  20.625                      15
   129   1                   5.625                   18.75                  20.625
   130   1                   5.625                  20.625                   18.75
   131   1                   5.625                   18.75                  24.375
   132   1                   5.625                  20.625                    22.5
   133   1                   5.625                   18.75      28.125000000000004
   134   1                   5.625                  20.625                   26.25
   135   1                   5.625                   18.75                  31.875
   136   1                   5.625                  20.625                      30
   137   1                   5.625                   18.75                  35.625
   138   1                   5.625                  20.625                   33.75
   139   1                   5.625                   18.75                  39.375
   140   1                   5.625                  20.625                    37.5
   141   1                   5.625                   18.75                  43.125
   142   1                   5.625                  20.625                   41.25
   143   1                   5.625                   18.75                  46.875
   144   1                   5.625                  20.625                      45
   145   1                   5.625                   18.75      50.625000000000007
   146   1                   5.625                  20.625                   48.75
   147   1                   5.625                   18.75                  54.375
   148   1                   5.625                  20.625                    52.5
   149   1                   5.625                   18.75                  58.125
   150   1                   5.625                  20.625      56.250000000000007
   151   1                   5.625                   18.75      61.875000000000007
   152   1                   5.625                  20.625                      60
   153   1                   5.625                   18.75                  65.625
   154   1                   5.625                  20.625                   63.75
   155   1                   5.625                  20.625                    67.5
   156   1                   5.625                    22.5                  16.875
   157   1                   5.625                  24.375                      15
   158   1                   5.625                    22.5                  20.625
   159   1                   5.625                  24.375                   18.75
   160   1                    3.75                    22.5                    22.5
   161   1                    3.75                  24.375                  24.375
   162   1                   5.625                    22.5                  24.375
   163   1                   5.625                  24.375                    22.5
   164   1                    3.75                    22.5                   26.25
   165   1                    3.75                  24.375      28.125000000000004
   166   1                   5.625                    22.5      28.125000000000004
   167   1                   5.625                  24.375                   26.25
   168   1                    3.75                    22.5                      30
   169   1                    3.75                  24.375                  31.875
   170   1                   5.625                    22.5                  31.875
   171   1                   5.625                  24.375                      30
   172   1                    3.75                    22.5                   33.75
   173   1                    3.75                  24.375                  35.625
   174   1                   5.625                    22.5                  35.625
   175   1                   5.625                  24.375                   33.75
   176   1                    3.75                    22.5                    37.5
   177   1                    3.75                  24.375                  39.375
   178   1                   5.625                    22.5                  39.375
   179   1                   5.625                  24.375                    37.5
   180   1                    3.75                    22.5                   41.25
   181   1                    3.75                  24.375                  43.125
   182   1                   5.625                    22.5                  43.125
   183   1                   5.625                  24.375                   41.25
   184   1                    3.75                    22.5                      45
   185   1                    3.75                  24.375                  46.875
   186   1                   5.625                    22.5                  46.875
   187   1                   5.625                  24.375                      45
   188   1                    3.75                    22.5                   48.75
   189   1                    3.75                  24.375      50.625000000000007
   190   1                   5.625                    22.5      50.625000000000007
   191   1                   5.625                  24.375                   48.75
   192   1                    3.75                    22.5                    52.5
   193   1                    3.75                  24.375                  54.375
   194   1                   5.625                    22.5                  54.375
   195   1                   5.625                  24.375                    52.5
   196   1                    3.75                    22.5      56.250000000000007
   197   1                    3.75                  24.375                  58.125
   198   1                   5.625                    22.5                  58.125
   199   1                   5.625                  24.375      56.250000000000007
   200   1                    3.75                    22.5                      60
   201   1                   5.625                    22.5      61.875000000000007
   202   1                   5.625                  24.375                      60
   203   1                   5.625                    22.5                  65.625
   204   1                   5.625                  24.375                   63.75
   205   1                   5.625                  24.375                    67.5
   206   1                   5.625                   26.25                  16.875
   207   1                   5.625      28.125000000000004                      15
   208   1                   5.625                   26.25                  20.625
   209   1                   5.625      28.125000000000004                   18.75
   210   1                    3.75                   26.25                    22.5
   211   1                    3.75      28.125000000000004                  24.375
   212   1                   5.625                   26.25                  24.375
   213   1                   5.625      28.125000000000004                    22.5
   214   1                    3.75                   26.25                   26.25
   215   1                    3.75      28.125000000000004      28.125000000000004
   216   1                   5.625                   26.25      28.125000000000004
   217   1                   5.625      28.125000000000004                   26.25
   218   1                    3.75                   26.25                      30
   219   1                    3.75      28.125000000000004                  31.875
   220   1                   5.625                   26.25                  31.875
   221   1                   5.625      28.125000000000004                      30
   222   1                    3.75                   26.25                   33.75
   223   1                    3.75      28.125000000000004                  35.625
   224   1                   5.625                   26.25                  35.625
   225   1                   5.625      28.125000000000004                   33.75
   226   1                    3.75                   26.25                    37.5
   227   1                    3.75      28.125000000000004                  39.375
   228   1                   5.625                   26.25                  39.375
   229   1                   5.625      28.125000000000004                    37.5
   230   1                    3.75                   26.25                   41.25
   231   1                    3.75      28.125000000000004                  43.125
   232   1                   5.625                   26.25                  43.125
   233   1                   5.625      28.125000000000004                   41.25
   234   1                    3.75                   26.25                      45
   235   1                    3.75      28.125000000000004                  46.875
   236   1                   5.625                   26.25                  46.875
   237   1                   5.625      28.125000000000004                      45
   238   1                    3.75                   26.25                   48.75
   239   1                    3.75      28.125000000000004      50.625000000000007
   240   1                   5.625                   26.25      50.625000000000007
   241   1                   5.625      28.125000000000004                   48.75
   242   1                    3.75                   26.25                    52.5
   243   1                    3.75      28.125000000000004                  54.375
   244   1                   5.625                   26.25                  54.375
   245   1                   5.625      28.125000000000004                    52.5
   246   1                    3.75                   26.25      56.250000000000007
   247   1                    3.75      28.125000000000004                  58.125
   248   1                   5.625                   26.25                  58.125
   249   1                   5.625      28.125000000000004      56.250000000000007
   250   1                    3.75                   26.25                      60
   251   1                   5.625                   26.25      61.875000000000007
   252   1                   5.625      28.125000000000004                      60
   253   1                   5.625                   26.25                  65.625
   254   1                   5.625      28.125000000000004                   63.75
   255   1                   5.625      28.125000000000004                    67.5
   256   1                   5.625                      30                  16.875
   257   1                   5.625                  31.875                      15
   258   1                   5.625                      30                  20.625
   259   1                   5.625                  31.875                   18.75
   260   1                    3.75                      30                    22.5
   261   1                    3.75                  31.875                  24.375
   262   1                   5.625                      30                  24.375
   263   1                   5.625                  31.875                    22.5
   264   1                    3.75                      30                   26.25
   265   1                    3.75                  31.875      28.125000000000004
   266   1                   5.625                      30      28.125000000000004
   267   1                   5.625                  31.875                   26.25
   268   1                    3.75                      30                      30
   269   1                    3.75                  31.875                  31.875
   270   1                   5.625                      30                  31.875
   271   1                   5.625                  31.875                      30
   272   1                    3.75                      30                   33.75
   273   1                    3.75                  31.875                  35.625
   274   1                   5.625                      30                  35.625
   275   1                   5.625                  31.875                   33.75
   276   1                    3.75                      30                    37.5
   277   1                    3.75                  31.875                  39.375
   278   1                   5.625                      30                  39.375
   279   1                   5.625                  31.875                    37.5
   280   1                    3.75                      30                   41.25
   281   1                    3.75                  31.875                  43.125
   282   1                   5.625                      30                  43.125
   283   1                   5.625                  31.875                   41.25
   284   1                    3.75                      30                      45
   285   1                    3.75                  31.875                  46.875
   286   1                   5.625                      30                  46.875
   287   1                   5.625                  31.875                      45
   288   1                    3.75                      30                   48.75
   289   1                    3.75                  31.875      50.625000000000007
   290   1                   5.625                      30      50.625000000000007
   291   1                   5.625                  31.875                   48.75
   292   1                    3.75                      30                    52.5
   293   1                    3.75                  31.875                  54.375
   294   1                   5.625                      30                  54.375
   295   1                   5.625                  31.875                    52.5
   296   1                    3.75                      30      56.250000000000007
   297   1                    3.75                  31.875                  58.125
   298   1                   5.625                      30                  58.125
   299   1                   5.625                  31.875      56.250000000000007
   300   1                    3.75                      30                      60
   301   1                   5.625                      30      61.875000000000007
   302   1                   5.625                  31.875                      60
   303   1                   5.625                      30                  65.625
   304   1                   5.625                  31.875                   63.75
   305   1                   5.625                  31.875                    67.5
   306   1                   5.625                   33.75                  16.875
   307   1                   5.625                  35.625                      15
   308   1                   5.625                   33.75                  20.625
   309   1                   5.625                  35.625                   18.75
   310   1                    3.75                   33.75                    22.5
   311   1                    3.75                  35.625                  24.375
   312   1                   5.625                   33.75                  24.375
   313   1                   5.625                  35.625                    22.5
   314   1                    3.75                   33.75                   26.25
   315   1                    3.75                  35.625      28.125000000000004
   316   1                   5.625                   33.75      28.125000000000004
   317   1                   5.625                  35.625                   26.25
   318   1                    3.75                   33.75                      30
   319   1                    3.75                  35.625                  31.875
   320   1                   5.625                   33.75                  31.875
   321   1                   5.625                  35.625                      30
   322   1                    3.75                   33.75                   33.75
   323   1                    3.75                  35.625                  35.625
   324   1                   5.625                   33.75                  35.625
   325   1                   5.625                  35.625                   33.75
   326   1                    3.75                   33.75                    37.5
   327   1                    3.75                  35.625                  39.375
   328   1                   5.625                   33.75                  39.375
   329   1                   5.625                  35.625                    37.5
   330   1                    3.75                   33.75                   41.25
   331   1                    3.75                  35.625                  43.125
   332   1                   5.625                   33.75                  43.125
   333   1                   5.625                  35.625                   41.25
   334   1                    3.75                   33.75                      45
   335   1                    3.75                  35.625                  46.875
   336   1                   5.625                   33.75                  46.875
   337   1                   5.625                  35.625                      45
   338   1                    3.75                   33.75                   48.75
   339   1                    3.75                  35.625      50.625000000000007
   340   1                   5.625                   33.75      50.625000000000007
   341   1                   5.625                  35.625                   48.75
   342   1                    3.75                   33.75                    52.5
   343   1                    3.75                  35.625                  54.375
   344   1                   5.625                   33.75                  54.375
   345   1                   5.625                  35.625                    52.5
   346   1                    3.75                   33.75      56.250000000000007
   347   1                    3.75                  35.625                  58.125
   348   1                   5.625                   33.75                  58.125
   349   1                   5.625                  35.625      56.250000000000007
   350   1                    3.75                   33.75                      60
   351   1                   5.625                   33.75      61.875000000000007
   352   1                   5.625                  35.625                      60
   353   1                   5.625                   33.75                  65.625
   354   1                   5.625                  35.625                   63.75
   355   1                   5.625                  35.625                    67.5
   356   1                   5.625                    37.5                  16.875
   357   1                   5.625                  39.375                      15
   358   1                   5.625                    37.5                  20.625