model_files/Pt/Pt_30000/Pt_332/data.Pt_332_fcc_30163 (written by ASE) 

30163 	 atoms 
1  atom types
0.0                     135  xlo xhi
0.0                     135  ylo yhi
0.0                     135  zlo zhi


Atoms 

     1   1      1.9599999999999798      64.679999999999978      66.639999999999986
     2   1      1.9599999999999798      66.639999999999986      64.679999999999978
     3   1      134.99999999999997      66.639999999999986      66.639999999999986
     4   1      1.9599999999999798      66.639999999999986       68.59999999999998
     5   1      1.9599999999999798       68.59999999999998      66.639999999999986
     6   1      5.8799999999999812      60.759999999999977      66.639999999999986
     7   1      3.9199999999999875      64.679999999999978      64.679999999999978
     8   1      5.8799999999999812      62.719999999999985      64.679999999999978
     9   1      5.8799999999999812      64.679999999999978      62.719999999999985
    10   1      3.9199999999999875      62.719999999999985      66.639999999999986
    11   1      3.9199999999999875      64.679999999999978       68.59999999999998
    12   1      5.8799999999999812      62.719999999999985       68.59999999999998
    13   1      5.8799999999999812      64.679999999999978      66.639999999999986
    14   1      5.8799999999999812      64.679999999999978      70.559999999999988
    15   1      5.8799999999999812      66.639999999999986      60.759999999999977
    16   1      3.9199999999999875      66.639999999999986      62.719999999999985
    17   1      3.9199999999999875       68.59999999999998      64.679999999999978
    18   1      5.8799999999999812      66.639999999999986      64.679999999999978
    19   1      5.8799999999999812       68.59999999999998      62.719999999999985
    20   1      3.9199999999999875      66.639999999999986      66.639999999999986
    21   1      3.9199999999999875       68.59999999999998       68.59999999999998
    22   1      5.8799999999999812      66.639999999999986       68.59999999999998
    23   1      5.8799999999999812       68.59999999999998      66.639999999999986
    24   1      3.9199999999999875      66.639999999999986      70.559999999999988
    25   1      5.8799999999999812      66.639999999999986      72.519999999999982
    26   1      5.8799999999999812       68.59999999999998      70.559999999999988
    27   1      5.8799999999999812      70.559999999999988      64.679999999999978
    28   1      3.9199999999999875      70.559999999999988      66.639999999999986
    29   1      5.8799999999999812      70.559999999999988       68.59999999999998
    30   1      5.8799999999999812      72.519999999999982      66.639999999999986
    31   1      9.7999999999999829      56.839999999999989      66.639999999999986
    32   1      7.8399999999999821      60.759999999999977      64.679999999999978
    33   1      9.7999999999999829      58.799999999999983      64.679999999999978
    34   1      9.7999999999999829      60.759999999999977      62.719999999999985
    35   1      7.8399999999999821      58.799999999999983      66.639999999999986
    36   1      7.8399999999999821      60.759999999999977       68.59999999999998
    37   1      9.7999999999999829      58.799999999999983       68.59999999999998
    38   1      9.7999999999999829      60.759999999999977      66.639999999999986
    39   1      9.7999999999999829      60.759999999999977      70.559999999999988
    40   1      7.8399999999999821      64.679999999999978      60.759999999999977
    41   1      9.7999999999999829      62.719999999999985      60.759999999999977
    42   1      9.7999999999999829      64.679999999999978      58.799999999999983
    43   1      7.8399999999999821      62.719999999999985      62.719999999999985
    44   1      7.8399999999999821      64.679999999999978      64.679999999999978
    45   1      9.7999999999999829      62.719999999999985      64.679999999999978
    46   1      9.7999999999999829      64.679999999999978      62.719999999999985
    47   1      7.8399999999999821      62.719999999999985      66.639999999999986
    48   1      7.8399999999999821      64.679999999999978       68.59999999999998
    49   1      9.7999999999999829      62.719999999999985       68.59999999999998
    50   1      9.7999999999999829      64.679999999999978      66.639999999999986
    51   1      7.8399999999999821      62.719999999999985      70.559999999999988
    52   1      7.8399999999999821      64.679999999999978      72.519999999999982
    53   1      9.7999999999999829      62.719999999999985      72.519999999999982
    54   1      9.7999999999999829      64.679999999999978      70.559999999999988
    55   1      9.7999999999999829      64.679999999999978      74.480000000000004
    56   1      9.7999999999999829      66.639999999999986      56.839999999999989
    57   1      7.8399999999999821      66.639999999999986      58.799999999999983
    58   1      7.8399999999999821       68.59999999999998      60.759999999999977
    59   1      9.7999999999999829      66.639999999999986      60.759999999999977
    60   1      9.7999999999999829       68.59999999999998      58.799999999999983
    61   1      7.8399999999999821      66.639999999999986      62.719999999999985
    62   1      7.8399999999999821       68.59999999999998      64.679999999999978
    63   1      9.7999999999999829      66.639999999999986      64.679999999999978
    64   1      9.7999999999999829       68.59999999999998      62.719999999999985
    65   1      7.8399999999999821      66.639999999999986      66.639999999999986
    66   1      7.8399999999999821       68.59999999999998       68.59999999999998
    67   1      9.7999999999999829      66.639999999999986       68.59999999999998
    68   1      9.7999999999999829       68.59999999999998      66.639999999999986
    69   1      7.8399999999999821      66.639999999999986      70.559999999999988
    70   1      7.8399999999999821       68.59999999999998      72.519999999999982
    71   1      9.7999999999999829      66.639999999999986      72.519999999999982
    72   1      9.7999999999999829       68.59999999999998      70.559999999999988
    73   1      7.8399999999999821      66.639999999999986      74.480000000000004
    74   1      9.7999999999999829      66.639999999999986      76.439999999999984
    75   1      9.7999999999999829       68.59999999999998      74.480000000000004
    76   1      9.7999999999999829      70.559999999999988      60.759999999999977
    77   1      7.8399999999999821      70.559999999999988      62.719999999999985
    78   1      7.8399999999999821      72.519999999999982      64.679999999999978
    79   1      9.7999999999999829      70.559999999999988      64.679999999999978
    80   1      9.7999999999999829      72.519999999999982      62.719999999999985
    81   1      7.8399999999999821      70.559999999999988      66.639999999999986
    82   1      7.8399999999999821      72.519999999999982       68.59999999999998
    83   1      9.7999999999999829      70.559999999999988       68.59999999999998
    84   1      9.7999999999999829      72.519999999999982      66.639999999999986
    85   1      7.8399999999999821      70.559999999999988      70.559999999999988
    86   1      9.7999999999999829      70.559999999999988      72.519999999999982
    87   1      9.7999999999999829      72.519999999999982      70.559999999999988
    88   1      9.7999999999999829      74.480000000000004      64.679999999999978
    89   1      7.8399999999999821      74.480000000000004      66.639999999999986
    90   1      9.7999999999999829      74.480000000000004       68.59999999999998
    91   1      9.7999999999999829      76.439999999999984      66.639999999999986
    92   1      13.719999999999985       52.91999999999998      66.639999999999986
    93   1      11.759999999999986      56.839999999999989      64.679999999999978
    94   1      13.719999999999985      54.879999999999981      64.679999999999978
    95   1      13.719999999999985      56.839999999999989      62.719999999999985
    96   1      11.759999999999986      54.879999999999981      66.639999999999986
    97   1      11.759999999999986      56.839999999999989       68.59999999999998
    98   1      13.719999999999985      54.879999999999981       68.59999999999998
    99   1      13.719999999999985      56.839999999999989      66.639999999999986
   100   1      13.719999999999985      56.839999999999989      70.559999999999988
   101   1      11.759999999999986      60.759999999999977      60.759999999999977
   102   1      13.719999999999985      58.799999999999983      60.759999999999977
   103   1      13.719999999999985      60.759999999999977      58.799999999999983
   104   1      11.759999999999986      58.799999999999983      62.719999999999985
   105   1      11.759999999999986      60.759999999999977      64.679999999999978
   106   1      13.719999999999985      58.799999999999983      64.679999999999978
   107   1      13.719999999999985      60.759999999999977      62.719999999999985
   108   1      11.759999999999986      58.799999999999983      66.639999999999986
   109   1      11.759999999999986      60.759999999999977       68.59999999999998
   110   1      13.719999999999985      58.799999999999983       68.59999999999998
   111   1      13.719999999999985      60.759999999999977      66.639999999999986
   112   1      11.759999999999986      58.799999999999983      70.559999999999988
   113   1      11.759999999999986      60.759999999999977      72.519999999999982
   114   1      13.719999999999985      58.799999999999983      72.519999999999982
   115   1      13.719999999999985      60.759999999999977      70.559999999999988
   116   1      13.719999999999985      60.759999999999977      74.480000000000004
   117   1      11.759999999999986      64.679999999999978      56.839999999999989
   118   1      13.719999999999985      62.719999999999985      56.839999999999989
   119   1      13.719999999999985      64.679999999999978      54.879999999999981
   120   1      11.759999999999986      62.719999999999985      58.799999999999983
   121   1      11.759999999999986      64.679999999999978      60.759999999999977
   122   1      13.719999999999985      62.719999999999985      60.759999999999977
   123   1      13.719999999999985      64.679999999999978      58.799999999999983
   124   1      11.759999999999986      62.719999999999985      62.719999999999985
   125   1      11.759999999999986      64.679999999999978      64.679999999999978
   126   1      13.719999999999985      62.719999999999985      64.679999999999978
   127   1      13.719999999999985      64.679999999999978      62.719999999999985
   128   1      11.759999999999986      62.719999999999985      66.639999999999986
   129   1      11.759999999999986      64.679999999999978       68.59999999999998
   130   1      13.719999999999985      62.719999999999985       68.59999999999998
   131   1      13.719999999999985      64.679999999999978      66.639999999999986
   132   1      11.759999999999986      62.719999999999985      70.559999999999988
   133   1      11.759999999999986      64.679999999999978      72.519999999999982
   134   1      13.719999999999985      62.719999999999985      72.519999999999982
   135   1      13.719999999999985      64.679999999999978      70.559999999999988
   136   1      11.759999999999986      62.719999999999985      74.480000000000004
   137   1      11.759999999999986      64.679999999999978      76.439999999999984
   138   1      13.719999999999985      62.719999999999985      76.439999999999984
   139   1      13.719999999999985      64.679999999999978      74.480000000000004
   140   1      13.719999999999985      64.679999999999978      78.399999999999977
   141   1      13.719999999999985      66.639999999999986       52.91999999999998
   142   1      11.759999999999986      66.639999999999986      54.879999999999981
   143   1      11.759999999999986       68.59999999999998      56.839999999999989
   144   1      13.719999999999985      66.639999999999986      56.839999999999989
   145   1      13.719999999999985       68.59999999999998      54.879999999999981
   146   1      11.759999999999986      66.639999999999986      58.799999999999983
   147   1      11.759999999999986       68.59999999999998      60.759999999999977
   148   1      13.719999999999985      66.639999999999986      60.759999999999977
   149   1      13.719999999999985       68.59999999999998      58.799999999999983
   150   1      11.759999999999986      66.639999999999986      62.719999999999985
   151   1      11.759999999999986       68.59999999999998      64.679999999999978
   152   1      13.719999999999985      66.639999999999986      64.679999999999978
   153   1      13.719999999999985       68.59999999999998      62.719999999999985
   154   1      11.759999999999986      66.639999999999986      66.639999999999986
   155   1      11.759999999999986       68.59999999999998       68.59999999999998
   156   1      13.719999999999985      66.639999999999986       68.59999999999998
   157   1      13.719999999999985       68.59999999999998      66.639999999999986
   158   1      11.759999999999986      66.639999999999986      70.559999999999988
   159   1      11.759999999999986       68.59999999999998      72.519999999999982
   160   1      13.719999999999985      66.639999999999986      72.519999999999982
   161   1      13.719999999999985       68.59999999999998      70.559999999999988
   162   1      11.759999999999986      66.639999999999986      74.480000000000004
   163   1      11.759999999999986       68.59999999999998      76.439999999999984
   164   1      13.719999999999985      66.639999999999986      76.439999999999984
   165   1      13.719999999999985       68.59999999999998      74.480000000000004
   166   1      11.759999999999986      66.639999999999986      78.399999999999977
   167   1      13.719999999999985      66.639999999999986      80.359999999999971
   168   1      13.719999999999985       68.59999999999998      78.399999999999977
   169   1      13.719999999999985      70.559999999999988      56.839999999999989
   170   1      11.759999999999986      70.559999999999988      58.799999999999983
   171   1      11.759999999999986      72.519999999999982      60.759999999999977
   172   1      13.719999999999985      70.559999999999988      60.759999999999977
   173   1      13.719999999999985      72.519999999999982      58.799999999999983
   174   1      11.759999999999986      70.559999999999988      62.719999999999985
   175   1      11.759999999999986      72.519999999999982      64.679999999999978
   176   1      13.719999999999985      70.559999999999988      64.679999999999978
   177   1      13.719999999999985      72.519999999999982      62.719999999999985
   178   1      11.759999999999986      70.559999999999988      66.639999999999986
   179   1      11.759999999999986      72.519999999999982       68.59999999999998
   180   1      13.719999999999985      70.559999999999988       68.59999999999998
   181   1      13.719999999999985      72.519999999999982      66.639999999999986
   182   1      11.759999999999986      70.559999999999988      70.559999999999988
   183   1      11.759999999999986      72.519999999999982      72.519999999999982
   184   1      13.719999999999985      70.559999999999988      72.519999999999982
   185   1      13.719999999999985      72.519999999999982      70.559999999999988
   186   1      11.759999999999986      70.559999999999988      74.480000000000004
   187   1      13.719999999999985      70.559999999999988      76.439999999999984
   188   1      13.719999999999985      72.519999999999982      74.480000000000004
   189   1      13.719999999999985      74.480000000000004      60.759999999999977
   190   1      11.759999999999986      74.480000000000004      62.719999999999985
   191   1      11.759999999999986      76.439999999999984      64.679999999999978
   192   1      13.719999999999985      74.480000000000004      64.679999999999978
   193   1      13.719999999999985      76.439999999999984      62.719999999999985
   194   1      11.759999999999986      74.480000000000004      66.639999999999986
   195   1      11.759999999999986      76.439999999999984       68.59999999999998
   196   1      13.719999999999985      74.480000000000004       68.59999999999998
   197   1      13.719999999999985      76.439999999999984      66.639999999999986
   198   1      11.759999999999986      74.480000000000004      70.559999999999988
   199   1      13.719999999999985      74.480000000000004      72.519999999999982
   200   1      13.719999999999985      76.439999999999984      70.559999999999988
   201   1      13.719999999999985      78.399999999999977      64.679999999999978
   202   1      11.759999999999986      78.399999999999977      66.639999999999986
   203   1      13.719999999999985      78.399999999999977       68.59999999999998
   204   1      13.719999999999985      80.359999999999971      66.639999999999986
   205   1      17.639999999999986      48.999999999999986      66.639999999999986
   206   1      15.679999999999986       52.91999999999998      64.679999999999978
   207   1      17.639999999999986      50.959999999999987      64.679999999999978
   208   1      17.639999999999986       52.91999999999998      62.719999999999985
   209   1      15.679999999999986      50.959999999999987      66.639999999999986
   210   1      15.679999999999986       52.91999999999998       68.59999999999998
   211   1      17.639999999999986      50.959999999999987       68.59999999999998
   212   1      17.639999999999986       52.91999999999998      66.639999999999986
   213   1      17.639999999999986       52.91999999999998      70.559999999999988
   214   1      15.679999999999986      56.839999999999989      60.759999999999977
   215   1      17.639999999999986      54.879999999999981      60.759999999999977
   216   1      17.639999999999986      56.839999999999989      58.799999999999983
   217   1      15.679999999999986      54.879999999999981      62.719999999999985
   218   1      15.679999999999986      56.839999999999989      64.679999999999978
   219   1      17.639999999999986      54.879999999999981      64.679999999999978
   220   1      17.639999999999986      56.839999999999989      62.719999999999985
   221   1      15.679999999999986      54.879999999999981      66.639999999999986
   222   1      15.679999999999986      56.839999999999989       68.59999999999998
   223   1      17.639999999999986      54.879999999999981       68.59999999999998
   224   1      17.639999999999986      56.839999999999989      66.639999999999986
   225   1      15.679999999999986      54.879999999999981      70.559999999999988
   226   1      15.679999999999986      56.839999999999989      72.519999999999982
   227   1      17.639999999999986      54.879999999999981      72.519999999999982
   228   1      17.639999999999986      56.839999999999989      70.559999999999988
   229   1      17.639999999999986      56.839999999999989      74.480000000000004
   230   1      15.679999999999986      60.759999999999977      56.839999999999989
   231   1      17.639999999999986      58.799999999999983      56.839999999999989
   232   1      17.639999999999986      60.759999999999977      54.879999999999981
   233   1      15.679999999999986      58.799999999999983      58.799999999999983
   234   1      15.679999999999986      60.759999999999977      60.759999999999977
   235   1      17.639999999999986      58.799999999999983      60.759999999999977
   236   1      17.639999999999986      60.759999999999977      58.799999999999983
   237   1      15.679999999999986      58.799999999999983      62.719999999999985
   238   1      15.679999999999986      60.759999999999977      64.679999999999978
   239   1      17.639999999999986      58.799999999999983      64.679999999999978
   240   1      17.639999999999986      60.759999999999977      62.719999999999985
   241   1      15.679999999999986      58.799999999999983      66.639999999999986
   242   1      15.679999999999986      60.759999999999977       68.59999999999998
   243   1      17.639999999999986      58.799999999999983       68.59999999999998
   244   1      17.639999999999986      60.759999999999977      66.639999999999986
   245   1      15.679999999999986      58.799999999999983      70.559999999999988
   246   1      15.679999999999986      60.759999999999977      72.519999999999982
   247   1      17.639999999999986      58.799999999999983      72.519999999999982
   248   1      17.639999999999986      60.759999999999977      70.559999999999988
   249   1      15.679999999999986      58.799999999999983      74.480000000000004
   250   1      15.679999999999986      60.759999999999977      76.439999999999984
   251   1      17.639999999999986      58.799999999999983      76.439999999999984
   252   1      17.639999999999986      60.759999999999977      74.480000000000004
   253   1      17.639999999999986      60.759999999999977      78.399999999999977
   254   1      15.679999999999986      64.679999999999978       52.91999999999998
   255   1      17.639999999999986      62.719999999999985       52.91999999999998
   256   1      17.639999999999986      64.679999999999978      50.959999999999987
   257   1      15.679999999999986      62.719999999999985      54.879999999999981
   258   1      15.679999999999986      64.679999999999978      56.839999999999989
   259   1      17.639999999999986      62.719999999999985      56.839999999999989
   260   1      17.639999999999986      64.679999999999978      54.879999999999981
   261   1      15.679999999999986      62.719999999999985      58.799999999999983
   262   1      15.679999999999986      64.679999999999978      60.759999999999977
   263   1      17.639999999999986      62.719999999999985      60.759999999999977
   264   1      17.639999999999986      64.679999999999978      58.799999999999983
   265   1      15.679999999999986      62.719999999999985      62.719999999999985
   266   1      15.679999999999986      64.679999999999978      64.679999999999978
   267   1      17.639999999999986      62.719999999999985      64.679999999999978
   268   1      17.639999999999986      64.679999999999978      62.719999999999985
   269   1      15.679999999999986      62.719999999999985      66.639999999999986
   270   1      15.679999999999986      64.679999999999978       68.59999999999998
   271   1      17.639999999999986      62.719999999999985       68.59999999999998
   272   1      17.639999999999986      64.679999999999978      66.639999999999986
   273   1      15.679999999999986      62.719999999999985      70.559999999999988
   274   1      15.679999999999986      64.679999999999978      72.519999999999982
   275   1      17.639999999999986      62.719999999999985      72.519999999999982
   276   1      17.639999999999986      64.679999999999978      70.559999999999988
   277   1      15.679999999999986      62.719999999999985      74.480000000000004
   278   1      15.679999999999986      64.679999999999978      76.439999999999984
   279   1      17.639999999999986      62.719999999999985      76.439999999999984
   280   1      17.639999999999986      64.679999999999978      74.480000000000004
   281   1      15.679999999999986      62.719999999999985      78.399999999999977
   282   1      15.679999999999986      64.679999999999978      80.359999999999971
   283   1      17.639999999999986      62.719999999999985      80.359999999999971
   284   1      17.639999999999986      64.679999999999978      78.399999999999977
   285   1      17.639999999999986      64.679999999999978      82.319999999999979
   286   1      17.639999999999986      66.639999999999986      48.999999999999986
   287   1      15.679999999999986      66.639999999999986      50.959999999999987
   288   1      15.679999999999986       68.59999999999998       52.91999999999998
   289   1      17.639999999999986      66.639999999999986       52.91999999999998
   290   1      17.639999999999986       68.59999999999998      50.959999999999987
   291   1      15.679999999999986      66.639999999999986      54.879999999999981
   292   1      15.679999999999986       68.59999999999998      56.839999999999989
   293   1      17.639999999999986      66.639999999999986      56.839999999999989
   294   1      17.639999999999986       68.59999999999998      54.879999999999981
   295   1      15.679999999999986      66.639999999999986      58.799999999999983
   296   1      15.679999999999986       68.59999999999998      60.759999999999977
   297   1      17.639999999999986      66.639999999999986      60.759999999999977
   298   1      17.639999999999986       68.59999999999998      58.799999999999983
   299   1      15.679999999999986      66.639999999999986      62.719999999999985
   300   1      15.679999999999986       68.59999999999998      64.679999999999978
   301   1      17.639999999999986      66.639999999999986      64.679999999999978
   302   1      17.639999999999986       68.59999999999998      62.719999999999985
   303   1      15.679999999999986      66.639999999999986      66.639999999999986
   304   1      15.679999999999986       68.59999999999998       68.59999999999998
   305   1      17.639999999999986      66.639999999999986       68.59999999999998
   306   1      17.639999999999986       68.59999999999998      66.639999999999986
   307   1      15.679999999999986      66.639999999999986      70.559999999999988
   308   1      15.679999999999986       68.59999999999998      72.519999999999982
   309   1      17.639999999999986      66.639999999999986      72.519999999999982
   310   1      17.639999999999986       68.59999999999998      70.559999999999988
   311   1      15.679999999999986      66.639999999999986      74.480000000000004
   312   1      15.679999999999986       68.59999999999998      76.439999999999984
   313   1      17.639999999999986      66.639999999999986      76.439999999999984
   314   1      17.639999999999986       68.59999999999998      74.480000000000004
   315   1      15.679999999999986      66.639999999999986      78.399999999999977
   316   1      15.679999999999986       68.59999999999998      80.359999999999971
   317   1      17.639999999999986      66.639999999999986      80.359999999999971
   318   1      17.639999999999986       68.59999999999998      78.399999999999977
   319   1      15.679999999999986      66.639999999999986      82.319999999999979
   320   1      17.639999999999986      66.639999999999986      84.279999999999973
   321   1      17.639999999999986       68.59999999999998      82.319999999999979
   322   1      17.639999999999986      70.559999999999988       52.91999999999998
   323   1      15.679999999999986      70.559999999999988      54.879999999999981
   324   1      15.679999999999986      72.519999999999982      56.839999999999989
   325   1      17.639999999999986      70.559999999999988      56.839999999999989
   326   1      17.639999999999986      72.519999999999982      54.879999999999981
   327   1      15.679999999999986      70.559999999999988      58.799999999999983
   328   1      15.679999999999986      72.519999999999982      60.759999999999977
   329   1      17.639999999999986      70.559999999999988      60.759999999999977
   330   1      17.639999999999986      72.519999999999982      58.799999999999983
   331   1      15.679999999999986      70.559999999999988      62.719999999999985
   332   1      15.679999999999986      72.519999999999982      64.679999999999978
   333   1      17.639999999999986      70.559999999999988      64.679999999999978
   334   1      17.639999999999986      72.519999999999982      62.719999999999985
   335   1      15.679999999999986      70.559999999999988      66.639999999999986
   336   1      15.679999999999986      72.519999999999982       68.59999999999998
   337   1      17.639999999999986      70.559999999999988       68.59999999999998
   338   1      17.639999999999986      72.519999999999982      66.639999999999986
   339   1      15.679999999999986      70.559999999999988      70.559999999999988
   340   1      15.679999999999986      72.519999999999982      72.519999999999982
   341   1      17.639999999999986      70.559999999999988      72.519999999999982
   342   1      17.639999999999986      72.519999999999982      70.559999999999988
   343   1      15.679999999999986      70.559999999999988      74.480000000000004
   344   1      15.679999999999986      72.519999999999982      76.439999999999984
   345   1      17.639999999999986      70.559999999999988      76.439999999999984
   346   1      17.639999999999986      72.519999999999982      74.480000000000004
   347   1      15.679999999999986      70.559999999999988      78.399999999999977
   348   1      17.639999999999986      70.559999999999988      80.359999999999971
   349   1      17.639999999999986      72.519999999999982      78.399999999999977
   350   1      17.639999999999986      74.480000000000004      56.839999999999989
   351   1      15.679999999999986      74.480000000000004      58.799999999999983
   352   1      15.679999999999986      76.439999999999984      60.759999999999977
   353   1      17.639999999999986      74.480000000000004      60.759999999999977
   354   1      17.639999999999986      76.439999999999984      58.799999999999983
   355   1      15.679999999999986      74.480000000000004      62.719999999999985
   356   1      15.679999999999986      76.439999999999984      64.679999999999978
   357   1      17.639999999999986      74.480000000000004      64.679999999999978
   358   1      17.639999999999986      76.439999999999984      62.719999999999985