model_files/Co/Co_30000/Co_533/data.Co_533_hcp_30085 (written by ASE) 

30085 	 atoms 
1  atom types
0.0                      72  xlo xhi
0.0                      72  ylo yhi
0.0                      72  zlo zhi


Atoms 

     1   1      71.999999999999986      35.139999999999993      36.394999999999989
     2   1      71.999999999999986      36.394999999999989      35.139999999999993
     3   1      71.999999999999986      36.394999999999989      37.649999999999984
     4   1      71.999999999999986      37.649999999999984      36.394999999999989
     5   1      2.5099999999999909      32.629999999999981      36.394999999999989
     6   1      1.2549999999999883      35.139999999999993      35.139999999999993
     7   1      2.5099999999999909      33.884999999999991      35.139999999999993
     8   1      2.5099999999999909      35.139999999999993      33.884999999999991
     9   1      1.2549999999999883      33.884999999999991      36.394999999999989
    10   1      1.2549999999999883      35.139999999999993      37.649999999999984
    11   1      2.5099999999999909      33.884999999999991      37.649999999999984
    12   1      2.5099999999999909      35.139999999999993      36.394999999999989
    13   1      2.5099999999999909      35.139999999999993       38.90499999999998
    14   1      2.5099999999999909      36.394999999999989      32.629999999999981
    15   1      1.2549999999999883      36.394999999999989      33.884999999999991
    16   1      1.2549999999999883      37.649999999999984      35.139999999999993
    17   1      2.5099999999999909      36.394999999999989      35.139999999999993
    18   1      2.5099999999999909      37.649999999999984      33.884999999999991
    19   1      1.2549999999999883      36.394999999999989      36.394999999999989
    20   1      1.2549999999999883      37.649999999999984      37.649999999999984
    21   1      2.5099999999999909      36.394999999999989      37.649999999999984
    22   1      2.5099999999999909      37.649999999999984      36.394999999999989
    23   1      1.2549999999999883      36.394999999999989       38.90499999999998
    24   1      2.5099999999999909      36.394999999999989      40.159999999999989
    25   1      2.5099999999999909      37.649999999999984       38.90499999999998
    26   1      2.5099999999999909       38.90499999999998      35.139999999999993
    27   1      1.2549999999999883       38.90499999999998      36.394999999999989
    28   1      2.5099999999999909       38.90499999999998      37.649999999999984
    29   1      2.5099999999999909      40.159999999999989      36.394999999999989
    30   1       5.019999999999988      27.609999999999989      36.394999999999989
    31   1       3.764999999999993      30.119999999999983      35.139999999999993
    32   1       5.019999999999988      28.864999999999988      35.139999999999993
    33   1       5.019999999999988      30.119999999999983      33.884999999999991
    34   1       3.764999999999993      28.864999999999988      36.394999999999989
    35   1       3.764999999999993      30.119999999999983      37.649999999999984
    36   1       5.019999999999988      28.864999999999988      37.649999999999984
    37   1       5.019999999999988      30.119999999999983      36.394999999999989
    38   1       5.019999999999988      30.119999999999983       38.90499999999998
    39   1       3.764999999999993      32.629999999999981      32.629999999999981
    40   1       5.019999999999988      31.374999999999986      32.629999999999981
    41   1       5.019999999999988      32.629999999999981      31.374999999999986
    42   1       3.764999999999993      31.374999999999986      33.884999999999991
    43   1       3.764999999999993      32.629999999999981      35.139999999999993
    44   1       5.019999999999988      31.374999999999986      35.139999999999993
    45   1       5.019999999999988      32.629999999999981      33.884999999999991
    46   1       3.764999999999993      31.374999999999986      36.394999999999989
    47   1       3.764999999999993      32.629999999999981      37.649999999999984
    48   1       5.019999999999988      31.374999999999986      37.649999999999984
    49   1       5.019999999999988      32.629999999999981      36.394999999999989
    50   1       3.764999999999993      31.374999999999986       38.90499999999998
    51   1       3.764999999999993      32.629999999999981      40.159999999999989
    52   1       5.019999999999988      31.374999999999986      40.159999999999989
    53   1       5.019999999999988      32.629999999999981       38.90499999999998
    54   1       5.019999999999988      32.629999999999981      41.414999999999985
    55   1       3.764999999999993      35.139999999999993      30.119999999999983
    56   1       5.019999999999988      33.884999999999991      30.119999999999983
    57   1       5.019999999999988      35.139999999999993      28.864999999999988
    58   1       3.764999999999993      33.884999999999991      31.374999999999986
    59   1       3.764999999999993      35.139999999999993      32.629999999999981
    60   1       5.019999999999988      33.884999999999991      32.629999999999981
    61   1       5.019999999999988      35.139999999999993      31.374999999999986
    62   1       3.764999999999993      33.884999999999991      33.884999999999991
    63   1       3.764999999999993      35.139999999999993      35.139999999999993
    64   1       5.019999999999988      33.884999999999991      35.139999999999993
    65   1       5.019999999999988      35.139999999999993      33.884999999999991
    66   1       3.764999999999993      33.884999999999991      36.394999999999989
    67   1       3.764999999999993      35.139999999999993      37.649999999999984
    68   1       5.019999999999988      33.884999999999991      37.649999999999984
    69   1       5.019999999999988      35.139999999999993      36.394999999999989
    70   1       3.764999999999993      33.884999999999991       38.90499999999998
    71   1       3.764999999999993      35.139999999999993      40.159999999999989
    72   1       5.019999999999988      33.884999999999991      40.159999999999989
    73   1       5.019999999999988      35.139999999999993       38.90499999999998
    74   1       3.764999999999993      33.884999999999991      41.414999999999985
    75   1       3.764999999999993      35.139999999999993      42.669999999999987
    76   1       5.019999999999988      33.884999999999991      42.669999999999987
    77   1       5.019999999999988      35.139999999999993      41.414999999999985
    78   1       5.019999999999988      35.139999999999993      43.924999999999983
    79   1       5.019999999999988      36.394999999999989      27.609999999999989
    80   1       3.764999999999993      36.394999999999989      28.864999999999988
    81   1       3.764999999999993      37.649999999999984      30.119999999999983
    82   1       5.019999999999988      36.394999999999989      30.119999999999983
    83   1       5.019999999999988      37.649999999999984      28.864999999999988
    84   1       3.764999999999993      36.394999999999989      31.374999999999986
    85   1       3.764999999999993      37.649999999999984      32.629999999999981
    86   1       5.019999999999988      36.394999999999989      32.629999999999981
    87   1       5.019999999999988      37.649999999999984      31.374999999999986
    88   1       3.764999999999993      36.394999999999989      33.884999999999991
    89   1       3.764999999999993      37.649999999999984      35.139999999999993
    90   1       5.019999999999988      36.394999999999989      35.139999999999993
    91   1       5.019999999999988      37.649999999999984      33.884999999999991
    92   1       3.764999999999993      36.394999999999989      36.394999999999989
    93   1       3.764999999999993      37.649999999999984      37.649999999999984
    94   1       5.019999999999988      36.394999999999989      37.649999999999984
    95   1       5.019999999999988      37.649999999999984      36.394999999999989
    96   1       3.764999999999993      36.394999999999989       38.90499999999998
    97   1       3.764999999999993      37.649999999999984      40.159999999999989
    98   1       5.019999999999988      36.394999999999989      40.159999999999989
    99   1       5.019999999999988      37.649999999999984       38.90499999999998
   100   1       3.764999999999993      36.394999999999989      41.414999999999985
   101   1       3.764999999999993      37.649999999999984      42.669999999999987
   102   1       5.019999999999988      36.394999999999989      42.669999999999987
   103   1       5.019999999999988      37.649999999999984      41.414999999999985
   104   1       3.764999999999993      36.394999999999989      43.924999999999983
   105   1       5.019999999999988      36.394999999999989      45.179999999999978
   106   1       5.019999999999988      37.649999999999984      43.924999999999983
   107   1       5.019999999999988       38.90499999999998      30.119999999999983
   108   1       3.764999999999993       38.90499999999998      31.374999999999986
   109   1       3.764999999999993      40.159999999999989      32.629999999999981
   110   1       5.019999999999988       38.90499999999998      32.629999999999981
   111   1       5.019999999999988      40.159999999999989      31.374999999999986
   112   1       3.764999999999993       38.90499999999998      33.884999999999991
   113   1       3.764999999999993      40.159999999999989      35.139999999999993
   114   1       5.019999999999988       38.90499999999998      35.139999999999993
   115   1       5.019999999999988      40.159999999999989      33.884999999999991
   116   1       3.764999999999993       38.90499999999998      36.394999999999989
   117   1       3.764999999999993      40.159999999999989      37.649999999999984
   118   1       5.019999999999988       38.90499999999998      37.649999999999984
   119   1       5.019999999999988      40.159999999999989      36.394999999999989
   120   1       3.764999999999993       38.90499999999998       38.90499999999998
   121   1       3.764999999999993      40.159999999999989      40.159999999999989
   122   1       5.019999999999988       38.90499999999998      40.159999999999989
   123   1       5.019999999999988      40.159999999999989       38.90499999999998
   124   1       3.764999999999993       38.90499999999998      41.414999999999985
   125   1       5.019999999999988       38.90499999999998      42.669999999999987
   126   1       5.019999999999988      40.159999999999989      41.414999999999985
   127   1       5.019999999999988      41.414999999999985      32.629999999999981
   128   1       3.764999999999993      41.414999999999985      33.884999999999991
   129   1       3.764999999999993      42.669999999999987      35.139999999999993
   130   1       5.019999999999988      41.414999999999985      35.139999999999993
   131   1       5.019999999999988      42.669999999999987      33.884999999999991
   132   1       3.764999999999993      41.414999999999985      36.394999999999989
   133   1       3.764999999999993      42.669999999999987      37.649999999999984
   134   1       5.019999999999988      41.414999999999985      37.649999999999984
   135   1       5.019999999999988      42.669999999999987      36.394999999999989
   136   1       3.764999999999993      41.414999999999985       38.90499999999998
   137   1       5.019999999999988      41.414999999999985      40.159999999999989
   138   1       5.019999999999988      42.669999999999987       38.90499999999998
   139   1       5.019999999999988      43.924999999999983      35.139999999999993
   140   1       3.764999999999993      43.924999999999983      36.394999999999989
   141   1       5.019999999999988      43.924999999999983      37.649999999999984
   142   1       5.019999999999988      45.179999999999978      36.394999999999989
   143   1      7.5299999999999905      22.589999999999986      36.394999999999989
   144   1      7.5299999999999905      23.844999999999985      35.139999999999993
   145   1      7.5299999999999905      25.099999999999987      33.884999999999991
   146   1      7.5299999999999905      23.844999999999985      37.649999999999984
   147   1      7.5299999999999905      25.099999999999987      36.394999999999989
   148   1      7.5299999999999905      25.099999999999987       38.90499999999998
   149   1      7.5299999999999905      26.354999999999986      32.629999999999981
   150   1      7.5299999999999905      27.609999999999989      31.374999999999986
   151   1      6.2749999999999906      27.609999999999989      35.139999999999993
   152   1      7.5299999999999905      26.354999999999986      35.139999999999993
   153   1      7.5299999999999905      27.609999999999989      33.884999999999991
   154   1      6.2749999999999906      26.354999999999986      36.394999999999989
   155   1      6.2749999999999906      27.609999999999989      37.649999999999984
   156   1      7.5299999999999905      26.354999999999986      37.649999999999984
   157   1      7.5299999999999905      27.609999999999989      36.394999999999989
   158   1      7.5299999999999905      26.354999999999986      40.159999999999989
   159   1      7.5299999999999905      27.609999999999989       38.90499999999998
   160   1      7.5299999999999905      27.609999999999989      41.414999999999985
   161   1      7.5299999999999905      28.864999999999988      30.119999999999983
   162   1      7.5299999999999905      30.119999999999983      28.864999999999988
   163   1      6.2749999999999906      30.119999999999983      32.629999999999981
   164   1      7.5299999999999905      28.864999999999988      32.629999999999981
   165   1      7.5299999999999905      30.119999999999983      31.374999999999986
   166   1      6.2749999999999906      28.864999999999988      33.884999999999991
   167   1      6.2749999999999906      30.119999999999983      35.139999999999993
   168   1      7.5299999999999905      28.864999999999988      35.139999999999993
   169   1      7.5299999999999905      30.119999999999983      33.884999999999991
   170   1      6.2749999999999906      28.864999999999988      36.394999999999989
   171   1      6.2749999999999906      30.119999999999983      37.649999999999984
   172   1      7.5299999999999905      28.864999999999988      37.649999999999984
   173   1      7.5299999999999905      30.119999999999983      36.394999999999989
   174   1      6.2749999999999906      28.864999999999988       38.90499999999998
   175   1      6.2749999999999906      30.119999999999983      40.159999999999989
   176   1      7.5299999999999905      28.864999999999988      40.159999999999989
   177   1      7.5299999999999905      30.119999999999983       38.90499999999998
   178   1      7.5299999999999905      28.864999999999988      42.669999999999987
   179   1      7.5299999999999905      30.119999999999983      41.414999999999985
   180   1      7.5299999999999905      30.119999999999983      43.924999999999983
   181   1      7.5299999999999905      31.374999999999986      27.609999999999989
   182   1      7.5299999999999905      32.629999999999981      26.354999999999986
   183   1      6.2749999999999906      32.629999999999981      30.119999999999983
   184   1      7.5299999999999905      31.374999999999986      30.119999999999983
   185   1      7.5299999999999905      32.629999999999981      28.864999999999988
   186   1      6.2749999999999906      31.374999999999986      31.374999999999986
   187   1      6.2749999999999906      32.629999999999981      32.629999999999981
   188   1      7.5299999999999905      31.374999999999986      32.629999999999981
   189   1      7.5299999999999905      32.629999999999981      31.374999999999986
   190   1      6.2749999999999906      31.374999999999986      33.884999999999991
   191   1      6.2749999999999906      32.629999999999981      35.139999999999993
   192   1      7.5299999999999905      31.374999999999986      35.139999999999993
   193   1      7.5299999999999905      32.629999999999981      33.884999999999991
   194   1      6.2749999999999906      31.374999999999986      36.394999999999989
   195   1      6.2749999999999906      32.629999999999981      37.649999999999984
   196   1      7.5299999999999905      31.374999999999986      37.649999999999984
   197   1      7.5299999999999905      32.629999999999981      36.394999999999989
   198   1      6.2749999999999906      31.374999999999986       38.90499999999998
   199   1      6.2749999999999906      32.629999999999981      40.159999999999989
   200   1      7.5299999999999905      31.374999999999986      40.159999999999989
   201   1      7.5299999999999905      32.629999999999981       38.90499999999998
   202   1      6.2749999999999906      31.374999999999986      41.414999999999985
   203   1      6.2749999999999906      32.629999999999981      42.669999999999987
   204   1      7.5299999999999905      31.374999999999986      42.669999999999987
   205   1      7.5299999999999905      32.629999999999981      41.414999999999985
   206   1      7.5299999999999905      31.374999999999986      45.179999999999978
   207   1      7.5299999999999905      32.629999999999981      43.924999999999983
   208   1      7.5299999999999905      32.629999999999981      46.434999999999988
   209   1      7.5299999999999905      33.884999999999991      25.099999999999987
   210   1      7.5299999999999905      35.139999999999993      23.844999999999985
   211   1      6.2749999999999906      35.139999999999993      27.609999999999989
   212   1      7.5299999999999905      33.884999999999991      27.609999999999989
   213   1      7.5299999999999905      35.139999999999993      26.354999999999986
   214   1      6.2749999999999906      33.884999999999991      28.864999999999988
   215   1      6.2749999999999906      35.139999999999993      30.119999999999983
   216   1      7.5299999999999905      33.884999999999991      30.119999999999983
   217   1      7.5299999999999905      35.139999999999993      28.864999999999988
   218   1      6.2749999999999906      33.884999999999991      31.374999999999986
   219   1      6.2749999999999906      35.139999999999993      32.629999999999981
   220   1      7.5299999999999905      33.884999999999991      32.629999999999981
   221   1      7.5299999999999905      35.139999999999993      31.374999999999986
   222   1      6.2749999999999906      33.884999999999991      33.884999999999991
   223   1      6.2749999999999906      35.139999999999993      35.139999999999993
   224   1      7.5299999999999905      33.884999999999991      35.139999999999993
   225   1      7.5299999999999905      35.139999999999993      33.884999999999991
   226   1      6.2749999999999906      33.884999999999991      36.394999999999989
   227   1      6.2749999999999906      35.139999999999993      37.649999999999984
   228   1      7.5299999999999905      33.884999999999991      37.649999999999984
   229   1      7.5299999999999905      35.139999999999993      36.394999999999989
   230   1      6.2749999999999906      33.884999999999991       38.90499999999998
   231   1      6.2749999999999906      35.139999999999993      40.159999999999989
   232   1      7.5299999999999905      33.884999999999991      40.159999999999989
   233   1      7.5299999999999905      35.139999999999993       38.90499999999998
   234   1      6.2749999999999906      33.884999999999991      41.414999999999985
   235   1      6.2749999999999906      35.139999999999993      42.669999999999987
   236   1      7.5299999999999905      33.884999999999991      42.669999999999987
   237   1      7.5299999999999905      35.139999999999993      41.414999999999985
   238   1      6.2749999999999906      33.884999999999991      43.924999999999983
   239   1      6.2749999999999906      35.139999999999993      45.179999999999978
   240   1      7.5299999999999905      33.884999999999991      45.179999999999978
   241   1      7.5299999999999905      35.139999999999993      43.924999999999983
   242   1      7.5299999999999905      33.884999999999991      47.689999999999991
   243   1      7.5299999999999905      35.139999999999993      46.434999999999988
   244   1      7.5299999999999905      35.139999999999993      48.944999999999986
   245   1      7.5299999999999905      36.394999999999989      22.589999999999986
   246   1      7.5299999999999905      36.394999999999989      25.099999999999987
   247   1      7.5299999999999905      37.649999999999984      23.844999999999985
   248   1      6.2749999999999906      36.394999999999989      26.354999999999986
   249   1      6.2749999999999906      37.649999999999984      27.609999999999989
   250   1      7.5299999999999905      36.394999999999989      27.609999999999989
   251   1      7.5299999999999905      37.649999999999984      26.354999999999986
   252   1      6.2749999999999906      36.394999999999989      28.864999999999988
   253   1      6.2749999999999906      37.649999999999984      30.119999999999983
   254   1      7.5299999999999905      36.394999999999989      30.119999999999983
   255   1      7.5299999999999905      37.649999999999984      28.864999999999988
   256   1      6.2749999999999906      36.394999999999989      31.374999999999986
   257   1      6.2749999999999906      37.649999999999984      32.629999999999981
   258   1      7.5299999999999905      36.394999999999989      32.629999999999981
   259   1      7.5299999999999905      37.649999999999984      31.374999999999986
   260   1      6.2749999999999906      36.394999999999989      33.884999999999991
   261   1      6.2749999999999906      37.649999999999984      35.139999999999993
   262   1      7.5299999999999905      36.394999999999989      35.139999999999993
   263   1      7.5299999999999905      37.649999999999984      33.884999999999991
   264   1      6.2749999999999906      36.394999999999989      36.394999999999989
   265   1      6.2749999999999906      37.649999999999984      37.649999999999984
   266   1      7.5299999999999905      36.394999999999989      37.649999999999984
   267   1      7.5299999999999905      37.649999999999984      36.394999999999989
   268   1      6.2749999999999906      36.394999999999989       38.90499999999998
   269   1      6.2749999999999906      37.649999999999984      40.159999999999989
   270   1      7.5299999999999905      36.394999999999989      40.159999999999989
   271   1      7.5299999999999905      37.649999999999984       38.90499999999998
   272   1      6.2749999999999906      36.394999999999989      41.414999999999985
   273   1      6.2749999999999906      37.649999999999984      42.669999999999987
   274   1      7.5299999999999905      36.394999999999989      42.669999999999987
   275   1      7.5299999999999905      37.649999999999984      41.414999999999985
   276   1      6.2749999999999906      36.394999999999989      43.924999999999983
   277   1      6.2749999999999906      37.649999999999984      45.179999999999978
   278   1      7.5299999999999905      36.394999999999989      45.179999999999978
   279   1      7.5299999999999905      37.649999999999984      43.924999999999983
   280   1      6.2749999999999906      36.394999999999989      46.434999999999988
   281   1      7.5299999999999905      36.394999999999989      47.689999999999991
   282   1      7.5299999999999905      37.649999999999984      46.434999999999988
   283   1      7.5299999999999905      36.394999999999989      50.199999999999989
   284   1      7.5299999999999905      37.649999999999984      48.944999999999986
   285   1      7.5299999999999905       38.90499999999998      25.099999999999987
   286   1      7.5299999999999905       38.90499999999998      27.609999999999989
   287   1      7.5299999999999905      40.159999999999989      26.354999999999986
   288   1      6.2749999999999906       38.90499999999998      28.864999999999988
   289   1      6.2749999999999906      40.159999999999989      30.119999999999983
   290   1      7.5299999999999905       38.90499999999998      30.119999999999983
   291   1      7.5299999999999905      40.159999999999989      28.864999999999988
   292   1      6.2749999999999906       38.90499999999998      31.374999999999986
   293   1      6.2749999999999906      40.159999999999989      32.629999999999981
   294   1      7.5299999999999905       38.90499999999998      32.629999999999981
   295   1      7.5299999999999905      40.159999999999989      31.374999999999986
   296   1      6.2749999999999906       38.90499999999998      33.884999999999991
   297   1      6.2749999999999906      40.159999999999989      35.139999999999993
   298   1      7.5299999999999905       38.90499999999998      35.139999999999993
   299   1      7.5299999999999905      40.159999999999989      33.884999999999991
   300   1      6.2749999999999906       38.90499999999998      36.394999999999989
   301   1      6.2749999999999906      40.159999999999989      37.649999999999984
   302   1      7.5299999999999905       38.90499999999998      37.649999999999984
   303   1      7.5299999999999905      40.159999999999989      36.394999999999989
   304   1      6.2749999999999906       38.90499999999998       38.90499999999998
   305   1      6.2749999999999906      40.159999999999989      40.159999999999989
   306   1      7.5299999999999905       38.90499999999998      40.159999999999989
   307   1      7.5299999999999905      40.159999999999989       38.90499999999998
   308   1      6.2749999999999906       38.90499999999998      41.414999999999985
   309   1      6.2749999999999906      40.159999999999989      42.669999999999987
   310   1      7.5299999999999905       38.90499999999998      42.669999999999987
   311   1      7.5299999999999905      40.159999999999989      41.414999999999985
   312   1      6.2749999999999906       38.90499999999998      43.924999999999983
   313   1      7.5299999999999905       38.90499999999998      45.179999999999978
   314   1      7.5299999999999905      40.159999999999989      43.924999999999983
   315   1      7.5299999999999905       38.90499999999998      47.689999999999991
   316   1      7.5299999999999905      40.159999999999989      46.434999999999988
   317   1      7.5299999999999905      41.414999999999985      27.609999999999989
   318   1      7.5299999999999905      41.414999999999985      30.119999999999983
   319   1      7.5299999999999905      42.669999999999987      28.864999999999988
   320   1      6.2749999999999906      41.414999999999985      31.374999999999986
   321   1      6.2749999999999906      42.669999999999987      32.629999999999981
   322   1      7.5299999999999905      41.414999999999985      32.629999999999981
   323   1      7.5299999999999905      42.669999999999987      31.374999999999986
   324   1      6.2749999999999906      41.414999999999985      33.884999999999991
   325   1      6.2749999999999906      42.669999999999987      35.139999999999993
   326   1      7.5299999999999905      41.414999999999985      35.139999999999993
   327   1      7.5299999999999905      42.669999999999987      33.884999999999991
   328   1      6.2749999999999906      41.414999999999985      36.394999999999989
   329   1      6.2749999999999906      42.669999999999987      37.649999999999984
   330   1      7.5299999999999905      41.414999999999985      37.649999999999984
   331   1      7.5299999999999905      42.669999999999987      36.394999999999989
   332   1      6.2749999999999906      41.414999999999985       38.90499999999998
   333   1      6.2749999999999906      42.669999999999987      40.159999999999989
   334   1      7.5299999999999905      41.414999999999985      40.159999999999989
   335   1      7.5299999999999905      42.669999999999987       38.90499999999998
   336   1      6.2749999999999906      41.414999999999985      41.414999999999985
   337   1      7.5299999999999905      41.414999999999985      42.669999999999987
   338   1      7.5299999999999905      42.669999999999987      41.414999999999985
   339   1      7.5299999999999905      41.414999999999985      45.179999999999978
   340   1      7.5299999999999905      42.669999999999987      43.924999999999983
   341   1      7.5299999999999905      43.924999999999983      30.119999999999983
   342   1      7.5299999999999905      43.924999999999983      32.629999999999981
   343   1      7.5299999999999905      45.179999999999978      31.374999999999986
   344   1      6.2749999999999906      43.924999999999983      33.884999999999991
   345   1      6.2749999999999906      45.179999999999978      35.139999999999993
   346   1      7.5299999999999905      43.924999999999983      35.139999999999993
   347   1      7.5299999999999905      45.179999999999978      33.884999999999991
   348   1      6.2749999999999906      43.924999999999983      36.394999999999989
   349   1      6.2749999999999906      45.179999999999978      37.649999999999984
   350   1      7.5299999999999905      43.924999999999983      37.649999999999984
   351   1      7.5299999999999905      45.179999999999978      36.394999999999989
   352   1      6.2749999999999906      43.924999999999983       38.90499999999998
   353   1      7.5299999999999905      43.924999999999983      40.159999999999989
   354   1      7.5299999999999905      45.179999999999978       38.90499999999998
   355   1      7.5299999999999905      43.924999999999983      42.669999999999987
   356   1      7.5299999999999905      45.179999999999978      41.414999999999985
   357   1      7.5299999999999905      46.434999999999988      32.629999999999981
   358   1      7.5299999999999905      46.434999999999988      35.139999999999993