model_files/Ag/Ag_30000/Ag_532/data.Ag_532_fcc_30213 (written by ASE) 

30213 	 atoms 
1  atom types
0.0                     114  xlo xhi
0.0                     114  ylo yhi
0.0                     114  zlo zhi


Atoms 

     1   1      2.0450000000000088      51.125000000000007      57.260000000000005
     2   1      2.0450000000000088      53.170000000000009      55.215000000000011
     3   1      2.0450000000000088      55.215000000000011      53.170000000000009
     4   1      2.0450000000000088      53.170000000000009      59.305000000000007
     5   1      2.0450000000000088      55.215000000000011      57.260000000000005
     6   1      2.0450000000000088      55.215000000000011      61.350000000000009
     7   1      2.0450000000000088      57.260000000000005      51.125000000000007
     8   1      2.0450000000000088      57.260000000000005      55.215000000000011
     9   1      2.0450000000000088      59.305000000000007      53.170000000000009
    10   1  1.4210854715202004e-14      57.260000000000005      57.260000000000005
    11   1      2.0450000000000088      57.260000000000005      59.305000000000007
    12   1      2.0450000000000088      59.305000000000007      57.260000000000005
    13   1      2.0450000000000088      57.260000000000005       63.39500000000001
    14   1      2.0450000000000088      59.305000000000007      61.350000000000009
    15   1      2.0450000000000088      61.350000000000009      55.215000000000011
    16   1      2.0450000000000088      61.350000000000009      59.305000000000007
    17   1      2.0450000000000088       63.39500000000001      57.260000000000005
    18   1      6.1350000000000122      47.035000000000004      53.170000000000009
    19   1      6.1350000000000122      47.035000000000004      57.260000000000005
    20   1      6.1350000000000122      47.035000000000004      61.350000000000009
    21   1      6.1350000000000122      49.080000000000005      51.125000000000007
    22   1      6.1350000000000122      51.125000000000007      49.080000000000005
    23   1      4.0900000000000105      51.125000000000007      55.215000000000011
    24   1      6.1350000000000122      49.080000000000005      55.215000000000011
    25   1      6.1350000000000122      51.125000000000007      53.170000000000009
    26   1      4.0900000000000105      49.080000000000005      57.260000000000005
    27   1      4.0900000000000105      51.125000000000007      59.305000000000007
    28   1      6.1350000000000122      49.080000000000005      59.305000000000007
    29   1      6.1350000000000122      51.125000000000007      57.260000000000005
    30   1      6.1350000000000122      49.080000000000005       63.39500000000001
    31   1      6.1350000000000122      51.125000000000007      61.350000000000009
    32   1      6.1350000000000122      51.125000000000007      65.440000000000012
    33   1      6.1350000000000122      53.170000000000009      47.035000000000004
    34   1      4.0900000000000105      55.215000000000011      51.125000000000007
    35   1      6.1350000000000122      53.170000000000009      51.125000000000007
    36   1      6.1350000000000122      55.215000000000011      49.080000000000005
    37   1      4.0900000000000105      53.170000000000009      53.170000000000009
    38   1      4.0900000000000105      55.215000000000011      55.215000000000011
    39   1      6.1350000000000122      53.170000000000009      55.215000000000011
    40   1      6.1350000000000122      55.215000000000011      53.170000000000009
    41   1      4.0900000000000105      53.170000000000009      57.260000000000005
    42   1      4.0900000000000105      55.215000000000011      59.305000000000007
    43   1      6.1350000000000122      53.170000000000009      59.305000000000007
    44   1      6.1350000000000122      55.215000000000011      57.260000000000005
    45   1      4.0900000000000105      53.170000000000009      61.350000000000009
    46   1      4.0900000000000105      55.215000000000011       63.39500000000001
    47   1      6.1350000000000122      53.170000000000009       63.39500000000001
    48   1      6.1350000000000122      55.215000000000011      61.350000000000009
    49   1      6.1350000000000122      53.170000000000009      67.485000000000014
    50   1      6.1350000000000122      55.215000000000011      65.440000000000012
    51   1      6.1350000000000122      57.260000000000005      47.035000000000004
    52   1      4.0900000000000105      57.260000000000005      49.080000000000005
    53   1      4.0900000000000105      59.305000000000007      51.125000000000007
    54   1      6.1350000000000122      57.260000000000005      51.125000000000007
    55   1      6.1350000000000122      59.305000000000007      49.080000000000005
    56   1      4.0900000000000105      57.260000000000005      53.170000000000009
    57   1      4.0900000000000105      59.305000000000007      55.215000000000011
    58   1      6.1350000000000122      57.260000000000005      55.215000000000011
    59   1      6.1350000000000122      59.305000000000007      53.170000000000009
    60   1      4.0900000000000105      57.260000000000005      57.260000000000005
    61   1      4.0900000000000105      59.305000000000007      59.305000000000007
    62   1      6.1350000000000122      57.260000000000005      59.305000000000007
    63   1      6.1350000000000122      59.305000000000007      57.260000000000005
    64   1      4.0900000000000105      57.260000000000005      61.350000000000009
    65   1      4.0900000000000105      59.305000000000007       63.39500000000001
    66   1      6.1350000000000122      57.260000000000005       63.39500000000001
    67   1      6.1350000000000122      59.305000000000007      61.350000000000009
    68   1      4.0900000000000105      57.260000000000005      65.440000000000012
    69   1      6.1350000000000122      57.260000000000005      67.485000000000014
    70   1      6.1350000000000122      59.305000000000007      65.440000000000012
    71   1      6.1350000000000122      61.350000000000009      47.035000000000004
    72   1      6.1350000000000122      61.350000000000009      51.125000000000007
    73   1      6.1350000000000122       63.39500000000001      49.080000000000005
    74   1      4.0900000000000105      61.350000000000009      53.170000000000009
    75   1      4.0900000000000105       63.39500000000001      55.215000000000011
    76   1      6.1350000000000122      61.350000000000009      55.215000000000011
    77   1      6.1350000000000122       63.39500000000001      53.170000000000009
    78   1      4.0900000000000105      61.350000000000009      57.260000000000005
    79   1      4.0900000000000105       63.39500000000001      59.305000000000007
    80   1      6.1350000000000122      61.350000000000009      59.305000000000007
    81   1      6.1350000000000122       63.39500000000001      57.260000000000005
    82   1      4.0900000000000105      61.350000000000009      61.350000000000009
    83   1      6.1350000000000122      61.350000000000009       63.39500000000001
    84   1      6.1350000000000122       63.39500000000001      61.350000000000009
    85   1      6.1350000000000122      61.350000000000009      67.485000000000014
    86   1      6.1350000000000122       63.39500000000001      65.440000000000012
    87   1      6.1350000000000122      65.440000000000012      51.125000000000007
    88   1      6.1350000000000122      65.440000000000012      55.215000000000011
    89   1      6.1350000000000122      67.485000000000014      53.170000000000009
    90   1      4.0900000000000105      65.440000000000012      57.260000000000005
    91   1      6.1350000000000122      65.440000000000012      59.305000000000007
    92   1      6.1350000000000122      67.485000000000014      57.260000000000005
    93   1      6.1350000000000122      65.440000000000012       63.39500000000001
    94   1      6.1350000000000122      67.485000000000014      61.350000000000009
    95   1      10.225000000000009      38.855000000000011      57.260000000000005
    96   1      10.225000000000009                  42.945      49.080000000000005
    97   1      8.1800000000000068                  42.945      55.215000000000011
    98   1      10.225000000000009      40.899999999999999      55.215000000000011
    99   1      10.225000000000009                  42.945      53.170000000000009
   100   1      8.1800000000000068      40.899999999999999      57.260000000000005
   101   1      8.1800000000000068                  42.945      59.305000000000007
   102   1      10.225000000000009      40.899999999999999      59.305000000000007
   103   1      10.225000000000009                  42.945      57.260000000000005
   104   1      10.225000000000009                  42.945      61.350000000000009
   105   1      10.225000000000009                  42.945      65.440000000000012
   106   1      10.225000000000009      44.990000000000002      47.035000000000004
   107   1      10.225000000000009      47.035000000000004      44.990000000000002
   108   1      8.1800000000000068      47.035000000000004      51.125000000000007
   109   1      10.225000000000009      44.990000000000002      51.125000000000007
   110   1      10.225000000000009      47.035000000000004      49.080000000000005
   111   1      8.1800000000000068      44.990000000000002      53.170000000000009
   112   1      8.1800000000000068      47.035000000000004      55.215000000000011
   113   1      10.225000000000009      44.990000000000002      55.215000000000011
   114   1      10.225000000000009      47.035000000000004      53.170000000000009
   115   1      8.1800000000000068      44.990000000000002      57.260000000000005
   116   1      8.1800000000000068      47.035000000000004      59.305000000000007
   117   1      10.225000000000009      44.990000000000002      59.305000000000007
   118   1      10.225000000000009      47.035000000000004      57.260000000000005
   119   1      8.1800000000000068      44.990000000000002      61.350000000000009
   120   1      8.1800000000000068      47.035000000000004       63.39500000000001
   121   1      10.225000000000009      44.990000000000002       63.39500000000001
   122   1      10.225000000000009      47.035000000000004      61.350000000000009
   123   1      10.225000000000009      44.990000000000002      67.485000000000014
   124   1      10.225000000000009      47.035000000000004      65.440000000000012
   125   1      10.225000000000009      47.035000000000004      69.530000000000015
   126   1      10.225000000000009      49.080000000000005                  42.945
   127   1      8.1800000000000068      51.125000000000007      47.035000000000004
   128   1      10.225000000000009      49.080000000000005      47.035000000000004
   129   1      10.225000000000009      51.125000000000007      44.990000000000002
   130   1      8.1800000000000068      49.080000000000005      49.080000000000005
   131   1      8.1800000000000068      51.125000000000007      51.125000000000007
   132   1      10.225000000000009      49.080000000000005      51.125000000000007
   133   1      10.225000000000009      51.125000000000007      49.080000000000005
   134   1      8.1800000000000068      49.080000000000005      53.170000000000009
   135   1      8.1800000000000068      51.125000000000007      55.215000000000011
   136   1      10.225000000000009      49.080000000000005      55.215000000000011
   137   1      10.225000000000009      51.125000000000007      53.170000000000009
   138   1      8.1800000000000068      49.080000000000005      57.260000000000005
   139   1      8.1800000000000068      51.125000000000007      59.305000000000007
   140   1      10.225000000000009      49.080000000000005      59.305000000000007
   141   1      10.225000000000009      51.125000000000007      57.260000000000005
   142   1      8.1800000000000068      49.080000000000005      61.350000000000009
   143   1      8.1800000000000068      51.125000000000007       63.39500000000001
   144   1      10.225000000000009      49.080000000000005       63.39500000000001
   145   1      10.225000000000009      51.125000000000007      61.350000000000009
   146   1      8.1800000000000068      49.080000000000005      65.440000000000012
   147   1      8.1800000000000068      51.125000000000007      67.485000000000014
   148   1      10.225000000000009      49.080000000000005      67.485000000000014
   149   1      10.225000000000009      51.125000000000007      65.440000000000012
   150   1      10.225000000000009      49.080000000000005      71.575000000000017
   151   1      10.225000000000009      51.125000000000007      69.530000000000015
   152   1      8.1800000000000068      55.215000000000011                  42.945
   153   1      10.225000000000009      53.170000000000009                  42.945
   154   1      10.225000000000009      55.215000000000011      40.899999999999999
   155   1      8.1800000000000068      53.170000000000009      44.990000000000002
   156   1      8.1800000000000068      55.215000000000011      47.035000000000004
   157   1      10.225000000000009      53.170000000000009      47.035000000000004
   158   1      10.225000000000009      55.215000000000011      44.990000000000002
   159   1      8.1800000000000068      53.170000000000009      49.080000000000005
   160   1      8.1800000000000068      55.215000000000011      51.125000000000007
   161   1      10.225000000000009      53.170000000000009      51.125000000000007
   162   1      10.225000000000009      55.215000000000011      49.080000000000005
   163   1      8.1800000000000068      53.170000000000009      53.170000000000009
   164   1      8.1800000000000068      55.215000000000011      55.215000000000011
   165   1      10.225000000000009      53.170000000000009      55.215000000000011
   166   1      10.225000000000009      55.215000000000011      53.170000000000009
   167   1      8.1800000000000068      53.170000000000009      57.260000000000005
   168   1      8.1800000000000068      55.215000000000011      59.305000000000007
   169   1      10.225000000000009      53.170000000000009      59.305000000000007
   170   1      10.225000000000009      55.215000000000011      57.260000000000005
   171   1      8.1800000000000068      53.170000000000009      61.350000000000009
   172   1      8.1800000000000068      55.215000000000011       63.39500000000001
   173   1      10.225000000000009      53.170000000000009       63.39500000000001
   174   1      10.225000000000009      55.215000000000011      61.350000000000009
   175   1      8.1800000000000068      53.170000000000009      65.440000000000012
   176   1      8.1800000000000068      55.215000000000011      67.485000000000014
   177   1      10.225000000000009      53.170000000000009      67.485000000000014
   178   1      10.225000000000009      55.215000000000011      65.440000000000012
   179   1      8.1800000000000068      53.170000000000009      69.530000000000015
   180   1      8.1800000000000068      55.215000000000011      71.575000000000017
   181   1      10.225000000000009      53.170000000000009      71.575000000000017
   182   1      10.225000000000009      55.215000000000011      69.530000000000015
   183   1      10.225000000000009      55.215000000000011      73.620000000000005
   184   1      10.225000000000009      57.260000000000005      38.855000000000011
   185   1      8.1800000000000068      57.260000000000005      40.899999999999999
   186   1      8.1800000000000068      59.305000000000007                  42.945
   187   1      10.225000000000009      57.260000000000005                  42.945
   188   1      10.225000000000009      59.305000000000007      40.899999999999999
   189   1      8.1800000000000068      57.260000000000005      44.990000000000002
   190   1      8.1800000000000068      59.305000000000007      47.035000000000004
   191   1      10.225000000000009      57.260000000000005      47.035000000000004
   192   1      10.225000000000009      59.305000000000007      44.990000000000002
   193   1      8.1800000000000068      57.260000000000005      49.080000000000005
   194   1      8.1800000000000068      59.305000000000007      51.125000000000007
   195   1      10.225000000000009      57.260000000000005      51.125000000000007
   196   1      10.225000000000009      59.305000000000007      49.080000000000005
   197   1      8.1800000000000068      57.260000000000005      53.170000000000009
   198   1      8.1800000000000068      59.305000000000007      55.215000000000011
   199   1      10.225000000000009      57.260000000000005      55.215000000000011
   200   1      10.225000000000009      59.305000000000007      53.170000000000009
   201   1      8.1800000000000068      57.260000000000005      57.260000000000005
   202   1      8.1800000000000068      59.305000000000007      59.305000000000007
   203   1      10.225000000000009      57.260000000000005      59.305000000000007
   204   1      10.225000000000009      59.305000000000007      57.260000000000005
   205   1      8.1800000000000068      57.260000000000005      61.350000000000009
   206   1      8.1800000000000068      59.305000000000007       63.39500000000001
   207   1      10.225000000000009      57.260000000000005       63.39500000000001
   208   1      10.225000000000009      59.305000000000007      61.350000000000009
   209   1      8.1800000000000068      57.260000000000005      65.440000000000012
   210   1      8.1800000000000068      59.305000000000007      67.485000000000014
   211   1      10.225000000000009      57.260000000000005      67.485000000000014
   212   1      10.225000000000009      59.305000000000007      65.440000000000012
   213   1      8.1800000000000068      57.260000000000005      69.530000000000015
   214   1      8.1800000000000068      59.305000000000007      71.575000000000017
   215   1      10.225000000000009      57.260000000000005      71.575000000000017
   216   1      10.225000000000009      59.305000000000007      69.530000000000015
   217   1      8.1800000000000068      57.260000000000005      73.620000000000005
   218   1      10.225000000000009      57.260000000000005      75.665000000000006
   219   1      10.225000000000009      59.305000000000007      73.620000000000005
   220   1      10.225000000000009      61.350000000000009                  42.945
   221   1      8.1800000000000068      61.350000000000009      44.990000000000002
   222   1      8.1800000000000068       63.39500000000001      47.035000000000004
   223   1      10.225000000000009      61.350000000000009      47.035000000000004
   224   1      10.225000000000009       63.39500000000001      44.990000000000002
   225   1      8.1800000000000068      61.350000000000009      49.080000000000005
   226   1      8.1800000000000068       63.39500000000001      51.125000000000007
   227   1      10.225000000000009      61.350000000000009      51.125000000000007
   228   1      10.225000000000009       63.39500000000001      49.080000000000005
   229   1      8.1800000000000068      61.350000000000009      53.170000000000009
   230   1      8.1800000000000068       63.39500000000001      55.215000000000011
   231   1      10.225000000000009      61.350000000000009      55.215000000000011
   232   1      10.225000000000009       63.39500000000001      53.170000000000009
   233   1      8.1800000000000068      61.350000000000009      57.260000000000005
   234   1      8.1800000000000068       63.39500000000001      59.305000000000007
   235   1      10.225000000000009      61.350000000000009      59.305000000000007
   236   1      10.225000000000009       63.39500000000001      57.260000000000005
   237   1      8.1800000000000068      61.350000000000009      61.350000000000009
   238   1      8.1800000000000068       63.39500000000001       63.39500000000001
   239   1      10.225000000000009      61.350000000000009       63.39500000000001
   240   1      10.225000000000009       63.39500000000001      61.350000000000009
   241   1      8.1800000000000068      61.350000000000009      65.440000000000012
   242   1      8.1800000000000068       63.39500000000001      67.485000000000014
   243   1      10.225000000000009      61.350000000000009      67.485000000000014
   244   1      10.225000000000009       63.39500000000001      65.440000000000012
   245   1      8.1800000000000068      61.350000000000009      69.530000000000015
   246   1      10.225000000000009      61.350000000000009      71.575000000000017
   247   1      10.225000000000009       63.39500000000001      69.530000000000015
   248   1      10.225000000000009      65.440000000000012                  42.945
   249   1      10.225000000000009      65.440000000000012      47.035000000000004
   250   1      10.225000000000009      67.485000000000014      44.990000000000002
   251   1      8.1800000000000068      65.440000000000012      49.080000000000005
   252   1      8.1800000000000068      67.485000000000014      51.125000000000007
   253   1      10.225000000000009      65.440000000000012      51.125000000000007
   254   1      10.225000000000009      67.485000000000014      49.080000000000005
   255   1      8.1800000000000068      65.440000000000012      53.170000000000009
   256   1      8.1800000000000068      67.485000000000014      55.215000000000011
   257   1      10.225000000000009      65.440000000000012      55.215000000000011
   258   1      10.225000000000009      67.485000000000014      53.170000000000009
   259   1      8.1800000000000068      65.440000000000012      57.260000000000005
   260   1      8.1800000000000068      67.485000000000014      59.305000000000007
   261   1      10.225000000000009      65.440000000000012      59.305000000000007
   262   1      10.225000000000009      67.485000000000014      57.260000000000005
   263   1      8.1800000000000068      65.440000000000012      61.350000000000009
   264   1      8.1800000000000068      67.485000000000014       63.39500000000001
   265   1      10.225000000000009      65.440000000000012       63.39500000000001
   266   1      10.225000000000009      67.485000000000014      61.350000000000009
   267   1      8.1800000000000068      65.440000000000012      65.440000000000012
   268   1      10.225000000000009      65.440000000000012      67.485000000000014
   269   1      10.225000000000009      67.485000000000014      65.440000000000012
   270   1      10.225000000000009      65.440000000000012      71.575000000000017
   271   1      10.225000000000009      67.485000000000014      69.530000000000015
   272   1      10.225000000000009      69.530000000000015      47.035000000000004
   273   1      10.225000000000009      69.530000000000015      51.125000000000007
   274   1      10.225000000000009      71.575000000000017      49.080000000000005
   275   1      8.1800000000000068      69.530000000000015      53.170000000000009
   276   1      8.1800000000000068      71.575000000000017      55.215000000000011
   277   1      10.225000000000009      69.530000000000015      55.215000000000011
   278   1      10.225000000000009      71.575000000000017      53.170000000000009
   279   1      8.1800000000000068      69.530000000000015      57.260000000000005
   280   1      8.1800000000000068      71.575000000000017      59.305000000000007
   281   1      10.225000000000009      69.530000000000015      59.305000000000007
   282   1      10.225000000000009      71.575000000000017      57.260000000000005
   283   1      8.1800000000000068      69.530000000000015      61.350000000000009
   284   1      10.225000000000009      69.530000000000015       63.39500000000001
   285   1      10.225000000000009      71.575000000000017      61.350000000000009
   286   1      10.225000000000009      69.530000000000015      67.485000000000014
   287   1      10.225000000000009      71.575000000000017      65.440000000000012
   288   1      10.225000000000009      73.620000000000005      55.215000000000011
   289   1      8.1800000000000068      73.620000000000005      57.260000000000005
   290   1      10.225000000000009      73.620000000000005      59.305000000000007
   291   1      10.225000000000009      75.665000000000006      57.260000000000005
   292   1       14.31500000000001      30.675000000000011      57.260000000000005
   293   1       14.31500000000001      32.720000000000013      55.215000000000011
   294   1       14.31500000000001      34.765000000000015      53.170000000000009
   295   1       14.31500000000001      32.720000000000013      59.305000000000007
   296   1       14.31500000000001      34.765000000000015      57.260000000000005
   297   1       14.31500000000001      34.765000000000015      61.350000000000009
   298   1       14.31500000000001      38.855000000000011      44.990000000000002
   299   1       12.27000000000001      38.855000000000011      51.125000000000007
   300   1       14.31500000000001      36.810000000000009      51.125000000000007
   301   1       14.31500000000001      38.855000000000011      49.080000000000005
   302   1       12.27000000000001      36.810000000000009      53.170000000000009
   303   1       12.27000000000001      38.855000000000011      55.215000000000011
   304   1       14.31500000000001      36.810000000000009      55.215000000000011
   305   1       14.31500000000001      38.855000000000011      53.170000000000009
   306   1       12.27000000000001      36.810000000000009      57.260000000000005
   307   1       12.27000000000001      38.855000000000011      59.305000000000007
   308   1       14.31500000000001      36.810000000000009      59.305000000000007
   309   1       14.31500000000001      38.855000000000011      57.260000000000005
   310   1       12.27000000000001      36.810000000000009      61.350000000000009
   311   1       12.27000000000001      38.855000000000011       63.39500000000001
   312   1       14.31500000000001      36.810000000000009       63.39500000000001
   313   1       14.31500000000001      38.855000000000011      61.350000000000009
   314   1       14.31500000000001      38.855000000000011      65.440000000000012
   315   1       14.31500000000001      38.855000000000011      69.530000000000015
   316   1       14.31500000000001      40.899999999999999                  42.945
   317   1       14.31500000000001                  42.945      40.899999999999999
   318   1       12.27000000000001                  42.945      47.035000000000004
   319   1       14.31500000000001      40.899999999999999      47.035000000000004
   320   1       14.31500000000001                  42.945      44.990000000000002
   321   1       12.27000000000001      40.899999999999999      49.080000000000005
   322   1       12.27000000000001                  42.945      51.125000000000007
   323   1       14.31500000000001      40.899999999999999      51.125000000000007
   324   1       14.31500000000001                  42.945      49.080000000000005
   325   1       12.27000000000001      40.899999999999999      53.170000000000009
   326   1       12.27000000000001                  42.945      55.215000000000011
   327   1       14.31500000000001      40.899999999999999      55.215000000000011
   328   1       14.31500000000001                  42.945      53.170000000000009
   329   1       12.27000000000001      40.899999999999999      57.260000000000005
   330   1       12.27000000000001                  42.945      59.305000000000007
   331   1       14.31500000000001      40.899999999999999      59.305000000000007
   332   1       14.31500000000001                  42.945      57.260000000000005
   333   1       12.27000000000001      40.899999999999999      61.350000000000009
   334   1       12.27000000000001                  42.945       63.39500000000001
   335   1       14.31500000000001      40.899999999999999       63.39500000000001
   336   1       14.31500000000001                  42.945      61.350000000000009
   337   1       12.27000000000001      40.899999999999999      65.440000000000012
   338   1       12.27000000000001                  42.945      67.485000000000014
   339   1       14.31500000000001      40.899999999999999      67.485000000000014
   340   1       14.31500000000001                  42.945      65.440000000000012
   341   1       14.31500000000001      40.899999999999999      71.575000000000017
   342   1       14.31500000000001                  42.945      69.530000000000015
   343   1       14.31500000000001                  42.945      73.620000000000005
   344   1       14.31500000000001      44.990000000000002      38.855000000000011
   345   1       12.27000000000001      47.035000000000004                  42.945
   346   1       14.31500000000001      44.990000000000002                  42.945
   347   1       14.31500000000001      47.035000000000004      40.899999999999999
   348   1       12.27000000000001      44.990000000000002      44.990000000000002
   349   1       12.27000000000001      47.035000000000004      47.035000000000004
   350   1       14.31500000000001      44.990000000000002      47.035000000000004
   351   1       14.31500000000001      47.035000000000004      44.990000000000002
   352   1       12.27000000000001      44.990000000000002      49.080000000000005
   353   1       12.27000000000001      47.035000000000004      51.125000000000007
   354   1       14.31500000000001      44.990000000000002      51.125000000000007
   355   1       14.31500000000001      47.035000000000004      49.080000000000005
   356   1       12.27000000000001      44.990000000000002      53.170000000000009
   357   1       12.27000000000001      47.035000000000004      55.215000000000011
   358   1       14.31500000000001      44.990000000000002      55.215000000000011