model_files/Pt/Pt_30000/Pt_542/data.Pt_542_fcc_29823 (written by ASE) 

29823 	 atoms 
1  atom types
0.0                     119  xlo xhi
0.0                     119  ylo yhi
0.0                     119  zlo zhi


Atoms 

     1   1      1.9600000000000009      56.839999999999996      58.799999999999997
     2   1      1.9600000000000009      58.799999999999997      56.839999999999996
     3   1                       0      58.799999999999997      58.799999999999997
     4   1      1.9600000000000009      58.799999999999997      60.759999999999991
     5   1      1.9600000000000009      60.759999999999991      58.799999999999997
     6   1      3.9200000000000017      52.919999999999995      56.839999999999996
     7   1      5.8799999999999955      50.959999999999994      56.839999999999996
     8   1      5.8799999999999955      52.919999999999995      54.879999999999995
     9   1      3.9200000000000017      52.919999999999995      60.759999999999991
    10   1      5.8799999999999955      50.959999999999994      60.759999999999991
    11   1      5.8799999999999955      52.919999999999995      58.799999999999997
    12   1      5.8799999999999955      52.919999999999995      62.719999999999992
    13   1      3.9200000000000017      56.839999999999996      52.919999999999995
    14   1      5.8799999999999955      54.879999999999995      52.919999999999995
    15   1      5.8799999999999955      56.839999999999996      50.959999999999994
    16   1      3.9200000000000017      54.879999999999995      54.879999999999995
    17   1      3.9200000000000017      56.839999999999996      56.839999999999996
    18   1      5.8799999999999955      54.879999999999995      56.839999999999996
    19   1      5.8799999999999955      56.839999999999996      54.879999999999995
    20   1      3.9200000000000017      54.879999999999995      58.799999999999997
    21   1      3.9200000000000017      56.839999999999996      60.759999999999991
    22   1      5.8799999999999955      54.879999999999995      60.759999999999991
    23   1      5.8799999999999955      56.839999999999996      58.799999999999997
    24   1      3.9200000000000017      54.879999999999995      62.719999999999992
    25   1      3.9200000000000017      56.839999999999996      64.679999999999993
    26   1      5.8799999999999955      54.879999999999995      64.679999999999993
    27   1      5.8799999999999955      56.839999999999996      62.719999999999992
    28   1      5.8799999999999955      56.839999999999996      66.639999999999986
    29   1      3.9200000000000017      60.759999999999991      52.919999999999995
    30   1      5.8799999999999955      58.799999999999997      52.919999999999995
    31   1      5.8799999999999955      60.759999999999991      50.959999999999994
    32   1      3.9200000000000017      58.799999999999997      54.879999999999995
    33   1      3.9200000000000017      60.759999999999991      56.839999999999996
    34   1      5.8799999999999955      58.799999999999997      56.839999999999996
    35   1      5.8799999999999955      60.759999999999991      54.879999999999995
    36   1      3.9200000000000017      58.799999999999997      58.799999999999997
    37   1      3.9200000000000017      60.759999999999991      60.759999999999991
    38   1      5.8799999999999955      58.799999999999997      60.759999999999991
    39   1      5.8799999999999955      60.759999999999991      58.799999999999997
    40   1      3.9200000000000017      58.799999999999997      62.719999999999992
    41   1      3.9200000000000017      60.759999999999991      64.679999999999993
    42   1      5.8799999999999955      58.799999999999997      64.679999999999993
    43   1      5.8799999999999955      60.759999999999991      62.719999999999992
    44   1      5.8799999999999955      60.759999999999991      66.639999999999986
    45   1      5.8799999999999955      62.719999999999992      52.919999999999995
    46   1      3.9200000000000017      62.719999999999992      54.879999999999995
    47   1      3.9200000000000017      64.679999999999993      56.839999999999996
    48   1      5.8799999999999955      62.719999999999992      56.839999999999996
    49   1      5.8799999999999955      64.679999999999993      54.879999999999995
    50   1      3.9200000000000017      62.719999999999992      58.799999999999997
    51   1      3.9200000000000017      64.679999999999993      60.759999999999991
    52   1      5.8799999999999955      62.719999999999992      60.759999999999991
    53   1      5.8799999999999955      64.679999999999993      58.799999999999997
    54   1      3.9200000000000017      62.719999999999992      62.719999999999992
    55   1      5.8799999999999955      62.719999999999992      64.679999999999993
    56   1      5.8799999999999955      64.679999999999993      62.719999999999992
    57   1      5.8799999999999955      66.639999999999986      56.839999999999996
    58   1      5.8799999999999955      66.639999999999986      60.759999999999991
    59   1      9.7999999999999972      45.079999999999998      58.799999999999997
    60   1      9.7999999999999972                      49      50.959999999999994
    61   1      7.8399999999999954                      49      56.839999999999996
    62   1      9.7999999999999972      47.039999999999999      56.839999999999996
    63   1      9.7999999999999972                      49      54.879999999999995
    64   1      7.8399999999999954      47.039999999999999      58.799999999999997
    65   1      7.8399999999999954                      49      60.759999999999991
    66   1      9.7999999999999972      47.039999999999999      60.759999999999991
    67   1      9.7999999999999972                      49      58.799999999999997
    68   1      9.7999999999999972                      49      62.719999999999992
    69   1      9.7999999999999972                      49      66.639999999999986
    70   1      9.7999999999999972      50.959999999999994                      49
    71   1      7.8399999999999954      50.959999999999994      50.959999999999994
    72   1      7.8399999999999954      52.919999999999995      52.919999999999995
    73   1      9.7999999999999972      50.959999999999994      52.919999999999995
    74   1      9.7999999999999972      52.919999999999995      50.959999999999994
    75   1      7.8399999999999954      50.959999999999994      54.879999999999995
    76   1      7.8399999999999954      52.919999999999995      56.839999999999996
    77   1      9.7999999999999972      50.959999999999994      56.839999999999996
    78   1      9.7999999999999972      52.919999999999995      54.879999999999995
    79   1      7.8399999999999954      50.959999999999994      58.799999999999997
    80   1      7.8399999999999954      52.919999999999995      60.759999999999991
    81   1      9.7999999999999972      50.959999999999994      60.759999999999991
    82   1      9.7999999999999972      52.919999999999995      58.799999999999997
    83   1      7.8399999999999954      50.959999999999994      62.719999999999992
    84   1      7.8399999999999954      52.919999999999995      64.679999999999993
    85   1      9.7999999999999972      50.959999999999994      64.679999999999993
    86   1      9.7999999999999972      52.919999999999995      62.719999999999992
    87   1      7.8399999999999954      50.959999999999994      66.639999999999986
    88   1      9.7999999999999972      50.959999999999994      68.599999999999994
    89   1      9.7999999999999972      52.919999999999995      66.639999999999986
    90   1      7.8399999999999954      56.839999999999996                      49
    91   1      9.7999999999999972      54.879999999999995                      49
    92   1      9.7999999999999972      56.839999999999996      47.039999999999999
    93   1      7.8399999999999954      54.879999999999995      50.959999999999994
    94   1      7.8399999999999954      56.839999999999996      52.919999999999995
    95   1      9.7999999999999972      54.879999999999995      52.919999999999995
    96   1      9.7999999999999972      56.839999999999996      50.959999999999994
    97   1      7.8399999999999954      54.879999999999995      54.879999999999995
    98   1      7.8399999999999954      56.839999999999996      56.839999999999996
    99   1      9.7999999999999972      54.879999999999995      56.839999999999996
   100   1      9.7999999999999972      56.839999999999996      54.879999999999995
   101   1      7.8399999999999954      54.879999999999995      58.799999999999997
   102   1      7.8399999999999954      56.839999999999996      60.759999999999991
   103   1      9.7999999999999972      54.879999999999995      60.759999999999991
   104   1      9.7999999999999972      56.839999999999996      58.799999999999997
   105   1      7.8399999999999954      54.879999999999995      62.719999999999992
   106   1      7.8399999999999954      56.839999999999996      64.679999999999993
   107   1      9.7999999999999972      54.879999999999995      64.679999999999993
   108   1      9.7999999999999972      56.839999999999996      62.719999999999992
   109   1      7.8399999999999954      54.879999999999995      66.639999999999986
   110   1      7.8399999999999954      56.839999999999996      68.599999999999994
   111   1      9.7999999999999972      54.879999999999995      68.599999999999994
   112   1      9.7999999999999972      56.839999999999996      66.639999999999986
   113   1      9.7999999999999972      56.839999999999996      70.559999999999988
   114   1      9.7999999999999972      58.799999999999997      45.079999999999998
   115   1      7.8399999999999954      58.799999999999997      47.039999999999999
   116   1      7.8399999999999954      60.759999999999991                      49
   117   1      9.7999999999999972      58.799999999999997                      49
   118   1      9.7999999999999972      60.759999999999991      47.039999999999999
   119   1      7.8399999999999954      58.799999999999997      50.959999999999994
   120   1      7.8399999999999954      60.759999999999991      52.919999999999995
   121   1      9.7999999999999972      58.799999999999997      52.919999999999995
   122   1      9.7999999999999972      60.759999999999991      50.959999999999994
   123   1      7.8399999999999954      58.799999999999997      54.879999999999995
   124   1      7.8399999999999954      60.759999999999991      56.839999999999996
   125   1      9.7999999999999972      58.799999999999997      56.839999999999996
   126   1      9.7999999999999972      60.759999999999991      54.879999999999995
   127   1      7.8399999999999954      58.799999999999997      58.799999999999997
   128   1      7.8399999999999954      60.759999999999991      60.759999999999991
   129   1      9.7999999999999972      58.799999999999997      60.759999999999991
   130   1      9.7999999999999972      60.759999999999991      58.799999999999997
   131   1      7.8399999999999954      58.799999999999997      62.719999999999992
   132   1      7.8399999999999954      60.759999999999991      64.679999999999993
   133   1      9.7999999999999972      58.799999999999997      64.679999999999993
   134   1      9.7999999999999972      60.759999999999991      62.719999999999992
   135   1      7.8399999999999954      58.799999999999997      66.639999999999986
   136   1      7.8399999999999954      60.759999999999991      68.599999999999994
   137   1      9.7999999999999972      58.799999999999997      68.599999999999994
   138   1      9.7999999999999972      60.759999999999991      66.639999999999986
   139   1      7.8399999999999954      58.799999999999997      70.559999999999988
   140   1      9.7999999999999972      58.799999999999997      72.519999999999996
   141   1      9.7999999999999972      60.759999999999991      70.559999999999988
   142   1      9.7999999999999972      62.719999999999992                      49
   143   1      7.8399999999999954      62.719999999999992      50.959999999999994
   144   1      7.8399999999999954      64.679999999999993      52.919999999999995
   145   1      9.7999999999999972      62.719999999999992      52.919999999999995
   146   1      9.7999999999999972      64.679999999999993      50.959999999999994
   147   1      7.8399999999999954      62.719999999999992      54.879999999999995
   148   1      7.8399999999999954      64.679999999999993      56.839999999999996
   149   1      9.7999999999999972      62.719999999999992      56.839999999999996
   150   1      9.7999999999999972      64.679999999999993      54.879999999999995
   151   1      7.8399999999999954      62.719999999999992      58.799999999999997
   152   1      7.8399999999999954      64.679999999999993      60.759999999999991
   153   1      9.7999999999999972      62.719999999999992      60.759999999999991
   154   1      9.7999999999999972      64.679999999999993      58.799999999999997
   155   1      7.8399999999999954      62.719999999999992      62.719999999999992
   156   1      7.8399999999999954      64.679999999999993      64.679999999999993
   157   1      9.7999999999999972      62.719999999999992      64.679999999999993
   158   1      9.7999999999999972      64.679999999999993      62.719999999999992
   159   1      7.8399999999999954      62.719999999999992      66.639999999999986
   160   1      9.7999999999999972      62.719999999999992      68.599999999999994
   161   1      9.7999999999999972      64.679999999999993      66.639999999999986
   162   1      9.7999999999999972      66.639999999999986                      49
   163   1      7.8399999999999954      66.639999999999986      50.959999999999994
   164   1      9.7999999999999972      66.639999999999986      52.919999999999995
   165   1      9.7999999999999972      68.599999999999994      50.959999999999994
   166   1      7.8399999999999954      66.639999999999986      54.879999999999995
   167   1      7.8399999999999954      68.599999999999994      56.839999999999996
   168   1      9.7999999999999972      66.639999999999986      56.839999999999996
   169   1      9.7999999999999972      68.599999999999994      54.879999999999995
   170   1      7.8399999999999954      66.639999999999986      58.799999999999997
   171   1      7.8399999999999954      68.599999999999994      60.759999999999991
   172   1      9.7999999999999972      66.639999999999986      60.759999999999991
   173   1      9.7999999999999972      68.599999999999994      58.799999999999997
   174   1      7.8399999999999954      66.639999999999986      62.719999999999992
   175   1      9.7999999999999972      66.639999999999986      64.679999999999993
   176   1      9.7999999999999972      68.599999999999994      62.719999999999992
   177   1      7.8399999999999954      66.639999999999986      66.639999999999986
   178   1      9.7999999999999972      66.639999999999986      68.599999999999994
   179   1      9.7999999999999972      68.599999999999994      66.639999999999986
   180   1      9.7999999999999972      70.559999999999988      56.839999999999996
   181   1      7.8399999999999954      70.559999999999988      58.799999999999997
   182   1      9.7999999999999972      70.559999999999988      60.759999999999991
   183   1      9.7999999999999972      72.519999999999996      58.799999999999997
   184   1      13.719999999999999      41.159999999999997      58.799999999999997
   185   1      11.759999999999998      45.079999999999998      52.919999999999995
   186   1      13.719999999999999      43.119999999999997      52.919999999999995
   187   1      13.719999999999999      45.079999999999998      50.959999999999994
   188   1      11.759999999999998      45.079999999999998      56.839999999999996
   189   1      13.719999999999999      43.119999999999997      56.839999999999996
   190   1      13.719999999999999      45.079999999999998      54.879999999999995
   191   1      11.759999999999998      43.119999999999997      58.799999999999997
   192   1      11.759999999999998      45.079999999999998      60.759999999999991
   193   1      13.719999999999999      43.119999999999997      60.759999999999991
   194   1      13.719999999999999      45.079999999999998      58.799999999999997
   195   1      11.759999999999998      45.079999999999998      64.679999999999993
   196   1      13.719999999999999      43.119999999999997      64.679999999999993
   197   1      13.719999999999999      45.079999999999998      62.719999999999992
   198   1      13.719999999999999      45.079999999999998      66.639999999999986
   199   1      11.759999999999998                      49                      49
   200   1      13.719999999999999      47.039999999999999                      49
   201   1      13.719999999999999                      49      47.039999999999999
   202   1      11.759999999999998      47.039999999999999      50.959999999999994
   203   1      11.759999999999998                      49      52.919999999999995
   204   1      13.719999999999999      47.039999999999999      52.919999999999995
   205   1      13.719999999999999                      49      50.959999999999994
   206   1      11.759999999999998      47.039999999999999      54.879999999999995
   207   1      11.759999999999998                      49      56.839999999999996
   208   1      13.719999999999999      47.039999999999999      56.839999999999996
   209   1      13.719999999999999                      49      54.879999999999995
   210   1      11.759999999999998      47.039999999999999      58.799999999999997
   211   1      11.759999999999998                      49      60.759999999999991
   212   1      13.719999999999999      47.039999999999999      60.759999999999991
   213   1      13.719999999999999                      49      58.799999999999997
   214   1      11.759999999999998      47.039999999999999      62.719999999999992
   215   1      11.759999999999998                      49      64.679999999999993
   216   1      13.719999999999999      47.039999999999999      64.679999999999993
   217   1      13.719999999999999                      49      62.719999999999992
   218   1      11.759999999999998      47.039999999999999      66.639999999999986
   219   1      11.759999999999998                      49      68.599999999999994
   220   1      13.719999999999999      47.039999999999999      68.599999999999994
   221   1      13.719999999999999                      49      66.639999999999986
   222   1      13.719999999999999                      49      70.559999999999988
   223   1      11.759999999999998      52.919999999999995      45.079999999999998
   224   1      13.719999999999999      50.959999999999994      45.079999999999998
   225   1      13.719999999999999      52.919999999999995      43.119999999999997
   226   1      11.759999999999998      50.959999999999994      47.039999999999999
   227   1      11.759999999999998      52.919999999999995                      49
   228   1      13.719999999999999      50.959999999999994                      49
   229   1      13.719999999999999      52.919999999999995      47.039999999999999
   230   1      11.759999999999998      50.959999999999994      50.959999999999994
   231   1      11.759999999999998      52.919999999999995      52.919999999999995
   232   1      13.719999999999999      50.959999999999994      52.919999999999995
   233   1      13.719999999999999      52.919999999999995      50.959999999999994
   234   1      11.759999999999998      50.959999999999994      54.879999999999995
   235   1      11.759999999999998      52.919999999999995      56.839999999999996
   236   1      13.719999999999999      50.959999999999994      56.839999999999996
   237   1      13.719999999999999      52.919999999999995      54.879999999999995
   238   1      11.759999999999998      50.959999999999994      58.799999999999997
   239   1      11.759999999999998      52.919999999999995      60.759999999999991
   240   1      13.719999999999999      50.959999999999994      60.759999999999991
   241   1      13.719999999999999      52.919999999999995      58.799999999999997
   242   1      11.759999999999998      50.959999999999994      62.719999999999992
   243   1      11.759999999999998      52.919999999999995      64.679999999999993
   244   1      13.719999999999999      50.959999999999994      64.679999999999993
   245   1      13.719999999999999      52.919999999999995      62.719999999999992
   246   1      11.759999999999998      50.959999999999994      66.639999999999986
   247   1      11.759999999999998      52.919999999999995      68.599999999999994
   248   1      13.719999999999999      50.959999999999994      68.599999999999994
   249   1      13.719999999999999      52.919999999999995      66.639999999999986
   250   1      11.759999999999998      50.959999999999994      70.559999999999988
   251   1      11.759999999999998      52.919999999999995      72.519999999999996
   252   1      13.719999999999999      50.959999999999994      72.519999999999996
   253   1      13.719999999999999      52.919999999999995      70.559999999999988
   254   1      13.719999999999999      52.919999999999995      74.480000000000004
   255   1      11.759999999999998      56.839999999999996      45.079999999999998
   256   1      13.719999999999999      54.879999999999995      45.079999999999998
   257   1      13.719999999999999      56.839999999999996      43.119999999999997
   258   1      11.759999999999998      54.879999999999995      47.039999999999999
   259   1      11.759999999999998      56.839999999999996                      49
   260   1      13.719999999999999      54.879999999999995                      49
   261   1      13.719999999999999      56.839999999999996      47.039999999999999
   262   1      11.759999999999998      54.879999999999995      50.959999999999994
   263   1      11.759999999999998      56.839999999999996      52.919999999999995
   264   1      13.719999999999999      54.879999999999995      52.919999999999995
   265   1      13.719999999999999      56.839999999999996      50.959999999999994
   266   1      11.759999999999998      54.879999999999995      54.879999999999995
   267   1      11.759999999999998      56.839999999999996      56.839999999999996
   268   1      13.719999999999999      54.879999999999995      56.839999999999996
   269   1      13.719999999999999      56.839999999999996      54.879999999999995
   270   1      11.759999999999998      54.879999999999995      58.799999999999997
   271   1      11.759999999999998      56.839999999999996      60.759999999999991
   272   1      13.719999999999999      54.879999999999995      60.759999999999991
   273   1      13.719999999999999      56.839999999999996      58.799999999999997
   274   1      11.759999999999998      54.879999999999995      62.719999999999992
   275   1      11.759999999999998      56.839999999999996      64.679999999999993
   276   1      13.719999999999999      54.879999999999995      64.679999999999993
   277   1      13.719999999999999      56.839999999999996      62.719999999999992
   278   1      11.759999999999998      54.879999999999995      66.639999999999986
   279   1      11.759999999999998      56.839999999999996      68.599999999999994
   280   1      13.719999999999999      54.879999999999995      68.599999999999994
   281   1      13.719999999999999      56.839999999999996      66.639999999999986
   282   1      11.759999999999998      54.879999999999995      70.559999999999988
   283   1      11.759999999999998      56.839999999999996      72.519999999999996
   284   1      13.719999999999999      54.879999999999995      72.519999999999996
   285   1      13.719999999999999      56.839999999999996      70.559999999999988
   286   1      13.719999999999999      56.839999999999996      74.480000000000004
   287   1      13.719999999999999      58.799999999999997      41.159999999999997
   288   1      11.759999999999998      58.799999999999997      43.119999999999997
   289   1      11.759999999999998      60.759999999999991      45.079999999999998
   290   1      13.719999999999999      58.799999999999997      45.079999999999998
   291   1      13.719999999999999      60.759999999999991      43.119999999999997
   292   1      11.759999999999998      58.799999999999997      47.039999999999999
   293   1      11.759999999999998      60.759999999999991                      49
   294   1      13.719999999999999      58.799999999999997                      49
   295   1      13.719999999999999      60.759999999999991      47.039999999999999
   296   1      11.759999999999998      58.799999999999997      50.959999999999994
   297   1      11.759999999999998      60.759999999999991      52.919999999999995
   298   1      13.719999999999999      58.799999999999997      52.919999999999995
   299   1      13.719999999999999      60.759999999999991      50.959999999999994
   300   1      11.759999999999998      58.799999999999997      54.879999999999995
   301   1      11.759999999999998      60.759999999999991      56.839999999999996
   302   1      13.719999999999999      58.799999999999997      56.839999999999996
   303   1      13.719999999999999      60.759999999999991      54.879999999999995
   304   1      11.759999999999998      58.799999999999997      58.799999999999997
   305   1      11.759999999999998      60.759999999999991      60.759999999999991
   306   1      13.719999999999999      58.799999999999997      60.759999999999991
   307   1      13.719999999999999      60.759999999999991      58.799999999999997
   308   1      11.759999999999998      58.799999999999997      62.719999999999992
   309   1      11.759999999999998      60.759999999999991      64.679999999999993
   310   1      13.719999999999999      58.799999999999997      64.679999999999993
   311   1      13.719999999999999      60.759999999999991      62.719999999999992
   312   1      11.759999999999998      58.799999999999997      66.639999999999986
   313   1      11.759999999999998      60.759999999999991      68.599999999999994
   314   1      13.719999999999999      58.799999999999997      68.599999999999994
   315   1      13.719999999999999      60.759999999999991      66.639999999999986
   316   1      11.759999999999998      58.799999999999997      70.559999999999988
   317   1      11.759999999999998      60.759999999999991      72.519999999999996
   318   1      13.719999999999999      58.799999999999997      72.519999999999996
   319   1      13.719999999999999      60.759999999999991      70.559999999999988
   320   1      11.759999999999998      58.799999999999997      74.480000000000004
   321   1      13.719999999999999      58.799999999999997      76.439999999999998
   322   1      13.719999999999999      60.759999999999991      74.480000000000004
   323   1      11.759999999999998      64.679999999999993      45.079999999999998
   324   1      13.719999999999999      62.719999999999992      45.079999999999998
   325   1      13.719999999999999      64.679999999999993      43.119999999999997
   326   1      11.759999999999998      62.719999999999992      47.039999999999999
   327   1      11.759999999999998      64.679999999999993                      49
   328   1      13.719999999999999      62.719999999999992                      49
   329   1      13.719999999999999      64.679999999999993      47.039999999999999
   330   1      11.759999999999998      62.719999999999992      50.959999999999994
   331   1      11.759999999999998      64.679999999999993      52.919999999999995
   332   1      13.719999999999999      62.719999999999992      52.919999999999995
   333   1      13.719999999999999      64.679999999999993      50.959999999999994
   334   1      11.759999999999998      62.719999999999992      54.879999999999995
   335   1      11.759999999999998      64.679999999999993      56.839999999999996
   336   1      13.719999999999999      62.719999999999992      56.839999999999996
   337   1      13.719999999999999      64.679999999999993      54.879999999999995
   338   1      11.759999999999998      62.719999999999992      58.799999999999997
   339   1      11.759999999999998      64.679999999999993      60.759999999999991
   340   1      13.719999999999999      62.719999999999992      60.759999999999991
   341   1      13.719999999999999      64.679999999999993      58.799999999999997
   342   1      11.759999999999998      62.719999999999992      62.719999999999992
   343   1      11.759999999999998      64.679999999999993      64.679999999999993
   344   1      13.719999999999999      62.719999999999992      64.679999999999993
   345   1      13.719999999999999      64.679999999999993      62.719999999999992
   346   1      11.759999999999998      62.719999999999992      66.639999999999986
   347   1      11.759999999999998      64.679999999999993      68.599999999999994
   348   1      13.719999999999999      62.719999999999992      68.599999999999994
   349   1      13.719999999999999      64.679999999999993      66.639999999999986
   350   1      11.759999999999998      62.719999999999992      70.559999999999988
   351   1      11.759999999999998      64.679999999999993      72.519999999999996
   352   1      13.719999999999999      62.719999999999992      72.519999999999996
   353   1      13.719999999999999      64.679999999999993      70.559999999999988
   354   1      13.719999999999999      64.679999999999993      74.480000000000004
   355   1      13.719999999999999      66.639999999999986      45.079999999999998
   356   1      11.759999999999998      66.639999999999986      47.039999999999999
   357   1      11.759999999999998      68.599999999999994                      49
   358   1      13.719999999999999      66.639999999999986                      49