model_files/CuFeNi/CuFeNi_30000/CuFeNi_320/CuFeNi_320_fcc_29879_temp.data (written by ASE) 

29879 	 atoms 
3  atom types
0.0                      95  xlo xhi
0.0                      95  ylo yhi
0.0                      95  zlo zhi


Atoms 

     1   1      1.7899999999999849      41.169999999999987      42.959999999999987
     2   1      1.7899999999999849      41.169999999999987      46.539999999999992
     3   1      1.7899999999999849      41.169999999999987       50.11999999999999
     4   1      1.7899999999999849      42.959999999999987      41.169999999999987
     5   1      94.999999999999986      42.959999999999987      42.959999999999987
     6   1      94.999999999999986      44.749999999999986      44.749999999999986
     7   1      1.7899999999999849      42.959999999999987      44.749999999999986
     8   1      1.7899999999999849      44.749999999999986      42.959999999999987
     9   1      94.999999999999986      42.959999999999987      46.539999999999992
    10   1      94.999999999999986      44.749999999999986      48.329999999999991
    11   1      1.7899999999999849      42.959999999999987      48.329999999999991
    12   1      1.7899999999999849      44.749999999999986      46.539999999999992
    13   1      94.999999999999986      42.959999999999987       50.11999999999999
    14   1      1.7899999999999849      42.959999999999987      51.909999999999989
    15   1      1.7899999999999849      44.749999999999986       50.11999999999999
    16   1      1.7899999999999849      46.539999999999992      41.169999999999987
    17   1      94.999999999999986      46.539999999999992      42.959999999999987
    18   1      94.999999999999986      48.329999999999991      44.749999999999986
    19   1      1.7899999999999849      46.539999999999992      44.749999999999986
    20   1      1.7899999999999849      48.329999999999991      42.959999999999987
    21   1      94.999999999999986      46.539999999999992      46.539999999999992
    22   1      94.999999999999986      48.329999999999991      48.329999999999991
    23   1      1.7899999999999849      46.539999999999992      48.329999999999991
    24   1      1.7899999999999849      48.329999999999991      46.539999999999992
    25   1      94.999999999999986      46.539999999999992       50.11999999999999
    26   1      1.7899999999999849      46.539999999999992      51.909999999999989
    27   1      1.7899999999999849      48.329999999999991       50.11999999999999
    28   1      1.7899999999999849       50.11999999999999      41.169999999999987
    29   1      94.999999999999986       50.11999999999999      42.959999999999987
    30   1      1.7899999999999849       50.11999999999999      44.749999999999986
    31   1      1.7899999999999849      51.909999999999989      42.959999999999987
    32   1      94.999999999999986       50.11999999999999      46.539999999999992
    33   1      1.7899999999999849       50.11999999999999      48.329999999999991
    34   1      1.7899999999999849      51.909999999999989      46.539999999999992
    35   1      94.999999999999986       50.11999999999999       50.11999999999999
    36   1      1.7899999999999849       50.11999999999999      51.909999999999989
    37   1      1.7899999999999849      51.909999999999989       50.11999999999999
    38   1      3.5799999999999836      37.589999999999989      37.589999999999989
    39   1      5.3699999999999903       35.79999999999999      37.589999999999989
    40   1      5.3699999999999903      37.589999999999989       35.79999999999999
    41   1      3.5799999999999836      37.589999999999989      41.169999999999987
    42   1      5.3699999999999903       35.79999999999999      41.169999999999987
    43   1      5.3699999999999903      37.589999999999989      39.379999999999988
    44   1      3.5799999999999836      37.589999999999989      44.749999999999986
    45   1      5.3699999999999903       35.79999999999999      44.749999999999986
    46   1      5.3699999999999903      37.589999999999989      42.959999999999987
    47   1      3.5799999999999836      37.589999999999989      48.329999999999991
    48   1      5.3699999999999903       35.79999999999999      48.329999999999991
    49   1      5.3699999999999903      37.589999999999989      46.539999999999992
    50   1      3.5799999999999836      37.589999999999989      51.909999999999989
    51   1      5.3699999999999903       35.79999999999999      51.909999999999989
    52   1      5.3699999999999903      37.589999999999989       50.11999999999999
    53   1      3.5799999999999836      37.589999999999989      55.489999999999988
    54   1      5.3699999999999903       35.79999999999999      55.489999999999988
    55   1      5.3699999999999903      37.589999999999989      53.699999999999989
    56   1      5.3699999999999903      37.589999999999989       57.27999999999998
    57   1      3.5799999999999836      41.169999999999987      37.589999999999989
    58   1      5.3699999999999903      39.379999999999988      37.589999999999989
    59   1      5.3699999999999903      41.169999999999987       35.79999999999999
    60   1      3.5799999999999836      39.379999999999988      39.379999999999988
    61   1      3.5799999999999836      41.169999999999987      41.169999999999987
    62   1      5.3699999999999903      39.379999999999988      41.169999999999987
    63   1      5.3699999999999903      41.169999999999987      39.379999999999988
    64   1      3.5799999999999836      39.379999999999988      42.959999999999987
    65   1      3.5799999999999836      41.169999999999987      44.749999999999986
    66   1      5.3699999999999903      39.379999999999988      44.749999999999986
    67   1      5.3699999999999903      41.169999999999987      42.959999999999987
    68   1      3.5799999999999836      39.379999999999988      46.539999999999992
    69   1      3.5799999999999836      41.169999999999987      48.329999999999991
    70   1      5.3699999999999903      39.379999999999988      48.329999999999991
    71   1      5.3699999999999903      41.169999999999987      46.539999999999992
    72   1      3.5799999999999836      39.379999999999988       50.11999999999999
    73   1      3.5799999999999836      41.169999999999987      51.909999999999989
    74   1      5.3699999999999903      39.379999999999988      51.909999999999989
    75   1      5.3699999999999903      41.169999999999987       50.11999999999999
    76   1      3.5799999999999836      39.379999999999988      53.699999999999989
    77   1      3.5799999999999836      41.169999999999987      55.489999999999988
    78   1      5.3699999999999903      39.379999999999988      55.489999999999988
    79   1      5.3699999999999903      41.169999999999987      53.699999999999989
    80   1      5.3699999999999903      41.169999999999987       57.27999999999998
    81   1      3.5799999999999836      44.749999999999986      37.589999999999989
    82   1      5.3699999999999903      42.959999999999987      37.589999999999989
    83   1      5.3699999999999903      44.749999999999986       35.79999999999999
    84   1      3.5799999999999836      42.959999999999987      39.379999999999988
    85   1      3.5799999999999836      44.749999999999986      41.169999999999987
    86   1      5.3699999999999903      42.959999999999987      41.169999999999987
    87   1      5.3699999999999903      44.749999999999986      39.379999999999988
    88   1      3.5799999999999836      42.959999999999987      42.959999999999987
    89   1      3.5799999999999836      44.749999999999986      44.749999999999986
    90   1      5.3699999999999903      42.959999999999987      44.749999999999986
    91   1      5.3699999999999903      44.749999999999986      42.959999999999987
    92   1      3.5799999999999836      42.959999999999987      46.539999999999992
    93   1      3.5799999999999836      44.749999999999986      48.329999999999991
    94   1      5.3699999999999903      42.959999999999987      48.329999999999991
    95   1      5.3699999999999903      44.749999999999986      46.539999999999992
    96   1      3.5799999999999836      42.959999999999987       50.11999999999999
    97   1      3.5799999999999836      44.749999999999986      51.909999999999989
    98   1      5.3699999999999903      42.959999999999987      51.909999999999989
    99   1      5.3699999999999903      44.749999999999986       50.11999999999999
   100   1      3.5799999999999836      42.959999999999987      53.699999999999989
   101   1      3.5799999999999836      44.749999999999986      55.489999999999988
   102   1      5.3699999999999903      42.959999999999987      55.489999999999988
   103   1      5.3699999999999903      44.749999999999986      53.699999999999989
   104   1      5.3699999999999903      44.749999999999986       57.27999999999998
   105   1      3.5799999999999836      48.329999999999991      37.589999999999989
   106   1      5.3699999999999903      46.539999999999992      37.589999999999989
   107   1      5.3699999999999903      48.329999999999991       35.79999999999999
   108   1      3.5799999999999836      46.539999999999992      39.379999999999988
   109   1      3.5799999999999836      48.329999999999991      41.169999999999987
   110   1      5.3699999999999903      46.539999999999992      41.169999999999987
   111   1      5.3699999999999903      48.329999999999991      39.379999999999988
   112   1      3.5799999999999836      46.539999999999992      42.959999999999987
   113   1      3.5799999999999836      48.329999999999991      44.749999999999986
   114   1      5.3699999999999903      46.539999999999992      44.749999999999986
   115   1      5.3699999999999903      48.329999999999991      42.959999999999987
   116   1      3.5799999999999836      46.539999999999992      46.539999999999992
   117   1      3.5799999999999836      48.329999999999991      48.329999999999991
   118   1      5.3699999999999903      46.539999999999992      48.329999999999991
   119   1      5.3699999999999903      48.329999999999991      46.539999999999992
   120   1      3.5799999999999836      46.539999999999992       50.11999999999999
   121   1      3.5799999999999836      48.329999999999991      51.909999999999989
   122   1      5.3699999999999903      46.539999999999992      51.909999999999989
   123   1      5.3699999999999903      48.329999999999991       50.11999999999999
   124   1      3.5799999999999836      46.539999999999992      53.699999999999989
   125   1      3.5799999999999836      48.329999999999991      55.489999999999988
   126   1      5.3699999999999903      46.539999999999992      55.489999999999988
   127   1      5.3699999999999903      48.329999999999991      53.699999999999989
   128   1      5.3699999999999903      48.329999999999991       57.27999999999998
   129   1      3.5799999999999836      51.909999999999989      37.589999999999989
   130   1      5.3699999999999903       50.11999999999999      37.589999999999989
   131   1      5.3699999999999903      51.909999999999989       35.79999999999999
   132   1      3.5799999999999836       50.11999999999999      39.379999999999988
   133   1      3.5799999999999836      51.909999999999989      41.169999999999987
   134   1      5.3699999999999903       50.11999999999999      41.169999999999987
   135   1      5.3699999999999903      51.909999999999989      39.379999999999988
   136   1      3.5799999999999836       50.11999999999999      42.959999999999987
   137   1      3.5799999999999836      51.909999999999989      44.749999999999986
   138   1      5.3699999999999903       50.11999999999999      44.749999999999986
   139   1      5.3699999999999903      51.909999999999989      42.959999999999987
   140   1      3.5799999999999836       50.11999999999999      46.539999999999992
   141   1      3.5799999999999836      51.909999999999989      48.329999999999991
   142   1      5.3699999999999903       50.11999999999999      48.329999999999991
   143   1      5.3699999999999903      51.909999999999989      46.539999999999992
   144   1      3.5799999999999836       50.11999999999999       50.11999999999999
   145   1      3.5799999999999836      51.909999999999989      51.909999999999989
   146   1      5.3699999999999903       50.11999999999999      51.909999999999989
   147   1      5.3699999999999903      51.909999999999989       50.11999999999999
   148   1      3.5799999999999836       50.11999999999999      53.699999999999989
   149   1      3.5799999999999836      51.909999999999989      55.489999999999988
   150   1      5.3699999999999903       50.11999999999999      55.489999999999988
   151   1      5.3699999999999903      51.909999999999989      53.699999999999989
   152   1      5.3699999999999903      51.909999999999989       57.27999999999998
   153   1      3.5799999999999836      55.489999999999988      37.589999999999989
   154   1      5.3699999999999903      53.699999999999989      37.589999999999989
   155   1      5.3699999999999903      55.489999999999988       35.79999999999999
   156   1      3.5799999999999836      53.699999999999989      39.379999999999988
   157   1      3.5799999999999836      55.489999999999988      41.169999999999987
   158   1      5.3699999999999903      53.699999999999989      41.169999999999987
   159   1      5.3699999999999903      55.489999999999988      39.379999999999988
   160   1      3.5799999999999836      53.699999999999989      42.959999999999987
   161   1      3.5799999999999836      55.489999999999988      44.749999999999986
   162   1      5.3699999999999903      53.699999999999989      44.749999999999986
   163   1      5.3699999999999903      55.489999999999988      42.959999999999987
   164   1      3.5799999999999836      53.699999999999989      46.539999999999992
   165   1      3.5799999999999836      55.489999999999988      48.329999999999991
   166   1      5.3699999999999903      53.699999999999989      48.329999999999991
   167   1      5.3699999999999903      55.489999999999988      46.539999999999992
   168   1      3.5799999999999836      53.699999999999989       50.11999999999999
   169   1      3.5799999999999836      55.489999999999988      51.909999999999989
   170   1      5.3699999999999903      53.699999999999989      51.909999999999989
   171   1      5.3699999999999903      55.489999999999988       50.11999999999999
   172   1      3.5799999999999836      53.699999999999989      53.699999999999989
   173   1      3.5799999999999836      55.489999999999988      55.489999999999988
   174   1      5.3699999999999903      53.699999999999989      55.489999999999988
   175   1      5.3699999999999903      55.489999999999988      53.699999999999989
   176   1      5.3699999999999903      55.489999999999988       57.27999999999998
   177   1      5.3699999999999903       57.27999999999998      37.589999999999989
   178   1      5.3699999999999903       57.27999999999998      41.169999999999987
   179   1      5.3699999999999903       57.27999999999998      44.749999999999986
   180   1      5.3699999999999903       57.27999999999998      48.329999999999991
   181   1      5.3699999999999903       57.27999999999998      51.909999999999989
   182   1      5.3699999999999903       57.27999999999998      55.489999999999988
   183   1      8.9499999999999886      30.429999999999986      32.219999999999985
   184   1      8.9499999999999886      30.429999999999986       35.79999999999999
   185   1      8.9499999999999886      30.429999999999986      39.379999999999988
   186   1      8.9499999999999886      30.429999999999986      42.959999999999987
   187   1      8.9499999999999886      30.429999999999986      46.539999999999992
   188   1      8.9499999999999886      30.429999999999986       50.11999999999999
   189   1      8.9499999999999886      30.429999999999986      53.699999999999989
   190   1      8.9499999999999886      30.429999999999986       57.27999999999998
   191   1      8.9499999999999886      30.429999999999986      60.859999999999978
   192   1      8.9499999999999886      32.219999999999985      30.429999999999986
   193   1      7.1599999999999886      32.219999999999985      32.219999999999985
   194   1      7.1599999999999886      34.009999999999984      34.009999999999984
   195   1      8.9499999999999886      32.219999999999985      34.009999999999984
   196   1      8.9499999999999886      34.009999999999984      32.219999999999985
   197   1      7.1599999999999886      32.219999999999985       35.79999999999999
   198   1      7.1599999999999886      34.009999999999984      37.589999999999989
   199   1      8.9499999999999886      32.219999999999985      37.589999999999989
   200   1      8.9499999999999886      34.009999999999984       35.79999999999999
   201   1      7.1599999999999886      32.219999999999985      39.379999999999988
   202   1      7.1599999999999886      34.009999999999984      41.169999999999987
   203   1      8.9499999999999886      32.219999999999985      41.169999999999987
   204   1      8.9499999999999886      34.009999999999984      39.379999999999988
   205   1      7.1599999999999886      32.219999999999985      42.959999999999987
   206   1      7.1599999999999886      34.009999999999984      44.749999999999986
   207   1      8.9499999999999886      32.219999999999985      44.749999999999986
   208   1      8.9499999999999886      34.009999999999984      42.959999999999987
   209   1      7.1599999999999886      32.219999999999985      46.539999999999992
   210   1      7.1599999999999886      34.009999999999984      48.329999999999991
   211   1      8.9499999999999886      32.219999999999985      48.329999999999991
   212   1      8.9499999999999886      34.009999999999984      46.539999999999992
   213   1      7.1599999999999886      32.219999999999985       50.11999999999999
   214   1      7.1599999999999886      34.009999999999984      51.909999999999989
   215   1      8.9499999999999886      32.219999999999985      51.909999999999989
   216   1      8.9499999999999886      34.009999999999984       50.11999999999999
   217   1      7.1599999999999886      32.219999999999985      53.699999999999989
   218   1      7.1599999999999886      34.009999999999984      55.489999999999988
   219   1      8.9499999999999886      32.219999999999985      55.489999999999988
   220   1      8.9499999999999886      34.009999999999984      53.699999999999989
   221   1      7.1599999999999886      32.219999999999985       57.27999999999998
   222   1      7.1599999999999886      34.009999999999984      59.069999999999979
   223   1      8.9499999999999886      32.219999999999985      59.069999999999979
   224   1      8.9499999999999886      34.009999999999984       57.27999999999998
   225   1      7.1599999999999886      32.219999999999985      60.859999999999978
   226   1      8.9499999999999886      32.219999999999985      62.649999999999991
   227   1      8.9499999999999886      34.009999999999984      60.859999999999978
   228   1      8.9499999999999886       35.79999999999999      30.429999999999986
   229   1      7.1599999999999886       35.79999999999999      32.219999999999985
   230   1      7.1599999999999886      37.589999999999989      34.009999999999984
   231   1      8.9499999999999886       35.79999999999999      34.009999999999984
   232   1      8.9499999999999886      37.589999999999989      32.219999999999985
   233   1      7.1599999999999886       35.79999999999999       35.79999999999999
   234   1      7.1599999999999886      37.589999999999989      37.589999999999989
   235   1      8.9499999999999886       35.79999999999999      37.589999999999989
   236   1      8.9499999999999886      37.589999999999989       35.79999999999999
   237   1      7.1599999999999886       35.79999999999999      39.379999999999988
   238   1      7.1599999999999886      37.589999999999989      41.169999999999987
   239   1      8.9499999999999886       35.79999999999999      41.169999999999987
   240   1      8.9499999999999886      37.589999999999989      39.379999999999988
   241   1      7.1599999999999886       35.79999999999999      42.959999999999987
   242   1      7.1599999999999886      37.589999999999989      44.749999999999986
   243   1      8.9499999999999886       35.79999999999999      44.749999999999986
   244   1      8.9499999999999886      37.589999999999989      42.959999999999987
   245   1      7.1599999999999886       35.79999999999999      46.539999999999992
   246   1      7.1599999999999886      37.589999999999989      48.329999999999991
   247   1      8.9499999999999886       35.79999999999999      48.329999999999991
   248   1      8.9499999999999886      37.589999999999989      46.539999999999992
   249   1      7.1599999999999886       35.79999999999999       50.11999999999999
   250   1      7.1599999999999886      37.589999999999989      51.909999999999989
   251   1      8.9499999999999886       35.79999999999999      51.909999999999989
   252   1      8.9499999999999886      37.589999999999989       50.11999999999999
   253   1      7.1599999999999886       35.79999999999999      53.699999999999989
   254   1      7.1599999999999886      37.589999999999989      55.489999999999988
   255   1      8.9499999999999886       35.79999999999999      55.489999999999988
   256   1      8.9499999999999886      37.589999999999989      53.699999999999989
   257   1      7.1599999999999886       35.79999999999999       57.27999999999998
   258   1      7.1599999999999886      37.589999999999989      59.069999999999979
   259   1      8.9499999999999886       35.79999999999999      59.069999999999979
   260   1      8.9499999999999886      37.589999999999989       57.27999999999998
   261   1      7.1599999999999886       35.79999999999999      60.859999999999978
   262   1      8.9499999999999886       35.79999999999999      62.649999999999991
   263   1      8.9499999999999886      37.589999999999989      60.859999999999978
   264   1      8.9499999999999886      39.379999999999988      30.429999999999986
   265   1      7.1599999999999886      39.379999999999988      32.219999999999985
   266   1      7.1599999999999886      41.169999999999987      34.009999999999984
   267   1      8.9499999999999886      39.379999999999988      34.009999999999984
   268   1      8.9499999999999886      41.169999999999987      32.219999999999985
   269   1      7.1599999999999886      39.379999999999988       35.79999999999999
   270   1      7.1599999999999886      41.169999999999987      37.589999999999989
   271   1      8.9499999999999886      39.379999999999988      37.589999999999989
   272   1      8.9499999999999886      41.169999999999987       35.79999999999999
   273   1      7.1599999999999886      39.379999999999988      39.379999999999988
   274   1      7.1599999999999886      41.169999999999987      41.169999999999987
   275   1      8.9499999999999886      39.379999999999988      41.169999999999987
   276   1      8.9499999999999886      41.169999999999987      39.379999999999988
   277   1      7.1599999999999886      39.379999999999988      42.959999999999987
   278   1      7.1599999999999886      41.169999999999987      44.749999999999986
   279   1      8.9499999999999886      39.379999999999988      44.749999999999986
   280   1      8.9499999999999886      41.169999999999987      42.959999999999987
   281   1      7.1599999999999886      39.379999999999988      46.539999999999992
   282   1      7.1599999999999886      41.169999999999987      48.329999999999991
   283   1      8.9499999999999886      39.379999999999988      48.329999999999991
   284   1      8.9499999999999886      41.169999999999987      46.539999999999992
   285   1      7.1599999999999886      39.379999999999988       50.11999999999999
   286   1      7.1599999999999886      41.169999999999987      51.909999999999989
   287   1      8.9499999999999886      39.379999999999988      51.909999999999989
   288   1      8.9499999999999886      41.169999999999987       50.11999999999999
   289   1      7.1599999999999886      39.379999999999988      53.699999999999989
   290   1      7.1599999999999886      41.169999999999987      55.489999999999988
   291   1      8.9499999999999886      39.379999999999988      55.489999999999988
   292   1      8.9499999999999886      41.169999999999987      53.699999999999989
   293   1      7.1599999999999886      39.379999999999988       57.27999999999998
   294   1      7.1599999999999886      41.169999999999987      59.069999999999979
   295   1      8.9499999999999886      39.379999999999988      59.069999999999979
   296   1      8.9499999999999886      41.169999999999987       57.27999999999998
   297   1      7.1599999999999886      39.379999999999988      60.859999999999978
   298   1      8.9499999999999886      39.379999999999988      62.649999999999991
   299   1      8.9499999999999886      41.169999999999987      60.859999999999978
   300   1      8.9499999999999886      42.959999999999987      30.429999999999986
   301   1      7.1599999999999886      42.959999999999987      32.219999999999985
   302   1      7.1599999999999886      44.749999999999986      34.009999999999984
   303   1      8.9499999999999886      42.959999999999987      34.009999999999984
   304   1      8.9499999999999886      44.749999999999986      32.219999999999985
   305   1      7.1599999999999886      42.959999999999987       35.79999999999999
   306   1      7.1599999999999886      44.749999999999986      37.589999999999989
   307   1      8.9499999999999886      42.959999999999987      37.589999999999989
   308   1      8.9499999999999886      44.749999999999986       35.79999999999999
   309   1      7.1599999999999886      42.959999999999987      39.379999999999988
   310   1      7.1599999999999886      44.749999999999986      41.169999999999987
   311   1      8.9499999999999886      42.959999999999987      41.169999999999987
   312   1      8.9499999999999886      44.749999999999986      39.379999999999988
   313   1      7.1599999999999886      42.959999999999987      42.959999999999987
   314   1      7.1599999999999886      44.749999999999986      44.749999999999986
   315   1      8.9499999999999886      42.959999999999987      44.749999999999986
   316   1      8.9499999999999886      44.749999999999986      42.959999999999987
   317   1      7.1599999999999886      42.959999999999987      46.539999999999992
   318   1      7.1599999999999886      44.749999999999986      48.329999999999991
   319   1      8.9499999999999886      42.959999999999987      48.329999999999991
   320   1      8.9499999999999886      44.749999999999986      46.539999999999992
   321   1      7.1599999999999886      42.959999999999987       50.11999999999999
   322   1      7.1599999999999886      44.749999999999986      51.909999999999989
   323   1      8.9499999999999886      42.959999999999987      51.909999999999989
   324   1      8.9499999999999886      44.749999999999986       50.11999999999999
   325   1      7.1599999999999886      42.959999999999987      53.699999999999989
   326   1      7.1599999999999886      44.749999999999986      55.489999999999988
   327   1      8.9499999999999886      42.959999999999987      55.489999999999988
   328   1      8.9499999999999886      44.749999999999986      53.699999999999989
   329   1      7.1599999999999886      42.959999999999987       57.27999999999998
   330   1      7.1599999999999886      44.749999999999986      59.069999999999979
   331   1      8.9499999999999886      42.959999999999987      59.069999999999979
   332   1      8.9499999999999886      44.749999999999986       57.27999999999998
   333   1      7.1599999999999886      42.959999999999987      60.859999999999978
   334   1      8.9499999999999886      42.959999999999987      62.649999999999991
   335   1      8.9499999999999886      44.749999999999986      60.859999999999978
   336   1      8.9499999999999886      46.539999999999992      30.429999999999986
   337   1      7.1599999999999886      46.539999999999992      32.219999999999985
   338   1      7.1599999999999886      48.329999999999991      34.009999999999984
   339   1      8.9499999999999886      46.539999999999992      34.009999999999984
   340   1      8.9499999999999886      48.329999999999991      32.219999999999985
   341   1      7.1599999999999886      46.539999999999992       35.79999999999999
   342   1      7.1599999999999886      48.329999999999991      37.589999999999989
   343   1      8.9499999999999886      46.539999999999992      37.589999999999989
   344   1      8.9499999999999886      48.329999999999991       35.79999999999999
   345   1      7.1599999999999886      46.539999999999992      39.379999999999988
   346   1      7.1599999999999886      48.329999999999991      41.169999999999987
   347   1      8.9499999999999886      46.539999999999992      41.169999999999987
   348   1      8.9499999999999886      48.329999999999991      39.379999999999988
   349   1      7.1599999999999886      46.539999999999992      42.959999999999987
   350   1      7.1599999999999886      48.329999999999991      44.749999999999986
   351   1      8.9499999999999886      46.539999999999992      44.749999999999986
   352   1      8.9499999999999886      48.329999999999991      42.959999999999987
   353   1      7.1599999999999886      46.539999999999992      46.539999999999992
   354   1      7.1599999999999886      48.329999999999991      48.329999999999991
   355   1      8.9499999999999886      46.539999999999992      48.329999999999991
   356   1      8.9499999999999886      48.329999999999991      46.539999999999992
   357   1      7.1599999999999886      46.539999999999992       50.11999999999999
   358   1      7.1599999999999886      48.329999999999991      51.909999999999989