LAMMPS data file via write_data, version 30 Nov 2020, timestep = 0

30243 atoms
5 atom types

0 95 xlo xhi
0 95 ylo yhi
0 95 zlo zhi

Masses

1 58.7
2 55.8
3 52
4 59
5 26

Atoms # atomic

1 1 1.8049999999999997 41.515 46.93 0 0 0
2 1 1.8049999999999997 43.32 45.125 0 0 0
3 2 1.8049999999999997 45.125 43.32 0 0 0
5 1 1.8049999999999997 45.125 46.93 0 0 0
7 1 1.8049999999999997 46.93 41.515 0 0 0
8 3 1.8049999999999997 46.93 45.125 0 0 0
10 5 0 46.93 46.93 0 0 0
18 1 5.414999999999999 30.685000000000002 46.93 0 0 0
19 5 5.414999999999999 32.49 45.125 0 0 0
20 3 5.414999999999999 34.295 43.32 0 0 0
22 1 5.414999999999999 34.295 46.93 0 0 0
24 4 5.414999999999999 36.1 41.515 0 0 0
25 3 5.414999999999999 37.905 39.71 0 0 0
26 2 3.6099999999999994 37.905 45.125 0 0 0
27 5 5.414999999999999 36.1 45.125 0 0 0
28 2 5.414999999999999 37.905 43.32 0 0 0
29 3 3.6099999999999994 36.1 46.93 0 0 0
32 4 5.414999999999999 37.905 46.93 0 0 0
36 5 5.414999999999999 39.71 37.905 0 0 0
37 3 5.414999999999999 41.515 36.1 0 0 0
38 2 3.6099999999999994 41.515 41.515 0 0 0
39 4 5.414999999999999 39.71 41.515 0 0 0
40 1 5.414999999999999 41.515 39.71 0 0 0
41 1 3.6099999999999994 39.71 43.32 0 0 0
42 2 3.6099999999999994 41.515 45.125 0 0 0
43 2 5.414999999999999 39.71 45.125 0 0 0
44 1 5.414999999999999 41.515 43.32 0 0 0
45 2 3.6099999999999994 39.71 46.93 0 0 0
48 4 5.414999999999999 41.515 46.93 0 0 0
56 3 5.414999999999999 43.32 34.295 0 0 0
57 1 5.414999999999999 45.125 32.49 0 0 0
58 2 3.6099999999999994 45.125 37.905 0 0 0
59 3 5.414999999999999 43.32 37.905 0 0 0
60 1 5.414999999999999 45.125 36.1 0 0 0
61 4 3.6099999999999994 43.32 39.71 0 0 0
62 4 3.6099999999999994 45.125 41.515 0 0 0
63 4 5.414999999999999 43.32 41.515 0 0 0
64 3 5.414999999999999 45.125 39.71 0 0 0
65 3 3.6099999999999994 43.32 43.32 0 0 0
66 1 3.6099999999999994 45.125 45.125 0 0 0
67 4 5.414999999999999 43.32 45.125 0 0 0
68 4 5.414999999999999 45.125 43.32 0 0 0
69 1 3.6099999999999994 43.32 46.93 0 0 0
72 3 5.414999999999999 45.125 46.93 0 0 0
84 4 5.414999999999999 46.93 30.685000000000002 0 0 0
85 3 5.414999999999999 46.93 34.295 0 0 0
87 3 3.6099999999999994 46.93 36.1 0 0 0
89 1 5.414999999999999 46.93 37.905 0 0 0
91 2 3.6099999999999994 46.93 39.71 0 0 0
93 4 5.414999999999999 46.93 41.515 0 0 0
95 1 3.6099999999999994 46.93 43.32 0 0 0
97 3 5.414999999999999 46.93 45.125 0 0 0
99 2 3.6099999999999994 46.93 46.93 0 0 0
167 3 9.024999999999999 23.465 46.93 0 0 0
168 5 9.024999999999999 25.270000000000003 45.125 0 0 0
169 2 9.024999999999999 27.075 43.32 0 0 0
171 5 9.024999999999999 27.075 46.93 0 0 0
173 2 9.024999999999999 28.88 41.515 0 0 0
174 5 9.024999999999999 30.685000000000002 39.71 0 0 0
175 5 7.219999999999999 30.685000000000002 45.125 0 0 0
176 5 9.024999999999999 28.88 45.125 0 0 0
177 2 9.024999999999999 30.685000000000002 43.32 0 0 0
178 5 7.219999999999999 28.88 46.93 0 0 0
181 5 9.024999999999999 30.685000000000002 46.93 0 0 0
185 5 9.024999999999999 32.49 37.905 0 0 0
186 5 9.024999999999999 34.295 36.1 0 0 0
187 2 7.219999999999999 34.295 41.515 0 0 0
188 4 9.024999999999999 32.49 41.515 0 0 0
189 4 9.024999999999999 34.295 39.71 0 0 0
190 1 7.219999999999999 32.49 43.32 0 0 0
191 2 7.219999999999999 34.295 45.125 0 0 0
192 1 9.024999999999999 32.49 45.125 0 0 0
193 5 9.024999999999999 34.295 43.32 0 0 0
194 5 7.219999999999999 32.49 46.93 0 0 0
197 3 9.024999999999999 34.295 46.93 0 0 0
205 2 9.024999999999999 36.1 34.295 0 0 0
206 3 9.024999999999999 37.905 32.49 0 0 0
207 3 7.219999999999999 37.905 37.905 0 0 0
208 3 9.024999999999999 36.1 37.905 0 0 0
209 2 9.024999999999999 37.905 36.1 0 0 0
210 2 7.219999999999999 36.1 39.71 0 0 0
211 3 7.219999999999999 37.905 41.515 0 0 0
212 3 9.024999999999999 36.1 41.515 0 0 0
213 2 9.024999999999999 37.905 39.71 0 0 0
214 2 7.219999999999999 36.1 43.32 0 0 0
215 5 7.219999999999999 37.905 45.125 0 0 0
216 3 9.024999999999999 36.1 45.125 0 0 0
217 3 9.024999999999999 37.905 43.32 0 0 0
218 2 7.219999999999999 36.1 46.93 0 0 0
221 3 9.024999999999999 37.905 46.93 0 0 0
233 1 9.024999999999999 39.71 30.685000000000002 0 0 0
234 5 9.024999999999999 41.515 28.88 0 0 0
235 5 7.219999999999999 41.515 34.295 0 0 0
236 5 9.024999999999999 39.71 34.295 0 0 0
237 5 9.024999999999999 41.515 32.49 0 0 0
238 3 7.219999999999999 39.71 36.1 0 0 0
239 3 7.219999999999999 41.515 37.905 0 0 0
240 1 9.024999999999999 39.71 37.905 0 0 0
241 1 9.024999999999999 41.515 36.1 0 0 0
242 3 7.219999999999999 39.71 39.71 0 0 0
243 5 7.219999999999999 41.515 41.515 0 0 0
244 2 9.024999999999999 39.71 41.515 0 0 0
245 2 9.024999999999999 41.515 39.71 0 0 0
246 2 7.219999999999999 39.71 43.32 0 0 0
247 1 7.219999999999999 41.515 45.125 0 0 0
248 3 9.024999999999999 39.71 45.125 0 0 0
249 1 9.024999999999999 41.515 43.32 0 0 0
250 3 7.219999999999999 39.71 46.93 0 0 0
253 1 9.024999999999999 41.515 46.93 0 0 0
269 2 9.024999999999999 43.32 27.075 0 0 0
270 5 9.024999999999999 45.125 25.270000000000003 0 0 0
271 4 7.219999999999999 45.125 30.685000000000002 0 0 0
272 5 9.024999999999999 43.32 30.685000000000002 0 0 0
273 5 9.024999999999999 45.125 28.88 0 0 0
274 3 7.219999999999999 43.32 32.49 0 0 0
275 1 7.219999999999999 45.125 34.295 0 0 0
276 1 9.024999999999999 43.32 34.295 0 0 0
277 3 9.024999999999999 45.125 32.49 0 0 0
278 3 7.219999999999999 43.32 36.1 0 0 0
279 2 7.219999999999999 45.125 37.905 0 0 0
280 2 9.024999999999999 43.32 37.905 0 0 0
281 1 9.024999999999999 45.125 36.1 0 0 0
282 3 7.219999999999999 43.32 39.71 0 0 0
283 2 7.219999999999999 45.125 41.515 0 0 0
284 4 9.024999999999999 43.32 41.515 0 0 0
285 3 9.024999999999999 45.125 39.71 0 0 0
286 1 7.219999999999999 43.32 43.32 0 0 0
287 1 7.219999999999999 45.125 45.125 0 0 0
288 5 9.024999999999999 43.32 45.125 0 0 0
289 4 9.024999999999999 45.125 43.32 0 0 0
290 2 7.219999999999999 43.32 46.93 0 0 0
293 5 9.024999999999999 45.125 46.93 0 0 0
313 2 9.024999999999999 46.93 23.465 0 0 0
314 4 9.024999999999999 46.93 27.075 0 0 0
316 3 7.219999999999999 46.93 28.88 0 0 0
318 1 9.024999999999999 46.93 30.685000000000002 0 0 0
320 3 7.219999999999999 46.93 32.49 0 0 0
322 1 9.024999999999999 46.93 34.295 0 0 0
324 3 7.219999999999999 46.93 36.1 0 0 0
326 4 9.024999999999999 46.93 37.905 0 0 0
328 3 7.219999999999999 46.93 39.71 0 0 0
330 2 9.024999999999999 46.93 41.515 0 0 0
332 1 7.219999999999999 46.93 43.32 0 0 0
334 1 9.024999999999999 46.93 45.125 0 0 0
336 2 7.219999999999999 46.93 46.93 0 0 0
484 4 12.634999999999998 12.634999999999998 46.93 0 0 0
485 3 12.634999999999998 14.440000000000005 45.125 0 0 0
486 4 12.634999999999998 16.245 43.32 0 0 0
488 4 12.634999999999998 16.245 46.93 0 0 0
490 3 12.634999999999998 18.05 41.515 0 0 0
491 4 12.634999999999998 19.855 39.71 0 0 0
492 4 10.829999999999998 19.855 45.125 0 0 0
493 1 12.634999999999998 18.05 45.125 0 0 0
494 4 12.634999999999998 19.855 43.32 0 0 0
495 3 10.829999999999998 18.05 46.93 0 0 0
498 2 12.634999999999998 19.855 46.93 0 0 0
502 3 12.634999999999998 21.66 37.905 0 0 0
503 2 12.634999999999998 23.465 36.1 0 0 0
504 3 10.829999999999998 23.465 41.515 0 0 0
505 1 12.634999999999998 21.66 41.515 0 0 0
506 5 12.634999999999998 23.465 39.71 0 0 0
507 2 10.829999999999998 21.66 43.32 0 0 0
508 2 10.829999999999998 23.465 45.125 0 0 0
509 3 12.634999999999998 21.66 45.125 0 0 0
510 1 12.634999999999998 23.465 43.32 0 0 0
511 3 10.829999999999998 21.66 46.93 0 0 0
514 4 12.634999999999998 23.465 46.93 0 0 0
522 2 12.634999999999998 25.270000000000003 34.295 0 0 0
523 2 12.634999999999998 27.075 32.49 0 0 0
524 2 10.829999999999998 27.075 37.905 0 0 0
525 2 12.634999999999998 25.270000000000003 37.905 0 0 0
526 4 12.634999999999998 27.075 36.1 0 0 0
527 2 10.829999999999998 25.270000000000003 39.71 0 0 0
528 3 10.829999999999998 27.075 41.515 0 0 0
529 3 12.634999999999998 25.270000000000003 41.515 0 0 0
530 3 12.634999999999998 27.075 39.71 0 0 0
531 1 10.829999999999998 25.270000000000003 43.32 0 0 0
532 4 10.829999999999998 27.075 45.125 0 0 0
533 3 12.634999999999998 25.270000000000003 45.125 0 0 0
534 2 12.634999999999998 27.075 43.32 0 0 0
535 3 10.829999999999998 25.270000000000003 46.93 0 0 0
538 3 12.634999999999998 27.075 46.93 0 0 0
550 1 12.634999999999998 28.88 30.685000000000002 0 0 0
551 3 12.634999999999998 30.685000000000002 28.88 0 0 0
552 1 10.829999999999998 30.685000000000002 34.295 0 0 0
553 1 12.634999999999998 28.88 34.295 0 0 0
554 2 12.634999999999998 30.685000000000002 32.49 0 0 0
555 3 10.829999999999998 28.88 36.1 0 0 0
556 2 10.829999999999998 30.685000000000002 37.905 0 0 0
557 4 12.634999999999998 28.88 37.905 0 0 0
558 2 12.634999999999998 30.685000000000002 36.1 0 0 0
559 4 10.829999999999998 28.88 39.71 0 0 0
560 4 10.829999999999998 30.685000000000002 41.515 0 0 0
561 2 12.634999999999998 28.88 41.515 0 0 0
562 1 12.634999999999998 30.685000000000002 39.71 0 0 0
563 4 10.829999999999998 28.88 43.32 0 0 0
564 5 10.829999999999998 30.685000000000002 45.125 0 0 0
565 1 12.634999999999998 28.88 45.125 0 0 0
566 5 12.634999999999998 30.685000000000002 43.32 0 0 0
567 1 10.829999999999998 28.88 46.93 0 0 0
570 4 12.634999999999998 30.685000000000002 46.93 0 0 0
586 1 12.634999999999998 32.49 27.075 0 0 0
587 5 12.634999999999998 34.295 25.270000000000003 0 0 0
588 2 10.829999999999998 34.295 30.685000000000002 0 0 0
589 4 12.634999999999998 32.49 30.685000000000002 0 0 0
590 5 12.634999999999998 34.295 28.88 0 0 0
591 4 10.829999999999998 32.49 32.49 0 0 0
592 4 10.829999999999998 34.295 34.295 0 0 0
593 2 12.634999999999998 32.49 34.295 0 0 0
594 4 12.634999999999998 34.295 32.49 0 0 0
595 3 10.829999999999998 32.49 36.1 0 0 0
596 1 10.829999999999998 34.295 37.905 0 0 0
597 2 12.634999999999998 32.49 37.905 0 0 0
598 3 12.634999999999998 34.295 36.1 0 0 0
599 2 10.829999999999998 32.49 39.71 0 0 0
600 4 10.829999999999998 34.295 41.515 0 0 0
601 3 12.634999999999998 32.49 41.515 0 0 0
602 5 12.634999999999998 34.295 39.71 0 0 0
603 3 10.829999999999998 32.49 43.32 0 0 0
604 3 10.829999999999998 34.295 45.125 0 0 0
605 3 12.634999999999998 32.49 45.125 0 0 0
606 1 12.634999999999998 34.295 43.32 0 0 0
607 2 10.829999999999998 32.49 46.93 0 0 0
610 2 12.634999999999998 34.295 46.93 0 0 0
630 1 12.634999999999998 36.1 23.465 0 0 0
631 5 12.634999999999998 37.905 21.66 0 0 0
632 4 10.829999999999998 37.905 27.075 0 0 0
633 4 12.634999999999998 36.1 27.075 0 0 0
634 1 12.634999999999998 37.905 25.270000000000003 0 0 0
635 3 10.829999999999998 36.1 28.88 0 0 0
636 2 10.829999999999998 37.905 30.685000000000002 0 0 0
637 5 12.634999999999998 36.1 30.685000000000002 0 0 0
638 3 12.634999999999998 37.905 28.88 0 0 0
639 5 10.829999999999998 36.1 32.49 0 0 0
640 5 10.829999999999998 37.905 34.295 0 0 0
641 5 12.634999999999998 36.1 34.295 0 0 0
642 1 12.634999999999998 37.905 32.49 0 0 0
643 1 10.829999999999998 36.1 36.1 0 0 0
644 4 10.829999999999998 37.905 37.905 0 0 0
645 5 12.634999999999998 36.1 37.905 0 0 0
646 5 12.634999999999998 37.905 36.1 0 0 0
647 5 10.829999999999998 36.1 39.71 0 0 0
648 5 10.829999999999998 37.905 41.515 0 0 0
649 2 12.634999999999998 36.1 41.515 0 0 0
650 4 12.634999999999998 37.905 39.71 0 0 0
651 2 10.829999999999998 36.1 43.32 0 0 0
652 2 10.829999999999998 37.905 45.125 0 0 0
653 2 12.634999999999998 36.1 45.125 0 0 0
654 5 12.634999999999998 37.905 43.32 0 0 0
655 1 10.829999999999998 36.1 46.93 0 0 0
658 4 12.634999999999998 37.905 46.93 0 0 0
682 3 12.634999999999998 39.71 19.855 0 0 0
683 2 12.634999999999998 41.515 18.05 0 0 0
684 3 10.829999999999998 41.515 23.465 0 0 0
685 2 12.634999999999998 39.71 23.465 0 0 0
686 3 12.634999999999998 41.515 21.66 0 0 0
687 1 10.829999999999998 39.71 25.270000000000003 0 0 0
688 4 10.829999999999998 41.515 27.075 0 0 0
689 3 12.634999999999998 39.71 27.075 0 0 0
690 4 12.634999999999998 41.515 25.270000000000003 0 0 0
691 5 10.829999999999998 39.71 28.88 0 0 0
692 1 10.829999999999998 41.515 30.685000000000002 0 0 0
693 5 12.634999999999998 39.71 30.685000000000002 0 0 0
694 1 12.634999999999998 41.515 28.88 0 0 0
695 5 10.829999999999998 39.71 32.49 0 0 0
696 3 10.829999999999998 41.515 34.295 0 0 0
697 1 12.634999999999998 39.71 34.295 0 0 0
698 1 12.634999999999998 41.515 32.49 0 0 0
699 3 10.829999999999998 39.71 36.1 0 0 0
700 2 10.829999999999998 41.515 37.905 0 0 0
701 4 12.634999999999998 39.71 37.905 0 0 0
702 1 12.634999999999998 41.515 36.1 0 0 0
703 2 10.829999999999998 39.71 39.71 0 0 0
704 5 10.829999999999998 41.515 41.515 0 0 0
705 5 12.634999999999998 39.71 41.515 0 0 0
706 4 12.634999999999998 41.515 39.71 0 0 0
707 3 10.829999999999998 39.71 43.32 0 0 0
708 2 10.829999999999998 41.515 45.125 0 0 0
709 3 12.634999999999998 39.71 45.125 0 0 0
710 4 12.634999999999998 41.515 43.32 0 0 0
711 2 10.829999999999998 39.71 46.93 0 0 0
714 3 12.634999999999998 41.515 46.93 0 0 0
742 5 12.634999999999998 43.32 16.245 0 0 0
743 4 12.634999999999998 45.125 14.440000000000005 0 0 0
744 5 10.829999999999998 45.125 19.855 0 0 0
745 2 12.634999999999998 43.32 19.855 0 0 0
746 4 12.634999999999998 45.125 18.05 0 0 0
747 1 10.829999999999998 43.32 21.66 0 0 0
748 2 10.829999999999998 45.125 23.465 0 0 0
749 3 12.634999999999998 43.32 23.465 0 0 0
750 5 12.634999999999998 45.125 21.66 0 0 0
751 3 10.829999999999998 43.32 25.270000000000003 0 0 0
752 3 10.829999999999998 45.125 27.075 0 0 0
753 1 12.634999999999998 43.32 27.075 0 0 0
754 2 12.634999999999998 45.125 25.270000000000003 0 0 0
755 1 10.829999999999998 43.32 28.88 0 0 0
756 5 10.829999999999998 45.125 30.685000000000002 0 0 0
757 1 12.634999999999998 43.32 30.685000000000002 0 0 0
758 2 12.634999999999998 45.125 28.88 0 0 0
759 1 10.829999999999998 43.32 32.49 0 0 0
760 4 10.829999999999998 45.125 34.295 0 0 0
761 1 12.634999999999998 43.32 34.295 0 0 0
762 1 12.634999999999998 45.125 32.49 0 0 0
763 4 10.829999999999998 43.32 36.1 0 0 0
764 4 10.829999999999998 45.125 37.905 0 0 0
765 5 12.634999999999998 43.32 37.905 0 0 0
766 5 12.634999999999998 45.125 36.1 0 0 0
767 2 10.829999999999998 43.32 39.71 0 0 0
768 3 10.829999999999998 45.125 41.515 0 0 0
769 1 12.634999999999998 43.32 41.515 0 0 0
770 2 12.634999999999998 45.125 39.71 0 0 0
771 5 10.829999999999998 43.32 43.32 0 0 0
772 3 10.829999999999998 45.125 45.125 0 0 0
773 5 12.634999999999998 43.32 45.125 0 0 0
774 1 12.634999999999998 45.125 43.32 0 0 0
775 1 10.829999999999998 43.32 46.93 0 0 0
778 1 12.634999999999998 45.125 46.93 0 0 0
810 2 12.634999999999998 46.93 12.634999999999998 0 0 0
811 1 12.634999999999998 46.93 16.245 0 0 0
813 1 10.829999999999998 46.93 18.05 0 0 0
815 4 12.634999999999998 46.93 19.855 0 0 0
817 2 10.829999999999998 46.93 21.66 0 0 0
819 1 12.634999999999998 46.93 23.465 0 0 0
821 4 10.829999999999998 46.93 25.270000000000003 0 0 0
823 1 12.634999999999998 46.93 27.075 0 0 0
825 3 10.829999999999998 46.93 28.88 0 0 0
827 4 12.634999999999998 46.93 30.685000000000002 0 0 0
829 2 10.829999999999998 46.93 32.49 0 0 0
831 5 12.634999999999998 46.93 34.295 0 0 0
833 5 10.829999999999998 46.93 36.1 0 0 0
835 2 12.634999999999998 46.93 37.905 0 0 0
837 4 10.829999999999998 46.93 39.71 0 0 0
839 2 12.634999999999998 46.93 41.515 0 0 0
841 1 10.829999999999998 46.93 43.32 0 0 0
843 1 12.634999999999998 46.93 45.125 0 0 0
845 1 10.829999999999998 46.93 46.93 0 0 0
1173 1 14.440000000000005 12.634999999999998 45.125 0 0 0
1174 1 16.245 12.634999999999998 43.32 0 0 0
1176 1 16.245 12.634999999999998 46.93 0 0 0
1178 3 16.245 16.245 36.1 0 0 0
1179 2 14.440000000000005 16.245 41.515 0 0 0
1180 2 16.245 14.440000000000005 41.515 0 0 0
1181 2 16.245 16.245 39.71 0 0 0
1182 4 14.440000000000005 14.440000000000005 43.32 0 0 0
1183 1 14.440000000000005 16.245 45.125 0 0 0
1184 5 16.245 14.440000000000005 45.125 0 0 0
1185 2 16.245 16.245 43.32 0 0 0
1186 1 14.440000000000005 14.440000000000005 46.93 0 0 0
1189 5 16.245 16.245 46.93 0 0 0
1196 2 16.245 18.05 34.295 0 0 0
1197 2 16.245 19.855 32.49 0 0 0
1198 4 14.440000000000005 19.855 37.905 0 0 0
1199 5 16.245 18.05 37.905 0 0 0
1200 4 16.245 19.855 36.1 0 0 0
1201 4 14.440000000000005 18.05 39.71 0 0 0
1202 1 14.440000000000005 19.855 41.515 0 0 0
1203 4 16.245 18.05 41.515 0 0 0
1204 1 16.245 19.855 39.71 0 0 0
1205 1 14.440000000000005 18.05 43.32 0 0 0
1206 1 14.440000000000005 19.855 45.125 0 0 0
1207 1 16.245 18.05 45.125 0 0 0
1208 3 16.245 19.855 43.32 0 0 0
1209 3 14.440000000000005 18.05 46.93 0 0 0
1212 2 16.245 19.855 46.93 0 0 0
1224 5 16.245 21.66 30.685000000000002 0 0 0
1225 3 16.245 23.465 28.88 0 0 0
1226 5 14.440000000000005 23.465 34.295 0 0 0
1227 1 16.245 21.66 34.295 0 0 0
1228 4 16.245 23.465 32.49 0 0 0
1229 1 14.440000000000005 21.66 36.1 0 0 0
1230 4 14.440000000000005 23.465 37.905 0 0 0
1231 3 16.245 21.66 37.905 0 0 0
1232 5 16.245 23.465 36.1 0 0 0
1233 1 14.440000000000005 21.66 39.71 0 0 0
1234 2 14.440000000000005 23.465 41.515 0 0 0
1235 2 16.245 21.66 41.515 0 0 0
1236 5 16.245 23.465 39.71 0 0 0
1237 3 14.440000000000005 21.66 43.32 0 0 0
1238 5 14.440000000000005 23.465 45.125 0 0 0
1239 2 16.245 21.66 45.125 0 0 0
1240 4 16.245 23.465 43.32 0 0 0
1241 4 14.440000000000005 21.66 46.93 0 0 0
1244 5 16.245 23.465 46.93 0 0 0
1260 5 16.245 25.270000000000003 27.075 0 0 0
1261 1 16.245 27.075 25.270000000000003 0 0 0
1262 2 14.440000000000005 27.075 30.685000000000002 0 0 0
1263 2 16.245 25.270000000000003 30.685000000000002 0 0 0
1264 2 16.245 27.075 28.88 0 0 0
1265 1 14.440000000000005 25.270000000000003 32.49 0 0 0
1266 4 14.440000000000005 27.075 34.295 0 0 0
1267 1 16.245 25.270000000000003 34.295 0 0 0
1268 4 16.245 27.075 32.49 0 0 0
1269 3 14.440000000000005 25.270000000000003 36.1 0 0 0
1270 1 14.440000000000005 27.075 37.905 0 0 0
1271 4 16.245 25.270000000000003 37.905 0 0 0
1272 2 16.245 27.075 36.1 0 0 0
1273 4 14.440000000000005 25.270000000000003 39.71 0 0 0
1274 1 14.440000000000005 27.075 41.515 0 0 0
1275 5 16.245 25.270000000000003 41.515 0 0 0
1276 5 16.245 27.075 39.71 0 0 0
1277 5 14.440000000000005 25.270000000000003 43.32 0 0 0
1278 3 14.440000000000005 27.075 45.125 0 0 0
1279 5 16.245 25.270000000000003 45.125 0 0 0
1280 2 16.245 27.075 43.32 0 0 0
1281 3 14.440000000000005 25.270000000000003 46.93 0 0 0
1284 2 16.245 27.075 46.93 0 0 0
1304 1 16.245 28.88 23.465 0 0 0
1305 4 16.245 30.685000000000002 21.66 0 0 0
1306 2 14.440000000000005 30.685000000000002 27.075 0 0 0
1307 2 16.245 28.88 27.075 0 0 0
1308 4 16.245 30.685000000000002 25.270000000000003 0 0 0
1309 5 14.440000000000005 28.88 28.88 0 0 0
1310 5 14.440000000000005 30.685000000000002 30.685000000000002 0 0 0
1311 4 16.245 28.88 30.685000000000002 0 0 0
1312 5 16.245 30.685000000000002 28.88 0 0 0
1313 1 14.440000000000005 28.88 32.49 0 0 0
1314 4 14.440000000000005 30.685000000000002 34.295 0 0 0
1315 3 16.245 28.88 34.295 0 0 0
1316 1 16.245 30.685000000000002 32.49 0 0 0
1317 3 14.440000000000005 28.88 36.1 0 0 0
1318 4 14.440000000000005 30.685000000000002 37.905 0 0 0
1319 5 16.245 28.88 37.905 0 0 0
1320 2 16.245 30.685000000000002 36.1 0 0 0
1321 1 14.440000000000005 28.88 39.71 0 0 0
1322 5 14.440000000000005 30.685000000000002 41.515 0 0 0
1323 1 16.245 28.88 41.515 0 0 0
1324 5 16.245 30.685000000000002 39.71 0 0 0
1325 1 14.440000000000005 28.88 43.32 0 0 0
1326 3 14.440000000000005 30.685000000000002 45.125 0 0 0
1327 5 16.245 28.88 45.125 0 0 0
1328 2 16.245 30.685000000000002 43.32 0 0 0
1329 1 14.440000000000005 28.88 46.93 0 0 0
1332 1 16.245 30.685000000000002 46.93 0 0 0
1356 3 16.245 32.49 19.855 0 0 0
1357 2 16.245 34.295 18.05 0 0 0
1358 1 14.440000000000005 34.295 23.465 0 0 0
1359 1 16.245 32.49 23.465 0 0 0
1360 5 16.245 34.295 21.66 0 0 0
1361 3 14.440000000000005 32.49 25.270000000000003 0 0 0
1362 1 14.440000000000005 34.295 27.075 0 0 0
1363 2 16.245 32.49 27.075 0 0 0
1364 1 16.245 34.295 25.270000000000003 0 0 0
1365 1 14.440000000000005 32.49 28.88 0 0 0
1366 1 14.440000000000005 34.295 30.685000000000002 0 0 0
1367 5 16.245 32.49 30.685000000000002 0 0 0
1368 1 16.245 34.295 28.88 0 0 0
1369 3 14.440000000000005 32.49 32.49 0 0 0
1370 4 14.440000000000005 34.295 34.295 0 0 0
1371 1 16.245 32.49 34.295 0 0 0
1372 1 16.245 34.295 32.49 0 0 0
1373 2 14.440000000000005 32.49 36.1 0 0 0
1374 3 14.440000000000005 34.295 37.905 0 0 0
1375 1 16.245 32.49 37.905 0 0 0
1376 5 16.245 34.295 36.1 0 0 0
1377 5 14.440000000000005 32.49 39.71 0 0 0
1378 3 14.440000000000005 34.295 41.515 0 0 0
1379 4 16.245 32.49 41.515 0 0 0
1380 5 16.245 34.295 39.71 0 0 0
1381 5 14.440000000000005 32.49 43.32 0 0 0
1382 2 14.440000000000005 34.295 45.125 0 0 0
1383 1 16.245 32.49 45.125 0 0 0
1384 5 16.245 34.295 43.32 0 0 0
1385 4 14.440000000000005 32.49 46.93 0 0 0
1388 4 16.245 34.295 46.93 0 0 0
1416 3 16.245 36.1 16.245 0 0 0
1417 2 14.440000000000005 37.905 19.855 0 0 0
1418 3 16.245 36.1 19.855 0 0 0
1419 1 16.245 37.905 18.05 0 0 0
1420 5 14.440000000000005 36.1 21.66 0 0 0
1421 4 14.440000000000005 37.905 23.465 0 0 0
1422 5 16.245 36.1 23.465 0 0 0
1423 3 16.245 37.905 21.66 0 0 0
1424 2 14.440000000000005 36.1 25.270000000000003 0 0 0
1425 1 14.440000000000005 37.905 27.075 0 0 0
1426 3 16.245 36.1 27.075 0 0 0
1427 2 16.245 37.905 25.270000000000003 0 0 0
1428 2 14.440000000000005 36.1 28.88 0 0 0
1429 1 14.440000000000005 37.905 30.685000000000002 0 0 0
1430 3 16.245 36.1 30.685000000000002 0 0 0
1431 2 16.245 37.905 28.88 0 0 0
1432 4 14.440000000000005 36.1 32.49 0 0 0
1433 5 14.440000000000005 37.905 34.295 0 0 0
1434 5 16.245 36.1 34.295 0 0 0
1435 2 16.245 37.905 32.49 0 0 0
1436 2 14.440000000000005 36.1 36.1 0 0 0
1437 5 14.440000000000005 37.905 37.905 0 0 0
1438 4 16.245 36.1 37.905 0 0 0
1439 2 16.245 37.905 36.1 0 0 0
1440 3 14.440000000000005 36.1 39.71 0 0 0
1441 1 14.440000000000005 37.905 41.515 0 0 0
1442 2 16.245 36.1 41.515 0 0 0
1443 4 16.245 37.905 39.71 0 0 0
1444 2 14.440000000000005 36.1 43.32 0 0 0
1445 5 14.440000000000005 37.905 45.125 0 0 0
1446 2 16.245 36.1 45.125 0 0 0
1447 2 16.245 37.905 43.32 0 0 0
1448 4 14.440000000000005 36.1 46.93 0 0 0
1451 3 16.245 37.905 46.93 0 0 0
1482 2 14.440000000000005 41.515 16.245 0 0 0
1483 5 16.245 39.71 16.245 0 0 0
1484 3 16.245 41.515 14.440000000000005 0 0 0
1485 3 14.440000000000005 39.71 18.05 0 0 0
1486 5 14.440000000000005 41.515 19.855 0 0 0
1487 5 16.245 39.71 19.855 0 0 0
1488 1 16.245 41.515 18.05 0 0 0
1489 5 14.440000000000005 39.71 21.66 0 0 0
1490 1 14.440000000000005 41.515 23.465 0 0 0
1491 3 16.245 39.71 23.465 0 0 0
1492 1 16.245 41.515 21.66 0 0 0
1493 5 14.440000000000005 39.71 25.270000000000003 0 0 0
1494 1 14.440000000000005 41.515 27.075 0 0 0
1495 4 16.245 39.71 27.075 0 0 0
1496 3 16.245 41.515 25.270000000000003 0 0 0
1497 4 14.440000000000005 39.71 28.88 0 0 0
1498 5 14.440000000000005 41.515 30.685000000000002 0 0 0
1499 5 16.245 39.71 30.685000000000002 0 0 0
1500 5 16.245 41.515 28.88 0 0 0
1501 3 14.440000000000005 39.71 32.49 0 0 0
1502 1 14.440000000000005 41.515 34.295 0 0 0
1503 3 16.245 39.71 34.295 0 0 0
1504 1 16.245 41.515 32.49 0 0 0
1505 1 14.440000000000005 39.71 36.1 0 0 0
1506 4 14.440000000000005 41.515 37.905 0 0 0
1507 4 16.245 39.71 37.905 0 0 0
1508 5 16.245 41.515 36.1 0 0 0
1509 3 14.440000000000005 39.71 39.71 0 0 0
1510 1 14.440000000000005 41.515 41.515 0 0 0
1511 1 16.245 39.71 41.515 0 0 0
1512 5 16.245 41.515 39.71 0 0 0
1513 1 14.440000000000005 39.71 43.32 0 0 0
1514 1 14.440000000000005 41.515 45.125 0 0 0
1515 5 16.245 39.71 45.125 0 0 0
1516 5 16.245 41.515 43.32 0 0 0
1517 2 14.440000000000005 39.71 46.93 0 0 0
1520 1 16.245 41.515 46.93 0 0 0
1554 1 14.440000000000005 45.125 12.634999999999998 0 0 0
1555 3 16.245 43.32 12.634999999999998 0 0 0
1556 1 14.440000000000005 43.32 14.440000000000005 0 0 0
1557 5 14.440000000000005 45.125 16.245 0 0 0
1558 5 16.245 43.32 16.245 0 0 0
1559 2 16.245 45.125 14.440000000000005 0 0 0
1560 1 14.440000000000005 43.32 18.05 0 0 0
1561 3 14.440000000000005 45.125 19.855 0 0 0
1562 2 16.245 43.32 19.855 0 0 0
1563 4 16.245 45.125 18.05 0 0 0
1564 3 14.440000000000005 43.32 21.66 0 0 0
1565 3 14.440000000000005 45.125 23.465 0 0 0
1566 2 16.245 43.32 23.465 0 0 0
1567 5 16.245 45.125 21.66 0 0 0
1568 1 14.440000000000005 43.32 25.270000000000003 0 0 0
1569 3 14.440000000000005 45.125 27.075 0 0 0
1570 4 16.245 43.32 27.075 0 0 0
1571 4 16.245 45.125 25.270000000000003 0 0 0
1572 2 14.440000000000005 43.32 28.88 0 0 0
1573 4 14.440000000000005 45.125 30.685000000000002 0 0 0
1574 3 16.245 43.32 30.685000000000002 0 0 0
1575 3 16.245 45.125 28.88 0 0 0
1576 1 14.440000000000005 43.32 32.49 0 0 0
1577 3 14.440000000000005 45.125 34.295 0 0 0
1578 3 16.245 43.32 34.295 0 0 0
1579 5 16.245 45.125 32.49 0 0 0
1580 4 14.440000000000005 43.32 36.1 0 0 0
1581 4 14.440000000000005 45.125 37.905 0 0 0
1582 5 16.245 43.32 37.905 0 0 0
1583 5 16.245 45.125 36.1 0 0 0
1584 1 14.440000000000005 43.32 39.71 0 0 0
1585 5 14.440000000000005 45.125 41.515 0 0 0
1586 3 16.245 43.32 41.515 0 0 0
1587 3 16.245 45.125 39.71 0 0 0
1588 1 14.440000000000005 43.32 43.32 0 0 0
1589 2 14.440000000000005 45.125 45.125 0 0 0
1590 5 16.245 43.32 45.125 0 0 0
1591 3 16.245 45.125 43.32 0 0 0
1592 4 14.440000000000005 43.32 46.93 0 0 0
1595 1 16.245 45.125 46.93 0 0 0
1633 5 16.245 46.93 12.634999999999998 0 0 0
1634 1 14.440000000000005 46.93 14.440000000000005 0 0 0
1636 3 16.245 46.93 16.245 0 0 0
1638 5 14.440000000000005 46.93 18.05 0 0 0
1640 1 16.245 46.93 19.855 0 0 0
1642 5 14.440000000000005 46.93 21.66 0 0 0
1644 2 16.245 46.93 23.465 0 0 0
1646 2 14.440000000000005 46.93 25.270000000000003 0 0 0
1648 3 16.245 46.93 27.075 0 0 0
1650 2 14.440000000000005 46.93 28.88 0 0 0
1652 5 16.245 46.93 30.685000000000002 0 0 0
1654 2 14.440000000000005 46.93 32.49 0 0 0
1656 5 16.245 46.93 34.295 0 0 0
1658 3 14.440000000000005 46.93 36.1 0 0 0
1660 2 16.245 46.93 37.905 0 0 0
1662 3 14.440000000000005 46.93 39.71 0 0 0
1664 3 16.245 46.93 41.515 0 0 0
1666 3 14.440000000000005 46.93 43.32 0 0 0
1668 2 16.245 46.93 45.125 0 0 0
1670 2 14.440000000000005 46.93 46.93 0 0 0
2130 1 18.05 12.634999999999998 41.515 0 0 0
2131 5 19.855 12.634999999999998 39.71 0 0 0
2132 3 18.05 12.634999999999998 45.125 0 0 0
2133 4 19.855 10.829999999999998 45.125 0 0 0
2134 2 19.855 12.634999999999998 43.32 0 0 0
2135 5 18.05 10.829999999999998 46.93 0 0 0
2138 5 19.855 12.634999999999998 46.93 0 0 0
2142 5 18.05 16.245 34.295 0 0 0
2143 3 19.855 16.245 32.49 0 0 0
2144 1 18.05 16.245 37.905 0 0 0
2145 3 19.855 14.440000000000005 37.905 0 0 0
2146 3 19.855 16.245 36.1 0 0 0
2147 1 18.05 14.440000000000005 39.71 0 0 0
2148 2 18.05 16.245 41.515 0 0 0
2149 2 19.855 14.440000000000005 41.515 0 0 0
2150 1 19.855 16.245 39.71 0 0 0
2151 1 18.05 14.440000000000005 43.32 0 0 0
2152 5 18.05 16.245 45.125 0 0 0
2153 2 19.855 14.440000000000005 45.125 0 0 0
2154 4 19.855 16.245 43.32 0 0 0
2155 1 18.05 14.440000000000005 46.93 0 0 0
2158 3 19.855 16.245 46.93 0 0 0
2170 5 19.855 19.855 21.66 0 0 0
2171 4 18.05 19.855 27.075 0 0 0
2172 2 19.855 18.05 27.075 0 0 0
2173 3 19.855 19.855 25.270000000000003 0 0 0
2174 3 18.05 18.05 28.88 0 0 0
2175 5 18.05 19.855 30.685000000000002 0 0 0
2176 3 19.855 18.05 30.685000000000002 0 0 0
2177 3 19.855 19.855 28.88 0 0 0
2178 1 18.05 18.05 32.49 0 0 0
2179 4 18.05 19.855 34.295 0 0 0
2180 5 19.855 18.05 34.295 0 0 0
2181 2 19.855 19.855 32.49 0 0 0
2182 1 18.05 18.05 36.1 0 0 0
2183 3 18.05 19.855 37.905 0 0 0
2184 2 19.855 18.05 37.905 0 0 0
2185 5 19.855 19.855 36.1 0 0 0
2186 4 18.05 18.05 39.71 0 0 0
2187 5 18.05 19.855 41.515 0 0 0
2188 5 19.855 18.05 41.515 0 0 0
2189 2 19.855 19.855 39.71 0 0 0
2190 2 18.05 18.05 43.32 0 0 0
2191 4 18.05 19.855 45.125 0 0 0
2192 3 19.855 18.05 45.125 0 0 0
2193 4 19.855 19.855 43.32 0 0 0
2194 5 18.05 18.05 46.93 0 0 0
2197 5 19.855 19.855 46.93 0 0 0
2220 2 19.855 21.66 19.855 0 0 0
2221 4 18.05 23.465 23.465 0 0 0
2222 5 19.855 21.66 23.465 0 0 0
2223 4 19.855 23.465 21.66 0 0 0
2224 5 18.05 21.66 25.270000000000003 0 0 0
2225 4 18.05 23.465 27.075 0 0 0
2226 2 19.855 21.66 27.075 0 0 0
2227 4 19.855 23.465 25.270000000000003 0 0 0
2228 4 18.05 21.66 28.88 0 0 0
2229 5 18.05 23.465 30.685000000000002 0 0 0
2230 1 19.855 21.66 30.685000000000002 0 0 0
2231 4 19.855 23.465 28.88 0 0 0
2232 1 18.05 21.66 32.49 0 0 0
2233 1 18.05 23.465 34.295 0 0 0
2234 2 19.855 21.66 34.295 0 0 0
2235 1 19.855 23.465 32.49 0 0 0
2236 1 18.05 21.66 36.1 0 0 0
2237 3 18.05 23.465 37.905 0 0 0
2238 2 19.855 21.66 37.905 0 0 0
2239 2 19.855 23.465 36.1 0 0 0
2240 1 18.05 21.66 39.71 0 0 0
2241 4 18.05 23.465 41.515 0 0 0
2242 4 19.855 21.66 41.515 0 0 0
2243 3 19.855 23.465 39.71 0 0 0
2244 2 18.05 21.66 43.32 0 0 0
2245 1 18.05 23.465 45.125 0 0 0
2246 5 19.855 21.66 45.125 0 0 0
2247 4 19.855 23.465 43.32 0 0 0
2248 1 18.05 21.66 46.93 0 0 0
2251 5 19.855 23.465 46.93 0 0 0
2278 3 18.05 27.075 19.855 0 0 0
2279 3 19.855 25.270000000000003 19.855 0 0 0
2280 5 19.855 27.075 18.05 0 0 0
2281 1 18.05 25.270000000000003 21.66 0 0 0
2282 4 18.05 27.075 23.465 0 0 0
2283 5 19.855 25.270000000000003 23.465 0 0 0
2284 5 19.855 27.075 21.66 0 0 0
2285 1 18.05 25.270000000000003 25.270000000000003 0 0 0
2286 5 18.05 27.075 27.075 0 0 0
2287 2 19.855 25.270000000000003 27.075 0 0 0
2288 4 19.855 27.075 25.270000000000003 0 0 0
2289 2 18.05 25.270000000000003 28.88 0 0 0
2290 1 18.05 27.075 30.685000000000002 0 0 0
2291 1 19.855 25.270000000000003 30.685000000000002 0 0 0
2292 2 19.855 27.075 28.88 0 0 0
2293 1 18.05 25.270000000000003 32.49 0 0 0
2294 5 18.05 27.075 34.295 0 0 0
2295 1 19.855 25.270000000000003 34.295 0 0 0
2296 4 19.855 27.075 32.49 0 0 0
2297 1 18.05 25.270000000000003 36.1 0 0 0
2298 3 18.05 27.075 37.905 0 0 0
2299 5 19.855 25.270000000000003 37.905 0 0 0
2300 3 19.855 27.075 36.1 0 0 0
2301 5 18.05 25.270000000000003 39.71 0 0 0
2302 5 18.05 27.075 41.515 0 0 0
2303 2 19.855 25.270000000000003 41.515 0 0 0
2304 3 19.855 27.075 39.71 0 0 0
2305 3 18.05 25.270000000000003 43.32 0 0 0