model_files/CuAu/CuAu_30000/CuAu_541/CuAu_541_fcc_30387_temp.data (written by ASE) 

30387 	 atoms 
2  atom types
0.0                     112  xlo xhi
0.0                     112  ylo yhi
0.0                     112  zlo zhi


Atoms 

     1   1      1.8699999999999972      54.229999999999997      56.100000000000001
     2   1      1.8699999999999972      56.100000000000001      54.229999999999997
     3   1                       0      56.100000000000001      56.100000000000001
     4   1      1.8699999999999972      56.100000000000001      57.969999999999992
     5   1      1.8699999999999972      57.969999999999992      56.100000000000001
     6   1      5.6099999999999985      50.489999999999995      52.359999999999999
     7   1      5.6099999999999985      50.489999999999995      56.100000000000001
     8   1      5.6099999999999985      50.489999999999995      59.839999999999996
     9   1      5.6099999999999985      52.359999999999999      50.489999999999995
    10   1       3.740000000000002      52.359999999999999      52.359999999999999
    11   1       3.740000000000002      54.229999999999997      54.229999999999997
    12   1      5.6099999999999985      52.359999999999999      54.229999999999997
    13   1      5.6099999999999985      54.229999999999997      52.359999999999999
    14   1       3.740000000000002      52.359999999999999      56.100000000000001
    15   1       3.740000000000002      54.229999999999997      57.969999999999992
    16   1      5.6099999999999985      52.359999999999999      57.969999999999992
    17   1      5.6099999999999985      54.229999999999997      56.100000000000001
    18   1       3.740000000000002      52.359999999999999      59.839999999999996
    19   1      5.6099999999999985      52.359999999999999      61.710000000000001
    20   1      5.6099999999999985      54.229999999999997      59.839999999999996
    21   1      5.6099999999999985      56.100000000000001      50.489999999999995
    22   1       3.740000000000002      56.100000000000001      52.359999999999999
    23   1       3.740000000000002      57.969999999999992      54.229999999999997
    24   1      5.6099999999999985      56.100000000000001      54.229999999999997
    25   1      5.6099999999999985      57.969999999999992      52.359999999999999
    26   1       3.740000000000002      56.100000000000001      56.100000000000001
    27   1       3.740000000000002      57.969999999999992      57.969999999999992
    28   1      5.6099999999999985      56.100000000000001      57.969999999999992
    29   1      5.6099999999999985      57.969999999999992      56.100000000000001
    30   1       3.740000000000002      56.100000000000001      59.839999999999996
    31   1      5.6099999999999985      56.100000000000001      61.710000000000001
    32   1      5.6099999999999985      57.969999999999992      59.839999999999996
    33   1      5.6099999999999985      59.839999999999996      50.489999999999995
    34   1       3.740000000000002      59.839999999999996      52.359999999999999
    35   1      5.6099999999999985      59.839999999999996      54.229999999999997
    36   1      5.6099999999999985      61.710000000000001      52.359999999999999
    37   1       3.740000000000002      59.839999999999996      56.100000000000001
    38   1      5.6099999999999985      59.839999999999996      57.969999999999992
    39   1      5.6099999999999985      61.710000000000001      56.100000000000001
    40   1       3.740000000000002      59.839999999999996      59.839999999999996
    41   1      5.6099999999999985      59.839999999999996      61.710000000000001
    42   1      5.6099999999999985      61.710000000000001      59.839999999999996
    43   1      9.3500000000000014      46.749999999999993      48.619999999999997
    44   1      9.3500000000000014      44.879999999999995      54.229999999999997
    45   1      9.3500000000000014      46.749999999999993      52.359999999999999
    46   1      9.3500000000000014      44.879999999999995      57.969999999999992
    47   1      9.3500000000000014      46.749999999999993      56.100000000000001
    48   1      9.3500000000000014      46.749999999999993      59.839999999999996
    49   1      9.3500000000000014      46.749999999999993      63.580000000000005
    50   1      9.3500000000000014      48.619999999999997      46.749999999999993
    51   1      7.4799999999999969      48.619999999999997      48.619999999999997
    52   1      7.4799999999999969      50.489999999999995      50.489999999999995
    53   1      9.3500000000000014      48.619999999999997      50.489999999999995
    54   1      9.3500000000000014      50.489999999999995      48.619999999999997
    55   1      7.4799999999999969      48.619999999999997      52.359999999999999
    56   1      7.4799999999999969      50.489999999999995      54.229999999999997
    57   1      9.3500000000000014      48.619999999999997      54.229999999999997
    58   1      9.3500000000000014      50.489999999999995      52.359999999999999
    59   1      7.4799999999999969      48.619999999999997      56.100000000000001
    60   1      7.4799999999999969      50.489999999999995      57.969999999999992
    61   1      9.3500000000000014      48.619999999999997      57.969999999999992
    62   1      9.3500000000000014      50.489999999999995      56.100000000000001
    63   1      7.4799999999999969      48.619999999999997      59.839999999999996
    64   1      7.4799999999999969      50.489999999999995      61.710000000000001
    65   1      9.3500000000000014      48.619999999999997      61.710000000000001
    66   1      9.3500000000000014      50.489999999999995      59.839999999999996
    67   1      7.4799999999999969      48.619999999999997      63.580000000000005
    68   1      9.3500000000000014      48.619999999999997      65.450000000000003
    69   1      9.3500000000000014      50.489999999999995      63.580000000000005
    70   1      9.3500000000000014      52.359999999999999      46.749999999999993
    71   1      9.3500000000000014      54.229999999999997      44.879999999999995
    72   1      7.4799999999999969      52.359999999999999      48.619999999999997
    73   1      7.4799999999999969      54.229999999999997      50.489999999999995
    74   1      9.3500000000000014      52.359999999999999      50.489999999999995
    75   1      9.3500000000000014      54.229999999999997      48.619999999999997
    76   1      7.4799999999999969      52.359999999999999      52.359999999999999
    77   1      7.4799999999999969      54.229999999999997      54.229999999999997
    78   1      9.3500000000000014      52.359999999999999      54.229999999999997
    79   1      9.3500000000000014      54.229999999999997      52.359999999999999
    80   1      7.4799999999999969      52.359999999999999      56.100000000000001
    81   1      7.4799999999999969      54.229999999999997      57.969999999999992
    82   1      9.3500000000000014      52.359999999999999      57.969999999999992
    83   1      9.3500000000000014      54.229999999999997      56.100000000000001
    84   1      7.4799999999999969      52.359999999999999      59.839999999999996
    85   1      7.4799999999999969      54.229999999999997      61.710000000000001
    86   1      9.3500000000000014      52.359999999999999      61.710000000000001
    87   1      9.3500000000000014      54.229999999999997      59.839999999999996
    88   1      7.4799999999999969      52.359999999999999      63.580000000000005
    89   1      9.3500000000000014      52.359999999999999      65.450000000000003
    90   1      9.3500000000000014      54.229999999999997      63.580000000000005
    91   1      9.3500000000000014      54.229999999999997      67.320000000000007
    92   1      9.3500000000000014      56.100000000000001      46.749999999999993
    93   1      9.3500000000000014      57.969999999999992      44.879999999999995
    94   1      7.4799999999999969      56.100000000000001      48.619999999999997
    95   1      7.4799999999999969      57.969999999999992      50.489999999999995
    96   1      9.3500000000000014      56.100000000000001      50.489999999999995
    97   1      9.3500000000000014      57.969999999999992      48.619999999999997
    98   1      7.4799999999999969      56.100000000000001      52.359999999999999
    99   1      7.4799999999999969      57.969999999999992      54.229999999999997
   100   1      9.3500000000000014      56.100000000000001      54.229999999999997
   101   1      9.3500000000000014      57.969999999999992      52.359999999999999
   102   1      7.4799999999999969      56.100000000000001      56.100000000000001
   103   1      7.4799999999999969      57.969999999999992      57.969999999999992
   104   1      9.3500000000000014      56.100000000000001      57.969999999999992
   105   1      9.3500000000000014      57.969999999999992      56.100000000000001
   106   1      7.4799999999999969      56.100000000000001      59.839999999999996
   107   1      7.4799999999999969      57.969999999999992      61.710000000000001
   108   1      9.3500000000000014      56.100000000000001      61.710000000000001
   109   1      9.3500000000000014      57.969999999999992      59.839999999999996
   110   1      7.4799999999999969      56.100000000000001      63.580000000000005
   111   1      9.3500000000000014      56.100000000000001      65.450000000000003
   112   1      9.3500000000000014      57.969999999999992      63.580000000000005
   113   1      9.3500000000000014      57.969999999999992      67.320000000000007
   114   1      9.3500000000000014      59.839999999999996      46.749999999999993
   115   1      7.4799999999999969      59.839999999999996      48.619999999999997
   116   1      7.4799999999999969      61.710000000000001      50.489999999999995
   117   1      9.3500000000000014      59.839999999999996      50.489999999999995
   118   1      9.3500000000000014      61.710000000000001      48.619999999999997
   119   1      7.4799999999999969      59.839999999999996      52.359999999999999
   120   1      7.4799999999999969      61.710000000000001      54.229999999999997
   121   1      9.3500000000000014      59.839999999999996      54.229999999999997
   122   1      9.3500000000000014      61.710000000000001      52.359999999999999
   123   1      7.4799999999999969      59.839999999999996      56.100000000000001
   124   1      7.4799999999999969      61.710000000000001      57.969999999999992
   125   1      9.3500000000000014      59.839999999999996      57.969999999999992
   126   1      9.3500000000000014      61.710000000000001      56.100000000000001
   127   1      7.4799999999999969      59.839999999999996      59.839999999999996
   128   1      7.4799999999999969      61.710000000000001      61.710000000000001
   129   1      9.3500000000000014      59.839999999999996      61.710000000000001
   130   1      9.3500000000000014      61.710000000000001      59.839999999999996
   131   1      7.4799999999999969      59.839999999999996      63.580000000000005
   132   1      9.3500000000000014      59.839999999999996      65.450000000000003
   133   1      9.3500000000000014      61.710000000000001      63.580000000000005
   134   1      9.3500000000000014      63.580000000000005      46.749999999999993
   135   1      7.4799999999999969      63.580000000000005      48.619999999999997
   136   1      9.3500000000000014      63.580000000000005      50.489999999999995
   137   1      9.3500000000000014      65.450000000000003      48.619999999999997
   138   1      7.4799999999999969      63.580000000000005      52.359999999999999
   139   1      9.3500000000000014      63.580000000000005      54.229999999999997
   140   1      9.3500000000000014      65.450000000000003      52.359999999999999
   141   1      7.4799999999999969      63.580000000000005      56.100000000000001
   142   1      9.3500000000000014      63.580000000000005      57.969999999999992
   143   1      9.3500000000000014      65.450000000000003      56.100000000000001
   144   1      7.4799999999999969      63.580000000000005      59.839999999999996
   145   1      9.3500000000000014      63.580000000000005      61.710000000000001
   146   1      9.3500000000000014      65.450000000000003      59.839999999999996
   147   1      7.4799999999999969      63.580000000000005      63.580000000000005
   148   1      9.3500000000000014      63.580000000000005      65.450000000000003
   149   1      9.3500000000000014      65.450000000000003      63.580000000000005
   150   1      9.3500000000000014      67.320000000000007      54.229999999999997
   151   1      9.3500000000000014      67.320000000000007      57.969999999999992
   152   1      13.089999999999996      43.009999999999991      44.879999999999995
   153   1      13.089999999999996      41.140000000000001      50.489999999999995
   154   1      13.089999999999996      43.009999999999991      48.619999999999997
   155   1      11.219999999999997      43.009999999999991      54.229999999999997
   156   1      13.089999999999996      41.140000000000001      54.229999999999997
   157   1      13.089999999999996      43.009999999999991      52.359999999999999
   158   1      11.219999999999997      43.009999999999991      57.969999999999992
   159   1      13.089999999999996      41.140000000000001      57.969999999999992
   160   1      13.089999999999996      43.009999999999991      56.100000000000001
   161   1      13.089999999999996      41.140000000000001      61.710000000000001
   162   1      13.089999999999996      43.009999999999991      59.839999999999996
   163   1      13.089999999999996      43.009999999999991      63.580000000000005
   164   1      13.089999999999996      43.009999999999991      67.320000000000007
   165   1      13.089999999999996      44.879999999999995      43.009999999999991
   166   1      11.219999999999997      44.879999999999995      44.879999999999995
   167   1      11.219999999999997      46.749999999999993      46.749999999999993
   168   1      13.089999999999996      44.879999999999995      46.749999999999993
   169   1      13.089999999999996      46.749999999999993      44.879999999999995
   170   1      11.219999999999997      44.879999999999995      48.619999999999997
   171   1      11.219999999999997      46.749999999999993      50.489999999999995
   172   1      13.089999999999996      44.879999999999995      50.489999999999995
   173   1      13.089999999999996      46.749999999999993      48.619999999999997
   174   1      11.219999999999997      44.879999999999995      52.359999999999999
   175   1      11.219999999999997      46.749999999999993      54.229999999999997
   176   1      13.089999999999996      44.879999999999995      54.229999999999997
   177   1      13.089999999999996      46.749999999999993      52.359999999999999
   178   1      11.219999999999997      44.879999999999995      56.100000000000001
   179   1      11.219999999999997      46.749999999999993      57.969999999999992
   180   1      13.089999999999996      44.879999999999995      57.969999999999992
   181   1      13.089999999999996      46.749999999999993      56.100000000000001
   182   1      11.219999999999997      44.879999999999995      59.839999999999996
   183   1      11.219999999999997      46.749999999999993      61.710000000000001
   184   1      13.089999999999996      44.879999999999995      61.710000000000001
   185   1      13.089999999999996      46.749999999999993      59.839999999999996
   186   1      11.219999999999997      44.879999999999995      63.580000000000005
   187   1      11.219999999999997      46.749999999999993      65.450000000000003
   188   1      13.089999999999996      44.879999999999995      65.450000000000003
   189   1      13.089999999999996      46.749999999999993      63.580000000000005
   190   1      11.219999999999997      44.879999999999995      67.320000000000007
   191   1      13.089999999999996      44.879999999999995      69.190000000000012
   192   1      13.089999999999996      46.749999999999993      67.320000000000007
   193   1      13.089999999999996      48.619999999999997      43.009999999999991
   194   1      13.089999999999996      50.489999999999995      41.140000000000001
   195   1      11.219999999999997      48.619999999999997      44.879999999999995
   196   1      11.219999999999997      50.489999999999995      46.749999999999993
   197   1      13.089999999999996      48.619999999999997      46.749999999999993
   198   1      13.089999999999996      50.489999999999995      44.879999999999995
   199   1      11.219999999999997      48.619999999999997      48.619999999999997
   200   1      11.219999999999997      50.489999999999995      50.489999999999995
   201   1      13.089999999999996      48.619999999999997      50.489999999999995
   202   1      13.089999999999996      50.489999999999995      48.619999999999997
   203   1      11.219999999999997      48.619999999999997      52.359999999999999
   204   1      11.219999999999997      50.489999999999995      54.229999999999997
   205   1      13.089999999999996      48.619999999999997      54.229999999999997
   206   1      13.089999999999996      50.489999999999995      52.359999999999999
   207   1      11.219999999999997      48.619999999999997      56.100000000000001
   208   1      11.219999999999997      50.489999999999995      57.969999999999992
   209   1      13.089999999999996      48.619999999999997      57.969999999999992
   210   1      13.089999999999996      50.489999999999995      56.100000000000001
   211   1      11.219999999999997      48.619999999999997      59.839999999999996
   212   1      11.219999999999997      50.489999999999995      61.710000000000001
   213   1      13.089999999999996      48.619999999999997      61.710000000000001
   214   1      13.089999999999996      50.489999999999995      59.839999999999996
   215   1      11.219999999999997      48.619999999999997      63.580000000000005
   216   1      11.219999999999997      50.489999999999995      65.450000000000003
   217   1      13.089999999999996      48.619999999999997      65.450000000000003
   218   1      13.089999999999996      50.489999999999995      63.580000000000005
   219   1      11.219999999999997      48.619999999999997      67.320000000000007
   220   1      13.089999999999996      48.619999999999997      69.190000000000012
   221   1      13.089999999999996      50.489999999999995      67.320000000000007
   222   1      13.089999999999996      50.489999999999995      71.060000000000002
   223   1      11.219999999999997      54.229999999999997      43.009999999999991
   224   1      13.089999999999996      52.359999999999999      43.009999999999991
   225   1      13.089999999999996      54.229999999999997      41.140000000000001
   226   1      11.219999999999997      52.359999999999999      44.879999999999995
   227   1      11.219999999999997      54.229999999999997      46.749999999999993
   228   1      13.089999999999996      52.359999999999999      46.749999999999993
   229   1      13.089999999999996      54.229999999999997      44.879999999999995
   230   1      11.219999999999997      52.359999999999999      48.619999999999997
   231   1      11.219999999999997      54.229999999999997      50.489999999999995
   232   1      13.089999999999996      52.359999999999999      50.489999999999995
   233   1      13.089999999999996      54.229999999999997      48.619999999999997
   234   1      11.219999999999997      52.359999999999999      52.359999999999999
   235   1      11.219999999999997      54.229999999999997      54.229999999999997
   236   1      13.089999999999996      52.359999999999999      54.229999999999997
   237   1      13.089999999999996      54.229999999999997      52.359999999999999
   238   1      11.219999999999997      52.359999999999999      56.100000000000001
   239   1      11.219999999999997      54.229999999999997      57.969999999999992
   240   1      13.089999999999996      52.359999999999999      57.969999999999992
   241   1      13.089999999999996      54.229999999999997      56.100000000000001
   242   1      11.219999999999997      52.359999999999999      59.839999999999996
   243   1      11.219999999999997      54.229999999999997      61.710000000000001
   244   1      13.089999999999996      52.359999999999999      61.710000000000001
   245   1      13.089999999999996      54.229999999999997      59.839999999999996
   246   1      11.219999999999997      52.359999999999999      63.580000000000005
   247   1      11.219999999999997      54.229999999999997      65.450000000000003
   248   1      13.089999999999996      52.359999999999999      65.450000000000003
   249   1      13.089999999999996      54.229999999999997      63.580000000000005
   250   1      11.219999999999997      52.359999999999999      67.320000000000007
   251   1      11.219999999999997      54.229999999999997      69.190000000000012
   252   1      13.089999999999996      52.359999999999999      69.190000000000012
   253   1      13.089999999999996      54.229999999999997      67.320000000000007
   254   1      13.089999999999996      54.229999999999997      71.060000000000002
   255   1      11.219999999999997      57.969999999999992      43.009999999999991
   256   1      13.089999999999996      56.100000000000001      43.009999999999991
   257   1      13.089999999999996      57.969999999999992      41.140000000000001
   258   1      11.219999999999997      56.100000000000001      44.879999999999995
   259   1      11.219999999999997      57.969999999999992      46.749999999999993
   260   1      13.089999999999996      56.100000000000001      46.749999999999993
   261   1      13.089999999999996      57.969999999999992      44.879999999999995
   262   1      11.219999999999997      56.100000000000001      48.619999999999997
   263   1      11.219999999999997      57.969999999999992      50.489999999999995
   264   1      13.089999999999996      56.100000000000001      50.489999999999995
   265   1      13.089999999999996      57.969999999999992      48.619999999999997
   266   1      11.219999999999997      56.100000000000001      52.359999999999999
   267   1      11.219999999999997      57.969999999999992      54.229999999999997
   268   1      13.089999999999996      56.100000000000001      54.229999999999997
   269   1      13.089999999999996      57.969999999999992      52.359999999999999
   270   1      11.219999999999997      56.100000000000001      56.100000000000001
   271   1      11.219999999999997      57.969999999999992      57.969999999999992
   272   1      13.089999999999996      56.100000000000001      57.969999999999992
   273   1      13.089999999999996      57.969999999999992      56.100000000000001
   274   1      11.219999999999997      56.100000000000001      59.839999999999996
   275   1      11.219999999999997      57.969999999999992      61.710000000000001
   276   1      13.089999999999996      56.100000000000001      61.710000000000001
   277   1      13.089999999999996      57.969999999999992      59.839999999999996
   278   1      11.219999999999997      56.100000000000001      63.580000000000005
   279   1      11.219999999999997      57.969999999999992      65.450000000000003
   280   1      13.089999999999996      56.100000000000001      65.450000000000003
   281   1      13.089999999999996      57.969999999999992      63.580000000000005
   282   1      11.219999999999997      56.100000000000001      67.320000000000007
   283   1      11.219999999999997      57.969999999999992      69.190000000000012
   284   1      13.089999999999996      56.100000000000001      69.190000000000012
   285   1      13.089999999999996      57.969999999999992      67.320000000000007
   286   1      13.089999999999996      57.969999999999992      71.060000000000002
   287   1      13.089999999999996      59.839999999999996      43.009999999999991
   288   1      13.089999999999996      61.710000000000001      41.140000000000001
   289   1      11.219999999999997      59.839999999999996      44.879999999999995
   290   1      11.219999999999997      61.710000000000001      46.749999999999993
   291   1      13.089999999999996      59.839999999999996      46.749999999999993
   292   1      13.089999999999996      61.710000000000001      44.879999999999995
   293   1      11.219999999999997      59.839999999999996      48.619999999999997
   294   1      11.219999999999997      61.710000000000001      50.489999999999995
   295   1      13.089999999999996      59.839999999999996      50.489999999999995
   296   1      13.089999999999996      61.710000000000001      48.619999999999997
   297   1      11.219999999999997      59.839999999999996      52.359999999999999
   298   1      11.219999999999997      61.710000000000001      54.229999999999997
   299   1      13.089999999999996      59.839999999999996      54.229999999999997
   300   1      13.089999999999996      61.710000000000001      52.359999999999999
   301   1      11.219999999999997      59.839999999999996      56.100000000000001
   302   1      11.219999999999997      61.710000000000001      57.969999999999992
   303   1      13.089999999999996      59.839999999999996      57.969999999999992
   304   1      13.089999999999996      61.710000000000001      56.100000000000001
   305   1      11.219999999999997      59.839999999999996      59.839999999999996
   306   1      11.219999999999997      61.710000000000001      61.710000000000001
   307   1      13.089999999999996      59.839999999999996      61.710000000000001
   308   1      13.089999999999996      61.710000000000001      59.839999999999996
   309   1      11.219999999999997      59.839999999999996      63.580000000000005
   310   1      11.219999999999997      61.710000000000001      65.450000000000003
   311   1      13.089999999999996      59.839999999999996      65.450000000000003
   312   1      13.089999999999996      61.710000000000001      63.580000000000005
   313   1      11.219999999999997      59.839999999999996      67.320000000000007
   314   1      13.089999999999996      59.839999999999996      69.190000000000012
   315   1      13.089999999999996      61.710000000000001      67.320000000000007
   316   1      13.089999999999996      61.710000000000001      71.060000000000002
   317   1      13.089999999999996      63.580000000000005      43.009999999999991
   318   1      11.219999999999997      63.580000000000005      44.879999999999995
   319   1      11.219999999999997      65.450000000000003      46.749999999999993
   320   1      13.089999999999996      63.580000000000005      46.749999999999993
   321   1      13.089999999999996      65.450000000000003      44.879999999999995
   322   1      11.219999999999997      63.580000000000005      48.619999999999997
   323   1      11.219999999999997      65.450000000000003      50.489999999999995
   324   1      13.089999999999996      63.580000000000005      50.489999999999995
   325   1      13.089999999999996      65.450000000000003      48.619999999999997
   326   1      11.219999999999997      63.580000000000005      52.359999999999999
   327   1      11.219999999999997      65.450000000000003      54.229999999999997
   328   1      13.089999999999996      63.580000000000005      54.229999999999997
   329   1      13.089999999999996      65.450000000000003      52.359999999999999
   330   1      11.219999999999997      63.580000000000005      56.100000000000001
   331   1      11.219999999999997      65.450000000000003      57.969999999999992
   332   1      13.089999999999996      63.580000000000005      57.969999999999992
   333   1      13.089999999999996      65.450000000000003      56.100000000000001
   334   1      11.219999999999997      63.580000000000005      59.839999999999996
   335   1      11.219999999999997      65.450000000000003      61.710000000000001
   336   1      13.089999999999996      63.580000000000005      61.710000000000001
   337   1      13.089999999999996      65.450000000000003      59.839999999999996
   338   1      11.219999999999997      63.580000000000005      63.580000000000005
   339   1      11.219999999999997      65.450000000000003      65.450000000000003
   340   1      13.089999999999996      63.580000000000005      65.450000000000003
   341   1      13.089999999999996      65.450000000000003      63.580000000000005
   342   1      11.219999999999997      63.580000000000005      67.320000000000007
   343   1      13.089999999999996      63.580000000000005      69.190000000000012
   344   1      13.089999999999996      65.450000000000003      67.320000000000007
   345   1      13.089999999999996      67.320000000000007      43.009999999999991
   346   1      11.219999999999997      67.320000000000007      44.879999999999995
   347   1      13.089999999999996      67.320000000000007      46.749999999999993
   348   1      13.089999999999996      69.190000000000012      44.879999999999995
   349   1      11.219999999999997      67.320000000000007      48.619999999999997
   350   1      13.089999999999996      67.320000000000007      50.489999999999995
   351   1      13.089999999999996      69.190000000000012      48.619999999999997
   352   1      11.219999999999997      67.320000000000007      52.359999999999999
   353   1      11.219999999999997      69.190000000000012      54.229999999999997
   354   1      13.089999999999996      67.320000000000007      54.229999999999997
   355   1      13.089999999999996      69.190000000000012      52.359999999999999
   356   1      11.219999999999997      67.320000000000007      56.100000000000001
   357   1      11.219999999999997      69.190000000000012      57.969999999999992
   358   1      13.089999999999996      67.320000000000007      57.969999999999992