model_files/PtAu/PtAu_30000/PtAu_542/PtAu_542_fcc_29823_temp.data (written by ASE) 

29823 	 atoms 
2  atom types
0.0                     123  xlo xhi
0.0                     123  ylo yhi
0.0                     123  zlo zhi


Atoms 

     1   1      2.0214999999999961      58.623500000000007      60.644999999999996
     2   1      2.0214999999999961      60.644999999999996      58.623500000000007
     3   1      122.99999999999999      60.644999999999996      60.644999999999996
     4   1      2.0214999999999961      60.644999999999996      62.666500000000013
     5   1      2.0214999999999961      62.666500000000013      60.644999999999996
     6   1      4.0429999999999922      54.580500000000008      58.623500000000007
     7   1      6.0644999999999962      52.559000000000005      58.623500000000007
     8   1      6.0644999999999962      54.580500000000008      56.601999999999997
     9   1      4.0429999999999922      54.580500000000008      62.666500000000013
    10   1      6.0644999999999962      52.559000000000005      62.666500000000013
    11   1      6.0644999999999962      54.580500000000008      60.644999999999996
    12   1      6.0644999999999962      54.580500000000008      64.688000000000017
    13   1      4.0429999999999922      58.623500000000007      54.580500000000008
    14   1      6.0644999999999962      56.601999999999997      54.580500000000008
    15   1      6.0644999999999962      58.623500000000007      52.559000000000005
    16   1      4.0429999999999922      56.601999999999997      56.601999999999997
    17   1      4.0429999999999922      58.623500000000007      58.623500000000007
    18   1      6.0644999999999962      56.601999999999997      58.623500000000007
    19   1      6.0644999999999962      58.623500000000007      56.601999999999997
    20   1      4.0429999999999922      56.601999999999997      60.644999999999996
    21   1      4.0429999999999922      58.623500000000007      62.666500000000013
    22   1      6.0644999999999962      56.601999999999997      62.666500000000013
    23   1      6.0644999999999962      58.623500000000007      60.644999999999996
    24   1      4.0429999999999922      56.601999999999997      64.688000000000017
    25   1      4.0429999999999922      58.623500000000007      66.709500000000006
    26   1      6.0644999999999962      56.601999999999997      66.709500000000006
    27   1      6.0644999999999962      58.623500000000007      64.688000000000017
    28   1      6.0644999999999962      58.623500000000007      68.730999999999995
    29   1      4.0429999999999922      62.666500000000013      54.580500000000008
    30   1      6.0644999999999962      60.644999999999996      54.580500000000008
    31   1      6.0644999999999962      62.666500000000013      52.559000000000005
    32   1      4.0429999999999922      60.644999999999996      56.601999999999997
    33   1      4.0429999999999922      62.666500000000013      58.623500000000007
    34   1      6.0644999999999962      60.644999999999996      58.623500000000007
    35   1      6.0644999999999962      62.666500000000013      56.601999999999997
    36   1      4.0429999999999922      60.644999999999996      60.644999999999996
    37   1      4.0429999999999922      62.666500000000013      62.666500000000013
    38   1      6.0644999999999962      60.644999999999996      62.666500000000013
    39   1      6.0644999999999962      62.666500000000013      60.644999999999996
    40   1      4.0429999999999922      60.644999999999996      64.688000000000017
    41   1      4.0429999999999922      62.666500000000013      66.709500000000006
    42   1      6.0644999999999962      60.644999999999996      66.709500000000006
    43   1      6.0644999999999962      62.666500000000013      64.688000000000017
    44   1      6.0644999999999962      62.666500000000013      68.730999999999995
    45   1      6.0644999999999962      64.688000000000017      54.580500000000008
    46   1      4.0429999999999922      64.688000000000017      56.601999999999997
    47   1      4.0429999999999922      66.709500000000006      58.623500000000007
    48   1      6.0644999999999962      64.688000000000017      58.623500000000007
    49   1      6.0644999999999962      66.709500000000006      56.601999999999997
    50   1      4.0429999999999922      64.688000000000017      60.644999999999996
    51   1      4.0429999999999922      66.709500000000006      62.666500000000013
    52   1      6.0644999999999962      64.688000000000017      62.666500000000013
    53   1      6.0644999999999962      66.709500000000006      60.644999999999996
    54   1      4.0429999999999922      64.688000000000017      64.688000000000017
    55   1      6.0644999999999962      64.688000000000017      66.709500000000006
    56   1      6.0644999999999962      66.709500000000006      64.688000000000017
    57   1      6.0644999999999962      68.730999999999995      58.623500000000007
    58   1      6.0644999999999962      68.730999999999995      62.666500000000013
    59   1      10.107499999999996      46.494500000000009      60.644999999999996
    60   1      10.107499999999996      50.537500000000009      52.559000000000005
    61   1      8.0860000000000003      50.537500000000009      58.623500000000007
    62   1      10.107499999999996      48.516000000000005      58.623500000000007
    63   1      10.107499999999996      50.537500000000009      56.601999999999997
    64   1      8.0860000000000003      48.516000000000005      60.644999999999996
    65   1      8.0860000000000003      50.537500000000009      62.666500000000013
    66   1      10.107499999999996      48.516000000000005      62.666500000000013
    67   1      10.107499999999996      50.537500000000009      60.644999999999996
    68   1      10.107499999999996      50.537500000000009      64.688000000000017
    69   1      10.107499999999996      50.537500000000009      68.730999999999995
    70   1      10.107499999999996      52.559000000000005      50.537500000000009
    71   1      8.0860000000000003      52.559000000000005      52.559000000000005
    72   1      8.0860000000000003      54.580500000000008      54.580500000000008
    73   1      10.107499999999996      52.559000000000005      54.580500000000008
    74   1      10.107499999999996      54.580500000000008      52.559000000000005
    75   1      8.0860000000000003      52.559000000000005      56.601999999999997
    76   1      8.0860000000000003      54.580500000000008      58.623500000000007
    77   1      10.107499999999996      52.559000000000005      58.623500000000007
    78   1      10.107499999999996      54.580500000000008      56.601999999999997
    79   1      8.0860000000000003      52.559000000000005      60.644999999999996
    80   1      8.0860000000000003      54.580500000000008      62.666500000000013
    81   1      10.107499999999996      52.559000000000005      62.666500000000013
    82   1      10.107499999999996      54.580500000000008      60.644999999999996
    83   1      8.0860000000000003      52.559000000000005      64.688000000000017
    84   1      8.0860000000000003      54.580500000000008      66.709500000000006
    85   1      10.107499999999996      52.559000000000005      66.709500000000006
    86   1      10.107499999999996      54.580500000000008      64.688000000000017
    87   1      8.0860000000000003      52.559000000000005      68.730999999999995
    88   1      10.107499999999996      52.559000000000005      70.752500000000012
    89   1      10.107499999999996      54.580500000000008      68.730999999999995
    90   1      8.0860000000000003      58.623500000000007      50.537500000000009
    91   1      10.107499999999996      56.601999999999997      50.537500000000009
    92   1      10.107499999999996      58.623500000000007      48.516000000000005
    93   1      8.0860000000000003      56.601999999999997      52.559000000000005
    94   1      8.0860000000000003      58.623500000000007      54.580500000000008
    95   1      10.107499999999996      56.601999999999997      54.580500000000008
    96   1      10.107499999999996      58.623500000000007      52.559000000000005
    97   1      8.0860000000000003      56.601999999999997      56.601999999999997
    98   1      8.0860000000000003      58.623500000000007      58.623500000000007
    99   1      10.107499999999996      56.601999999999997      58.623500000000007
   100   1      10.107499999999996      58.623500000000007      56.601999999999997
   101   1      8.0860000000000003      56.601999999999997      60.644999999999996
   102   1      8.0860000000000003      58.623500000000007      62.666500000000013
   103   1      10.107499999999996      56.601999999999997      62.666500000000013
   104   1      10.107499999999996      58.623500000000007      60.644999999999996
   105   1      8.0860000000000003      56.601999999999997      64.688000000000017
   106   1      8.0860000000000003      58.623500000000007      66.709500000000006
   107   1      10.107499999999996      56.601999999999997      66.709500000000006
   108   1      10.107499999999996      58.623500000000007      64.688000000000017
   109   1      8.0860000000000003      56.601999999999997      68.730999999999995
   110   1      8.0860000000000003      58.623500000000007      70.752500000000012
   111   1      10.107499999999996      56.601999999999997      70.752500000000012
   112   1      10.107499999999996      58.623500000000007      68.730999999999995
   113   1      10.107499999999996      58.623500000000007      72.774000000000015
   114   1      10.107499999999996      60.644999999999996      46.494500000000009
   115   1      8.0860000000000003      60.644999999999996      48.516000000000005
   116   1      8.0860000000000003      62.666500000000013      50.537500000000009
   117   1      10.107499999999996      60.644999999999996      50.537500000000009
   118   1      10.107499999999996      62.666500000000013      48.516000000000005
   119   1      8.0860000000000003      60.644999999999996      52.559000000000005
   120   1      8.0860000000000003      62.666500000000013      54.580500000000008
   121   1      10.107499999999996      60.644999999999996      54.580500000000008
   122   1      10.107499999999996      62.666500000000013      52.559000000000005
   123   1      8.0860000000000003      60.644999999999996      56.601999999999997
   124   1      8.0860000000000003      62.666500000000013      58.623500000000007
   125   1      10.107499999999996      60.644999999999996      58.623500000000007
   126   1      10.107499999999996      62.666500000000013      56.601999999999997
   127   1      8.0860000000000003      60.644999999999996      60.644999999999996
   128   1      8.0860000000000003      62.666500000000013      62.666500000000013
   129   1      10.107499999999996      60.644999999999996      62.666500000000013
   130   1      10.107499999999996      62.666500000000013      60.644999999999996
   131   1      8.0860000000000003      60.644999999999996      64.688000000000017
   132   1      8.0860000000000003      62.666500000000013      66.709500000000006
   133   1      10.107499999999996      60.644999999999996      66.709500000000006
   134   1      10.107499999999996      62.666500000000013      64.688000000000017
   135   1      8.0860000000000003      60.644999999999996      68.730999999999995
   136   1      8.0860000000000003      62.666500000000013      70.752500000000012
   137   1      10.107499999999996      60.644999999999996      70.752500000000012
   138   1      10.107499999999996      62.666500000000013      68.730999999999995
   139   1      8.0860000000000003      60.644999999999996      72.774000000000015
   140   1      10.107499999999996      60.644999999999996      74.795500000000004
   141   1      10.107499999999996      62.666500000000013      72.774000000000015
   142   1      10.107499999999996      64.688000000000017      50.537500000000009
   143   1      8.0860000000000003      64.688000000000017      52.559000000000005
   144   1      8.0860000000000003      66.709500000000006      54.580500000000008
   145   1      10.107499999999996      64.688000000000017      54.580500000000008
   146   1      10.107499999999996      66.709500000000006      52.559000000000005
   147   1      8.0860000000000003      64.688000000000017      56.601999999999997
   148   1      8.0860000000000003      66.709500000000006      58.623500000000007
   149   1      10.107499999999996      64.688000000000017      58.623500000000007
   150   1      10.107499999999996      66.709500000000006      56.601999999999997
   151   1      8.0860000000000003      64.688000000000017      60.644999999999996
   152   1      8.0860000000000003      66.709500000000006      62.666500000000013
   153   1      10.107499999999996      64.688000000000017      62.666500000000013
   154   1      10.107499999999996      66.709500000000006      60.644999999999996
   155   1      8.0860000000000003      64.688000000000017      64.688000000000017
   156   1      8.0860000000000003      66.709500000000006      66.709500000000006
   157   1      10.107499999999996      64.688000000000017      66.709500000000006
   158   1      10.107499999999996      66.709500000000006      64.688000000000017
   159   1      8.0860000000000003      64.688000000000017      68.730999999999995
   160   1      10.107499999999996      64.688000000000017      70.752500000000012
   161   1      10.107499999999996      66.709500000000006      68.730999999999995
   162   1      10.107499999999996      68.730999999999995      50.537500000000009
   163   1      8.0860000000000003      68.730999999999995      52.559000000000005
   164   1      10.107499999999996      68.730999999999995      54.580500000000008
   165   1      10.107499999999996      70.752500000000012      52.559000000000005
   166   1      8.0860000000000003      68.730999999999995      56.601999999999997
   167   1      8.0860000000000003      70.752500000000012      58.623500000000007
   168   1      10.107499999999996      68.730999999999995      58.623500000000007
   169   1      10.107499999999996      70.752500000000012      56.601999999999997
   170   1      8.0860000000000003      68.730999999999995      60.644999999999996
   171   1      8.0860000000000003      70.752500000000012      62.666500000000013
   172   1      10.107499999999996      68.730999999999995      62.666500000000013
   173   1      10.107499999999996      70.752500000000012      60.644999999999996
   174   1      8.0860000000000003      68.730999999999995      64.688000000000017
   175   1      10.107499999999996      68.730999999999995      66.709500000000006
   176   1      10.107499999999996      70.752500000000012      64.688000000000017
   177   1      8.0860000000000003      68.730999999999995      68.730999999999995
   178   1      10.107499999999996      68.730999999999995      70.752500000000012
   179   1      10.107499999999996      70.752500000000012      68.730999999999995
   180   1      10.107499999999996      72.774000000000015      58.623500000000007
   181   1      8.0860000000000003      72.774000000000015      60.644999999999996
   182   1      10.107499999999996      72.774000000000015      62.666500000000013
   183   1      10.107499999999996      74.795500000000004      60.644999999999996
   184   1      14.150499999999996      42.451500000000003      60.644999999999996
   185   1      12.128999999999992      46.494500000000009      54.580500000000008
   186   1      14.150499999999996      44.473000000000006      54.580500000000008
   187   1      14.150499999999996      46.494500000000009      52.559000000000005
   188   1      12.128999999999992      46.494500000000009      58.623500000000007
   189   1      14.150499999999996      44.473000000000006      58.623500000000007
   190   1      14.150499999999996      46.494500000000009      56.601999999999997
   191   1      12.128999999999992      44.473000000000006      60.644999999999996
   192   1      12.128999999999992      46.494500000000009      62.666500000000013
   193   1      14.150499999999996      44.473000000000006      62.666500000000013
   194   1      14.150499999999996      46.494500000000009      60.644999999999996
   195   1      12.128999999999992      46.494500000000009      66.709500000000006
   196   1      14.150499999999996      44.473000000000006      66.709500000000006
   197   1      14.150499999999996      46.494500000000009      64.688000000000017
   198   1      14.150499999999996      46.494500000000009      68.730999999999995
   199   1      12.128999999999992      50.537500000000009      50.537500000000009
   200   1      14.150499999999996      48.516000000000005      50.537500000000009
   201   1      14.150499999999996      50.537500000000009      48.516000000000005
   202   1      12.128999999999992      48.516000000000005      52.559000000000005
   203   1      12.128999999999992      50.537500000000009      54.580500000000008
   204   1      14.150499999999996      48.516000000000005      54.580500000000008
   205   1      14.150499999999996      50.537500000000009      52.559000000000005
   206   1      12.128999999999992      48.516000000000005      56.601999999999997
   207   1      12.128999999999992      50.537500000000009      58.623500000000007
   208   1      14.150499999999996      48.516000000000005      58.623500000000007
   209   1      14.150499999999996      50.537500000000009      56.601999999999997
   210   1      12.128999999999992      48.516000000000005      60.644999999999996
   211   1      12.128999999999992      50.537500000000009      62.666500000000013
   212   1      14.150499999999996      48.516000000000005      62.666500000000013
   213   1      14.150499999999996      50.537500000000009      60.644999999999996
   214   1      12.128999999999992      48.516000000000005      64.688000000000017
   215   1      12.128999999999992      50.537500000000009      66.709500000000006
   216   1      14.150499999999996      48.516000000000005      66.709500000000006
   217   1      14.150499999999996      50.537500000000009      64.688000000000017
   218   1      12.128999999999992      48.516000000000005      68.730999999999995
   219   1      12.128999999999992      50.537500000000009      70.752500000000012
   220   1      14.150499999999996      48.516000000000005      70.752500000000012
   221   1      14.150499999999996      50.537500000000009      68.730999999999995
   222   1      14.150499999999996      50.537500000000009      72.774000000000015
   223   1      12.128999999999992      54.580500000000008      46.494500000000009
   224   1      14.150499999999996      52.559000000000005      46.494500000000009
   225   1      14.150499999999996      54.580500000000008      44.473000000000006
   226   1      12.128999999999992      52.559000000000005      48.516000000000005
   227   1      12.128999999999992      54.580500000000008      50.537500000000009
   228   1      14.150499999999996      52.559000000000005      50.537500000000009
   229   1      14.150499999999996      54.580500000000008      48.516000000000005
   230   1      12.128999999999992      52.559000000000005      52.559000000000005
   231   1      12.128999999999992      54.580500000000008      54.580500000000008
   232   1      14.150499999999996      52.559000000000005      54.580500000000008
   233   1      14.150499999999996      54.580500000000008      52.559000000000005
   234   1      12.128999999999992      52.559000000000005      56.601999999999997
   235   1      12.128999999999992      54.580500000000008      58.623500000000007
   236   1      14.150499999999996      52.559000000000005      58.623500000000007
   237   1      14.150499999999996      54.580500000000008      56.601999999999997
   238   1      12.128999999999992      52.559000000000005      60.644999999999996
   239   1      12.128999999999992      54.580500000000008      62.666500000000013
   240   1      14.150499999999996      52.559000000000005      62.666500000000013
   241   1      14.150499999999996      54.580500000000008      60.644999999999996
   242   1      12.128999999999992      52.559000000000005      64.688000000000017
   243   1      12.128999999999992      54.580500000000008      66.709500000000006
   244   1      14.150499999999996      52.559000000000005      66.709500000000006
   245   1      14.150499999999996      54.580500000000008      64.688000000000017
   246   1      12.128999999999992      52.559000000000005      68.730999999999995
   247   1      12.128999999999992      54.580500000000008      70.752500000000012
   248   1      14.150499999999996      52.559000000000005      70.752500000000012
   249   1      14.150499999999996      54.580500000000008      68.730999999999995
   250   1      12.128999999999992      52.559000000000005      72.774000000000015
   251   1      12.128999999999992      54.580500000000008      74.795500000000004
   252   1      14.150499999999996      52.559000000000005      74.795500000000004
   253   1      14.150499999999996      54.580500000000008      72.774000000000015
   254   1      14.150499999999996      54.580500000000008      76.816999999999993
   255   1      12.128999999999992      58.623500000000007      46.494500000000009
   256   1      14.150499999999996      56.601999999999997      46.494500000000009
   257   1      14.150499999999996      58.623500000000007      44.473000000000006
   258   1      12.128999999999992      56.601999999999997      48.516000000000005
   259   1      12.128999999999992      58.623500000000007      50.537500000000009
   260   1      14.150499999999996      56.601999999999997      50.537500000000009
   261   1      14.150499999999996      58.623500000000007      48.516000000000005
   262   1      12.128999999999992      56.601999999999997      52.559000000000005
   263   1      12.128999999999992      58.623500000000007      54.580500000000008
   264   1      14.150499999999996      56.601999999999997      54.580500000000008
   265   1      14.150499999999996      58.623500000000007      52.559000000000005
   266   1      12.128999999999992      56.601999999999997      56.601999999999997
   267   1      12.128999999999992      58.623500000000007      58.623500000000007
   268   1      14.150499999999996      56.601999999999997      58.623500000000007
   269   1      14.150499999999996      58.623500000000007      56.601999999999997
   270   1      12.128999999999992      56.601999999999997      60.644999999999996
   271   1      12.128999999999992      58.623500000000007      62.666500000000013
   272   1      14.150499999999996      56.601999999999997      62.666500000000013
   273   1      14.150499999999996      58.623500000000007      60.644999999999996
   274   1      12.128999999999992      56.601999999999997      64.688000000000017
   275   1      12.128999999999992      58.623500000000007      66.709500000000006
   276   1      14.150499999999996      56.601999999999997      66.709500000000006
   277   1      14.150499999999996      58.623500000000007      64.688000000000017
   278   1      12.128999999999992      56.601999999999997      68.730999999999995
   279   1      12.128999999999992      58.623500000000007      70.752500000000012
   280   1      14.150499999999996      56.601999999999997      70.752500000000012
   281   1      14.150499999999996      58.623500000000007      68.730999999999995
   282   1      12.128999999999992      56.601999999999997      72.774000000000015
   283   1      12.128999999999992      58.623500000000007      74.795500000000004
   284   1      14.150499999999996      56.601999999999997      74.795500000000004
   285   1      14.150499999999996      58.623500000000007      72.774000000000015
   286   1      14.150499999999996      58.623500000000007      76.816999999999993
   287   1      14.150499999999996      60.644999999999996      42.451500000000003
   288   1      12.128999999999992      60.644999999999996      44.473000000000006
   289   1      12.128999999999992      62.666500000000013      46.494500000000009
   290   1      14.150499999999996      60.644999999999996      46.494500000000009
   291   1      14.150499999999996      62.666500000000013      44.473000000000006
   292   1      12.128999999999992      60.644999999999996      48.516000000000005
   293   1      12.128999999999992      62.666500000000013      50.537500000000009
   294   1      14.150499999999996      60.644999999999996      50.537500000000009
   295   1      14.150499999999996      62.666500000000013      48.516000000000005
   296   1      12.128999999999992      60.644999999999996      52.559000000000005
   297   1      12.128999999999992      62.666500000000013      54.580500000000008
   298   1      14.150499999999996      60.644999999999996      54.580500000000008
   299   1      14.150499999999996      62.666500000000013      52.559000000000005
   300   1      12.128999999999992      60.644999999999996      56.601999999999997
   301   1      12.128999999999992      62.666500000000013      58.623500000000007
   302   1      14.150499999999996      60.644999999999996      58.623500000000007
   303   1      14.150499999999996      62.666500000000013      56.601999999999997
   304   1      12.128999999999992      60.644999999999996      60.644999999999996
   305   1      12.128999999999992      62.666500000000013      62.666500000000013
   306   1      14.150499999999996      60.644999999999996      62.666500000000013
   307   1      14.150499999999996      62.666500000000013      60.644999999999996
   308   1      12.128999999999992      60.644999999999996      64.688000000000017
   309   1      12.128999999999992      62.666500000000013      66.709500000000006
   310   1      14.150499999999996      60.644999999999996      66.709500000000006
   311   1      14.150499999999996      62.666500000000013      64.688000000000017
   312   1      12.128999999999992      60.644999999999996      68.730999999999995
   313   1      12.128999999999992      62.666500000000013      70.752500000000012
   314   1      14.150499999999996      60.644999999999996      70.752500000000012
   315   1      14.150499999999996      62.666500000000013      68.730999999999995
   316   1      12.128999999999992      60.644999999999996      72.774000000000015
   317   1      12.128999999999992      62.666500000000013      74.795500000000004
   318   1      14.150499999999996      60.644999999999996      74.795500000000004
   319   1      14.150499999999996      62.666500000000013      72.774000000000015
   320   1      12.128999999999992      60.644999999999996      76.816999999999993
   321   1      14.150499999999996      60.644999999999996       78.83850000000001
   322   1      14.150499999999996      62.666500000000013      76.816999999999993
   323   1      12.128999999999992      66.709500000000006      46.494500000000009
   324   1      14.150499999999996      64.688000000000017      46.494500000000009
   325   1      14.150499999999996      66.709500000000006      44.473000000000006
   326   1      12.128999999999992      64.688000000000017      48.516000000000005
   327   1      12.128999999999992      66.709500000000006      50.537500000000009
   328   1      14.150499999999996      64.688000000000017      50.537500000000009
   329   1      14.150499999999996      66.709500000000006      48.516000000000005
   330   1      12.128999999999992      64.688000000000017      52.559000000000005
   331   1      12.128999999999992      66.709500000000006      54.580500000000008
   332   1      14.150499999999996      64.688000000000017      54.580500000000008
   333   1      14.150499999999996      66.709500000000006      52.559000000000005
   334   1      12.128999999999992      64.688000000000017      56.601999999999997
   335   1      12.128999999999992      66.709500000000006      58.623500000000007
   336   1      14.150499999999996      64.688000000000017      58.623500000000007
   337   1      14.150499999999996      66.709500000000006      56.601999999999997
   338   1      12.128999999999992      64.688000000000017      60.644999999999996
   339   1      12.128999999999992      66.709500000000006      62.666500000000013
   340   1      14.150499999999996      64.688000000000017      62.666500000000013
   341   1      14.150499999999996      66.709500000000006      60.644999999999996
   342   1      12.128999999999992      64.688000000000017      64.688000000000017
   343   1      12.128999999999992      66.709500000000006      66.709500000000006
   344   1      14.150499999999996      64.688000000000017      66.709500000000006
   345   1      14.150499999999996      66.709500000000006      64.688000000000017
   346   1      12.128999999999992      64.688000000000017      68.730999999999995
   347   1      12.128999999999992      66.709500000000006      70.752500000000012
   348   1      14.150499999999996      64.688000000000017      70.752500000000012
   349   1      14.150499999999996      66.709500000000006      68.730999999999995
   350   1      12.128999999999992      64.688000000000017      72.774000000000015
   351   1      12.128999999999992      66.709500000000006      74.795500000000004
   352   1      14.150499999999996      64.688000000000017      74.795500000000004
   353   1      14.150499999999996      66.709500000000006      72.774000000000015
   354   1      14.150499999999996      66.709500000000006      76.816999999999993
   355   1      14.150499999999996      68.730999999999995      46.494500000000009
   356   1      12.128999999999992      68.730999999999995      48.516000000000005
   357   1      12.128999999999992      70.752500000000012      50.537500000000009
   358   1      14.150499999999996      68.730999999999995      50.537500000000009