model_files/Ag/Ag_30000/Ag_430/data.Ag_430_fcc_29909 (written by ASE) 

29909 	 atoms 
1  atom types
0.0                     114  xlo xhi
0.0                     114  ylo yhi
0.0                     114  zlo zhi


Atoms 

     1   1      2.0450000000000088      55.215000000000011      57.260000000000005
     2   1      2.0450000000000088      57.260000000000005      55.215000000000011
     3   1  1.4210854715202004e-14      57.260000000000005      57.260000000000005
     4   1      2.0450000000000088      57.260000000000005      59.305000000000007
     5   1      2.0450000000000088      59.305000000000007      57.260000000000005
     6   1      4.0900000000000105      51.125000000000007      51.125000000000007
     7   1      6.1350000000000122      49.080000000000005      51.125000000000007
     8   1      6.1350000000000122      51.125000000000007      49.080000000000005
     9   1      4.0900000000000105      51.125000000000007      55.215000000000011
    10   1      6.1350000000000122      49.080000000000005      55.215000000000011
    11   1      6.1350000000000122      51.125000000000007      53.170000000000009
    12   1      4.0900000000000105      51.125000000000007      59.305000000000007
    13   1      6.1350000000000122      49.080000000000005      59.305000000000007
    14   1      6.1350000000000122      51.125000000000007      57.260000000000005
    15   1      4.0900000000000105      51.125000000000007       63.39500000000001
    16   1      6.1350000000000122      49.080000000000005       63.39500000000001
    17   1      6.1350000000000122      51.125000000000007      61.350000000000009
    18   1      6.1350000000000122      51.125000000000007      65.440000000000012
    19   1      4.0900000000000105      55.215000000000011      51.125000000000007
    20   1      6.1350000000000122      53.170000000000009      51.125000000000007
    21   1      6.1350000000000122      55.215000000000011      49.080000000000005
    22   1      4.0900000000000105      53.170000000000009      53.170000000000009
    23   1      4.0900000000000105      55.215000000000011      55.215000000000011
    24   1      6.1350000000000122      53.170000000000009      55.215000000000011
    25   1      6.1350000000000122      55.215000000000011      53.170000000000009
    26   1      4.0900000000000105      53.170000000000009      57.260000000000005
    27   1      4.0900000000000105      55.215000000000011      59.305000000000007
    28   1      6.1350000000000122      53.170000000000009      59.305000000000007
    29   1      6.1350000000000122      55.215000000000011      57.260000000000005
    30   1      4.0900000000000105      53.170000000000009      61.350000000000009
    31   1      4.0900000000000105      55.215000000000011       63.39500000000001
    32   1      6.1350000000000122      53.170000000000009       63.39500000000001
    33   1      6.1350000000000122      55.215000000000011      61.350000000000009
    34   1      6.1350000000000122      55.215000000000011      65.440000000000012
    35   1      4.0900000000000105      59.305000000000007      51.125000000000007
    36   1      6.1350000000000122      57.260000000000005      51.125000000000007
    37   1      6.1350000000000122      59.305000000000007      49.080000000000005
    38   1      4.0900000000000105      57.260000000000005      53.170000000000009
    39   1      4.0900000000000105      59.305000000000007      55.215000000000011
    40   1      6.1350000000000122      57.260000000000005      55.215000000000011
    41   1      6.1350000000000122      59.305000000000007      53.170000000000009
    42   1      4.0900000000000105      57.260000000000005      57.260000000000005
    43   1      4.0900000000000105      59.305000000000007      59.305000000000007
    44   1      6.1350000000000122      57.260000000000005      59.305000000000007
    45   1      6.1350000000000122      59.305000000000007      57.260000000000005
    46   1      4.0900000000000105      57.260000000000005      61.350000000000009
    47   1      4.0900000000000105      59.305000000000007       63.39500000000001
    48   1      6.1350000000000122      57.260000000000005       63.39500000000001
    49   1      6.1350000000000122      59.305000000000007      61.350000000000009
    50   1      6.1350000000000122      59.305000000000007      65.440000000000012
    51   1      4.0900000000000105       63.39500000000001      51.125000000000007
    52   1      6.1350000000000122      61.350000000000009      51.125000000000007
    53   1      6.1350000000000122       63.39500000000001      49.080000000000005
    54   1      4.0900000000000105      61.350000000000009      53.170000000000009
    55   1      4.0900000000000105       63.39500000000001      55.215000000000011
    56   1      6.1350000000000122      61.350000000000009      55.215000000000011
    57   1      6.1350000000000122       63.39500000000001      53.170000000000009
    58   1      4.0900000000000105      61.350000000000009      57.260000000000005
    59   1      4.0900000000000105       63.39500000000001      59.305000000000007
    60   1      6.1350000000000122      61.350000000000009      59.305000000000007
    61   1      6.1350000000000122       63.39500000000001      57.260000000000005
    62   1      4.0900000000000105      61.350000000000009      61.350000000000009
    63   1      4.0900000000000105       63.39500000000001       63.39500000000001
    64   1      6.1350000000000122      61.350000000000009       63.39500000000001
    65   1      6.1350000000000122       63.39500000000001      61.350000000000009
    66   1      6.1350000000000122       63.39500000000001      65.440000000000012
    67   1      6.1350000000000122      65.440000000000012      51.125000000000007
    68   1      6.1350000000000122      65.440000000000012      55.215000000000011
    69   1      6.1350000000000122      65.440000000000012      59.305000000000007
    70   1      6.1350000000000122      65.440000000000012       63.39500000000001
    71   1      10.225000000000009                  42.945      44.990000000000002
    72   1      10.225000000000009                  42.945      49.080000000000005
    73   1      10.225000000000009                  42.945      53.170000000000009
    74   1      10.225000000000009                  42.945      57.260000000000005
    75   1      10.225000000000009                  42.945      61.350000000000009
    76   1      10.225000000000009                  42.945      65.440000000000012
    77   1      10.225000000000009                  42.945      69.530000000000015
    78   1      10.225000000000009      44.990000000000002                  42.945
    79   1      8.1800000000000068      47.035000000000004      47.035000000000004
    80   1      10.225000000000009      44.990000000000002      47.035000000000004
    81   1      10.225000000000009      47.035000000000004      44.990000000000002
    82   1      8.1800000000000068      47.035000000000004      51.125000000000007
    83   1      10.225000000000009      44.990000000000002      51.125000000000007
    84   1      10.225000000000009      47.035000000000004      49.080000000000005
    85   1      8.1800000000000068      47.035000000000004      55.215000000000011
    86   1      10.225000000000009      44.990000000000002      55.215000000000011
    87   1      10.225000000000009      47.035000000000004      53.170000000000009
    88   1      8.1800000000000068      47.035000000000004      59.305000000000007
    89   1      10.225000000000009      44.990000000000002      59.305000000000007
    90   1      10.225000000000009      47.035000000000004      57.260000000000005
    91   1      8.1800000000000068      47.035000000000004       63.39500000000001
    92   1      10.225000000000009      44.990000000000002       63.39500000000001
    93   1      10.225000000000009      47.035000000000004      61.350000000000009
    94   1      8.1800000000000068      47.035000000000004      67.485000000000014
    95   1      10.225000000000009      44.990000000000002      67.485000000000014
    96   1      10.225000000000009      47.035000000000004      65.440000000000012
    97   1      10.225000000000009      44.990000000000002      71.575000000000017
    98   1      10.225000000000009      47.035000000000004      69.530000000000015
    99   1      10.225000000000009      49.080000000000005                  42.945
   100   1      8.1800000000000068      51.125000000000007      47.035000000000004
   101   1      10.225000000000009      49.080000000000005      47.035000000000004
   102   1      10.225000000000009      51.125000000000007      44.990000000000002
   103   1      8.1800000000000068      49.080000000000005      49.080000000000005
   104   1      8.1800000000000068      51.125000000000007      51.125000000000007
   105   1      10.225000000000009      49.080000000000005      51.125000000000007
   106   1      10.225000000000009      51.125000000000007      49.080000000000005
   107   1      8.1800000000000068      49.080000000000005      53.170000000000009
   108   1      8.1800000000000068      51.125000000000007      55.215000000000011
   109   1      10.225000000000009      49.080000000000005      55.215000000000011
   110   1      10.225000000000009      51.125000000000007      53.170000000000009
   111   1      8.1800000000000068      49.080000000000005      57.260000000000005
   112   1      8.1800000000000068      51.125000000000007      59.305000000000007
   113   1      10.225000000000009      49.080000000000005      59.305000000000007
   114   1      10.225000000000009      51.125000000000007      57.260000000000005
   115   1      8.1800000000000068      49.080000000000005      61.350000000000009
   116   1      8.1800000000000068      51.125000000000007       63.39500000000001
   117   1      10.225000000000009      49.080000000000005       63.39500000000001
   118   1      10.225000000000009      51.125000000000007      61.350000000000009
   119   1      8.1800000000000068      49.080000000000005      65.440000000000012
   120   1      8.1800000000000068      51.125000000000007      67.485000000000014
   121   1      10.225000000000009      49.080000000000005      67.485000000000014
   122   1      10.225000000000009      51.125000000000007      65.440000000000012
   123   1      10.225000000000009      49.080000000000005      71.575000000000017
   124   1      10.225000000000009      51.125000000000007      69.530000000000015
   125   1      10.225000000000009      53.170000000000009                  42.945
   126   1      8.1800000000000068      55.215000000000011      47.035000000000004
   127   1      10.225000000000009      53.170000000000009      47.035000000000004
   128   1      10.225000000000009      55.215000000000011      44.990000000000002
   129   1      8.1800000000000068      53.170000000000009      49.080000000000005
   130   1      8.1800000000000068      55.215000000000011      51.125000000000007
   131   1      10.225000000000009      53.170000000000009      51.125000000000007
   132   1      10.225000000000009      55.215000000000011      49.080000000000005
   133   1      8.1800000000000068      53.170000000000009      53.170000000000009
   134   1      8.1800000000000068      55.215000000000011      55.215000000000011
   135   1      10.225000000000009      53.170000000000009      55.215000000000011
   136   1      10.225000000000009      55.215000000000011      53.170000000000009
   137   1      8.1800000000000068      53.170000000000009      57.260000000000005
   138   1      8.1800000000000068      55.215000000000011      59.305000000000007
   139   1      10.225000000000009      53.170000000000009      59.305000000000007
   140   1      10.225000000000009      55.215000000000011      57.260000000000005
   141   1      8.1800000000000068      53.170000000000009      61.350000000000009
   142   1      8.1800000000000068      55.215000000000011       63.39500000000001
   143   1      10.225000000000009      53.170000000000009       63.39500000000001
   144   1      10.225000000000009      55.215000000000011      61.350000000000009
   145   1      8.1800000000000068      53.170000000000009      65.440000000000012
   146   1      8.1800000000000068      55.215000000000011      67.485000000000014
   147   1      10.225000000000009      53.170000000000009      67.485000000000014
   148   1      10.225000000000009      55.215000000000011      65.440000000000012
   149   1      10.225000000000009      53.170000000000009      71.575000000000017
   150   1      10.225000000000009      55.215000000000011      69.530000000000015
   151   1      10.225000000000009      57.260000000000005                  42.945
   152   1      8.1800000000000068      59.305000000000007      47.035000000000004
   153   1      10.225000000000009      57.260000000000005      47.035000000000004
   154   1      10.225000000000009      59.305000000000007      44.990000000000002
   155   1      8.1800000000000068      57.260000000000005      49.080000000000005
   156   1      8.1800000000000068      59.305000000000007      51.125000000000007
   157   1      10.225000000000009      57.260000000000005      51.125000000000007
   158   1      10.225000000000009      59.305000000000007      49.080000000000005
   159   1      8.1800000000000068      57.260000000000005      53.170000000000009
   160   1      8.1800000000000068      59.305000000000007      55.215000000000011
   161   1      10.225000000000009      57.260000000000005      55.215000000000011
   162   1      10.225000000000009      59.305000000000007      53.170000000000009
   163   1      8.1800000000000068      57.260000000000005      57.260000000000005
   164   1      8.1800000000000068      59.305000000000007      59.305000000000007
   165   1      10.225000000000009      57.260000000000005      59.305000000000007
   166   1      10.225000000000009      59.305000000000007      57.260000000000005
   167   1      8.1800000000000068      57.260000000000005      61.350000000000009
   168   1      8.1800000000000068      59.305000000000007       63.39500000000001
   169   1      10.225000000000009      57.260000000000005       63.39500000000001
   170   1      10.225000000000009      59.305000000000007      61.350000000000009
   171   1      8.1800000000000068      57.260000000000005      65.440000000000012
   172   1      8.1800000000000068      59.305000000000007      67.485000000000014
   173   1      10.225000000000009      57.260000000000005      67.485000000000014
   174   1      10.225000000000009      59.305000000000007      65.440000000000012
   175   1      10.225000000000009      57.260000000000005      71.575000000000017
   176   1      10.225000000000009      59.305000000000007      69.530000000000015
   177   1      10.225000000000009      61.350000000000009                  42.945
   178   1      8.1800000000000068       63.39500000000001      47.035000000000004
   179   1      10.225000000000009      61.350000000000009      47.035000000000004
   180   1      10.225000000000009       63.39500000000001      44.990000000000002
   181   1      8.1800000000000068      61.350000000000009      49.080000000000005
   182   1      8.1800000000000068       63.39500000000001      51.125000000000007
   183   1      10.225000000000009      61.350000000000009      51.125000000000007
   184   1      10.225000000000009       63.39500000000001      49.080000000000005
   185   1      8.1800000000000068      61.350000000000009      53.170000000000009
   186   1      8.1800000000000068       63.39500000000001      55.215000000000011
   187   1      10.225000000000009      61.350000000000009      55.215000000000011
   188   1      10.225000000000009       63.39500000000001      53.170000000000009
   189   1      8.1800000000000068      61.350000000000009      57.260000000000005
   190   1      8.1800000000000068       63.39500000000001      59.305000000000007
   191   1      10.225000000000009      61.350000000000009      59.305000000000007
   192   1      10.225000000000009       63.39500000000001      57.260000000000005
   193   1      8.1800000000000068      61.350000000000009      61.350000000000009
   194   1      8.1800000000000068       63.39500000000001       63.39500000000001
   195   1      10.225000000000009      61.350000000000009       63.39500000000001
   196   1      10.225000000000009       63.39500000000001      61.350000000000009
   197   1      8.1800000000000068      61.350000000000009      65.440000000000012
   198   1      8.1800000000000068       63.39500000000001      67.485000000000014
   199   1      10.225000000000009      61.350000000000009      67.485000000000014
   200   1      10.225000000000009       63.39500000000001      65.440000000000012
   201   1      10.225000000000009      61.350000000000009      71.575000000000017
   202   1      10.225000000000009       63.39500000000001      69.530000000000015
   203   1      10.225000000000009      65.440000000000012                  42.945
   204   1      8.1800000000000068      67.485000000000014      47.035000000000004
   205   1      10.225000000000009      65.440000000000012      47.035000000000004
   206   1      10.225000000000009      67.485000000000014      44.990000000000002
   207   1      8.1800000000000068      65.440000000000012      49.080000000000005
   208   1      8.1800000000000068      67.485000000000014      51.125000000000007
   209   1      10.225000000000009      65.440000000000012      51.125000000000007
   210   1      10.225000000000009      67.485000000000014      49.080000000000005
   211   1      8.1800000000000068      65.440000000000012      53.170000000000009
   212   1      8.1800000000000068      67.485000000000014      55.215000000000011
   213   1      10.225000000000009      65.440000000000012      55.215000000000011
   214   1      10.225000000000009      67.485000000000014      53.170000000000009
   215   1      8.1800000000000068      65.440000000000012      57.260000000000005
   216   1      8.1800000000000068      67.485000000000014      59.305000000000007
   217   1      10.225000000000009      65.440000000000012      59.305000000000007
   218   1      10.225000000000009      67.485000000000014      57.260000000000005
   219   1      8.1800000000000068      65.440000000000012      61.350000000000009
   220   1      8.1800000000000068      67.485000000000014       63.39500000000001
   221   1      10.225000000000009      65.440000000000012       63.39500000000001
   222   1      10.225000000000009      67.485000000000014      61.350000000000009
   223   1      8.1800000000000068      65.440000000000012      65.440000000000012
   224   1      8.1800000000000068      67.485000000000014      67.485000000000014
   225   1      10.225000000000009      65.440000000000012      67.485000000000014
   226   1      10.225000000000009      67.485000000000014      65.440000000000012
   227   1      10.225000000000009      65.440000000000012      71.575000000000017
   228   1      10.225000000000009      67.485000000000014      69.530000000000015
   229   1      10.225000000000009      69.530000000000015                  42.945
   230   1      10.225000000000009      69.530000000000015      47.035000000000004
   231   1      10.225000000000009      71.575000000000017      44.990000000000002
   232   1      10.225000000000009      69.530000000000015      51.125000000000007
   233   1      10.225000000000009      71.575000000000017      49.080000000000005
   234   1      10.225000000000009      69.530000000000015      55.215000000000011
   235   1      10.225000000000009      71.575000000000017      53.170000000000009
   236   1      10.225000000000009      69.530000000000015      59.305000000000007
   237   1      10.225000000000009      71.575000000000017      57.260000000000005
   238   1      10.225000000000009      69.530000000000015       63.39500000000001
   239   1      10.225000000000009      71.575000000000017      61.350000000000009
   240   1      10.225000000000009      69.530000000000015      67.485000000000014
   241   1      10.225000000000009      71.575000000000017      65.440000000000012
   242   1      10.225000000000009      69.530000000000015      71.575000000000017
   243   1      10.225000000000009      71.575000000000017      69.530000000000015
   244   1       14.31500000000001      38.855000000000011      40.899999999999999
   245   1       14.31500000000001      38.855000000000011      44.990000000000002
   246   1       14.31500000000001      38.855000000000011      49.080000000000005
   247   1       14.31500000000001      38.855000000000011      53.170000000000009
   248   1       14.31500000000001      38.855000000000011      57.260000000000005
   249   1       14.31500000000001      38.855000000000011      61.350000000000009
   250   1       14.31500000000001      38.855000000000011      65.440000000000012
   251   1       14.31500000000001      38.855000000000011      69.530000000000015
   252   1       14.31500000000001      38.855000000000011      73.620000000000005
   253   1       14.31500000000001      40.899999999999999      38.855000000000011
   254   1       12.27000000000001      40.899999999999999      40.899999999999999
   255   1       12.27000000000001                  42.945                  42.945
   256   1       14.31500000000001      40.899999999999999                  42.945
   257   1       14.31500000000001                  42.945      40.899999999999999
   258   1       12.27000000000001      40.899999999999999      44.990000000000002
   259   1       12.27000000000001                  42.945      47.035000000000004
   260   1       14.31500000000001      40.899999999999999      47.035000000000004
   261   1       14.31500000000001                  42.945      44.990000000000002
   262   1       12.27000000000001      40.899999999999999      49.080000000000005
   263   1       12.27000000000001                  42.945      51.125000000000007
   264   1       14.31500000000001      40.899999999999999      51.125000000000007
   265   1       14.31500000000001                  42.945      49.080000000000005
   266   1       12.27000000000001      40.899999999999999      53.170000000000009
   267   1       12.27000000000001                  42.945      55.215000000000011
   268   1       14.31500000000001      40.899999999999999      55.215000000000011
   269   1       14.31500000000001                  42.945      53.170000000000009
   270   1       12.27000000000001      40.899999999999999      57.260000000000005
   271   1       12.27000000000001                  42.945      59.305000000000007
   272   1       14.31500000000001      40.899999999999999      59.305000000000007
   273   1       14.31500000000001                  42.945      57.260000000000005
   274   1       12.27000000000001      40.899999999999999      61.350000000000009
   275   1       12.27000000000001                  42.945       63.39500000000001
   276   1       14.31500000000001      40.899999999999999       63.39500000000001
   277   1       14.31500000000001                  42.945      61.350000000000009
   278   1       12.27000000000001      40.899999999999999      65.440000000000012
   279   1       12.27000000000001                  42.945      67.485000000000014
   280   1       14.31500000000001      40.899999999999999      67.485000000000014
   281   1       14.31500000000001                  42.945      65.440000000000012
   282   1       12.27000000000001      40.899999999999999      69.530000000000015
   283   1       12.27000000000001                  42.945      71.575000000000017
   284   1       14.31500000000001      40.899999999999999      71.575000000000017
   285   1       14.31500000000001                  42.945      69.530000000000015
   286   1       12.27000000000001      40.899999999999999      73.620000000000005
   287   1       14.31500000000001      40.899999999999999      75.665000000000006
   288   1       14.31500000000001                  42.945      73.620000000000005
   289   1       14.31500000000001      44.990000000000002      38.855000000000011
   290   1       12.27000000000001      44.990000000000002      40.899999999999999
   291   1       12.27000000000001      47.035000000000004                  42.945
   292   1       14.31500000000001      44.990000000000002                  42.945
   293   1       14.31500000000001      47.035000000000004      40.899999999999999
   294   1       12.27000000000001      44.990000000000002      44.990000000000002
   295   1       12.27000000000001      47.035000000000004      47.035000000000004
   296   1       14.31500000000001      44.990000000000002      47.035000000000004
   297   1       14.31500000000001      47.035000000000004      44.990000000000002
   298   1       12.27000000000001      44.990000000000002      49.080000000000005
   299   1       12.27000000000001      47.035000000000004      51.125000000000007
   300   1       14.31500000000001      44.990000000000002      51.125000000000007
   301   1       14.31500000000001      47.035000000000004      49.080000000000005
   302   1       12.27000000000001      44.990000000000002      53.170000000000009
   303   1       12.27000000000001      47.035000000000004      55.215000000000011
   304   1       14.31500000000001      44.990000000000002      55.215000000000011
   305   1       14.31500000000001      47.035000000000004      53.170000000000009
   306   1       12.27000000000001      44.990000000000002      57.260000000000005
   307   1       12.27000000000001      47.035000000000004      59.305000000000007
   308   1       14.31500000000001      44.990000000000002      59.305000000000007
   309   1       14.31500000000001      47.035000000000004      57.260000000000005
   310   1       12.27000000000001      44.990000000000002      61.350000000000009
   311   1       12.27000000000001      47.035000000000004       63.39500000000001
   312   1       14.31500000000001      44.990000000000002       63.39500000000001
   313   1       14.31500000000001      47.035000000000004      61.350000000000009
   314   1       12.27000000000001      44.990000000000002      65.440000000000012
   315   1       12.27000000000001      47.035000000000004      67.485000000000014
   316   1       14.31500000000001      44.990000000000002      67.485000000000014
   317   1       14.31500000000001      47.035000000000004      65.440000000000012
   318   1       12.27000000000001      44.990000000000002      69.530000000000015
   319   1       12.27000000000001      47.035000000000004      71.575000000000017
   320   1       14.31500000000001      44.990000000000002      71.575000000000017
   321   1       14.31500000000001      47.035000000000004      69.530000000000015
   322   1       12.27000000000001      44.990000000000002      73.620000000000005
   323   1       14.31500000000001      44.990000000000002      75.665000000000006
   324   1       14.31500000000001      47.035000000000004      73.620000000000005
   325   1       14.31500000000001      49.080000000000005      38.855000000000011
   326   1       12.27000000000001      49.080000000000005      40.899999999999999
   327   1       12.27000000000001      51.125000000000007                  42.945
   328   1       14.31500000000001      49.080000000000005                  42.945
   329   1       14.31500000000001      51.125000000000007      40.899999999999999
   330   1       12.27000000000001      49.080000000000005      44.990000000000002
   331   1       12.27000000000001      51.125000000000007      47.035000000000004
   332   1       14.31500000000001      49.080000000000005      47.035000000000004
   333   1       14.31500000000001      51.125000000000007      44.990000000000002
   334   1       12.27000000000001      49.080000000000005      49.080000000000005
   335   1       12.27000000000001      51.125000000000007      51.125000000000007
   336   1       14.31500000000001      49.080000000000005      51.125000000000007
   337   1       14.31500000000001      51.125000000000007      49.080000000000005
   338   1       12.27000000000001      49.080000000000005      53.170000000000009
   339   1       12.27000000000001      51.125000000000007      55.215000000000011
   340   1       14.31500000000001      49.080000000000005      55.215000000000011
   341   1       14.31500000000001      51.125000000000007      53.170000000000009
   342   1       12.27000000000001      49.080000000000005      57.260000000000005
   343   1       12.27000000000001      51.125000000000007      59.305000000000007
   344   1       14.31500000000001      49.080000000000005      59.305000000000007
   345   1       14.31500000000001      51.125000000000007      57.260000000000005
   346   1       12.27000000000001      49.080000000000005      61.350000000000009
   347   1       12.27000000000001      51.125000000000007       63.39500000000001
   348   1       14.31500000000001      49.080000000000005       63.39500000000001
   349   1       14.31500000000001      51.125000000000007      61.350000000000009
   350   1       12.27000000000001      49.080000000000005      65.440000000000012
   351   1       12.27000000000001      51.125000000000007      67.485000000000014
   352   1       14.31500000000001      49.080000000000005      67.485000000000014
   353   1       14.31500000000001      51.125000000000007      65.440000000000012
   354   1       12.27000000000001      49.080000000000005      69.530000000000015
   355   1       12.27000000000001      51.125000000000007      71.575000000000017
   356   1       14.31500000000001      49.080000000000005      71.575000000000017
   357   1       14.31500000000001      51.125000000000007      69.530000000000015
   358   1       12.27000000000001      49.080000000000005      73.620000000000005