LAMMPS data file via write_data, version 30 Nov 2020, timestep = 0

30527 atoms
5 atom types

0 82 xlo xhi
0 82 ylo yhi
0 82 zlo zhi

Masses

1 58.7
2 55.8
3 52
4 59
5 63

Atoms # atomic

6 1 3.5700000000000003 23.205000000000002 39.269999999999996 0 0 0
7 1 3.5700000000000003 24.990000000000006 37.485 0 0 0
11 4 3.5700000000000003 26.775000000000002 35.699999999999996 0 0 0
12 3 3.5700000000000003 28.560000000000002 33.915 0 0 0
13 3 3.5700000000000003 26.775000000000002 39.269999999999996 0 0 0
14 4 3.5700000000000003 28.560000000000002 37.485 0 0 0
20 4 3.5700000000000003 30.345 32.129999999999995 0 0 0
21 3 3.5700000000000003 32.129999999999995 30.345 0 0 0
22 3 3.5700000000000003 30.345 35.699999999999996 0 0 0
23 2 3.5700000000000003 32.129999999999995 33.915 0 0 0
24 4 1.785000000000004 32.129999999999995 39.269999999999996 0 0 0
25 2 3.5700000000000003 30.345 39.269999999999996 0 0 0
26 3 3.5700000000000003 32.129999999999995 37.485 0 0 0
36 4 3.5700000000000003 33.915 28.560000000000002 0 0 0
37 4 3.5700000000000003 35.699999999999996 26.775000000000002 0 0 0
38 5 3.5700000000000003 33.915 32.129999999999995 0 0 0
39 4 3.5700000000000003 35.699999999999996 30.345 0 0 0
40 5 1.785000000000004 35.699999999999996 35.699999999999996 0 0 0
41 5 3.5700000000000003 33.915 35.699999999999996 0 0 0
42 2 3.5700000000000003 35.699999999999996 33.915 0 0 0
43 4 1.785000000000004 33.915 37.485 0 0 0
44 3 1.785000000000004 35.699999999999996 39.269999999999996 0 0 0
45 2 3.5700000000000003 33.915 39.269999999999996 0 0 0
46 5 3.5700000000000003 35.699999999999996 37.485 0 0 0
60 2 3.5700000000000003 37.485 24.990000000000006 0 0 0
61 3 3.5700000000000003 39.269999999999996 23.205000000000002 0 0 0
62 2 3.5700000000000003 37.485 28.560000000000002 0 0 0
63 3 3.5700000000000003 39.269999999999996 26.775000000000002 0 0 0
64 1 1.785000000000004 39.269999999999996 32.129999999999995 0 0 0
65 2 3.5700000000000003 37.485 32.129999999999995 0 0 0
66 3 3.5700000000000003 39.269999999999996 30.345 0 0 0
67 1 1.785000000000004 37.485 33.915 0 0 0
68 3 1.785000000000004 39.269999999999996 35.699999999999996 0 0 0
69 2 3.5700000000000003 37.485 35.699999999999996 0 0 0
70 4 3.5700000000000003 39.269999999999996 33.915 0 0 0
71 3 1.785000000000004 37.485 37.485 0 0 0
72 4 1.785000000000004 39.269999999999996 39.269999999999996 0 0 0
73 1 3.5700000000000003 37.485 39.269999999999996 0 0 0
74 4 3.5700000000000003 39.269999999999996 37.485 0 0 0
198 4 7.140000000000001 7.140000000000001 37.485 0 0 0
201 3 7.140000000000001 8.925000000000004 35.699999999999996 0 0 0
202 5 7.140000000000001 10.71 33.915 0 0 0
203 4 7.140000000000001 8.925000000000004 39.269999999999996 0 0 0
204 5 7.140000000000001 10.71 37.485 0 0 0
210 2 7.140000000000001 12.495000000000005 32.129999999999995 0 0 0
211 4 7.140000000000001 14.280000000000001 30.345 0 0 0
212 3 7.140000000000001 12.495000000000005 35.699999999999996 0 0 0
213 4 7.140000000000001 14.280000000000001 33.915 0 0 0
214 5 5.355000000000004 14.280000000000001 39.269999999999996 0 0 0
215 4 7.140000000000001 12.495000000000005 39.269999999999996 0 0 0
216 1 7.140000000000001 14.280000000000001 37.485 0 0 0
226 5 7.140000000000001 16.065 28.560000000000002 0 0 0
227 3 7.140000000000001 17.85 26.775000000000002 0 0 0
228 4 7.140000000000001 16.065 32.129999999999995 0 0 0
229 1 7.140000000000001 17.85 30.345 0 0 0
230 1 5.355000000000004 17.85 35.699999999999996 0 0 0
231 3 7.140000000000001 16.065 35.699999999999996 0 0 0
232 3 7.140000000000001 17.85 33.915 0 0 0
233 2 5.355000000000004 16.065 37.485 0 0 0
234 3 5.355000000000004 17.85 39.269999999999996 0 0 0
235 5 7.140000000000001 16.065 39.269999999999996 0 0 0
236 4 7.140000000000001 17.85 37.485 0 0 0
250 3 7.140000000000001 19.635 24.990000000000006 0 0 0
251 5 7.140000000000001 21.42 23.205000000000002 0 0 0
252 4 7.140000000000001 19.635 28.560000000000002 0 0 0
253 2 7.140000000000001 21.42 26.775000000000002 0 0 0
254 5 5.355000000000004 21.42 32.129999999999995 0 0 0
255 2 7.140000000000001 19.635 32.129999999999995 0 0 0
256 2 7.140000000000001 21.42 30.345 0 0 0
257 3 5.355000000000004 19.635 33.915 0 0 0
258 4 5.355000000000004 21.42 35.699999999999996 0 0 0
259 3 7.140000000000001 19.635 35.699999999999996 0 0 0
260 2 7.140000000000001 21.42 33.915 0 0 0
261 4 5.355000000000004 19.635 37.485 0 0 0
262 4 5.355000000000004 21.42 39.269999999999996 0 0 0
263 3 7.140000000000001 19.635 39.269999999999996 0 0 0
264 5 7.140000000000001 21.42 37.485 0 0 0
282 4 7.140000000000001 23.205000000000002 21.42 0 0 0
283 5 7.140000000000001 24.990000000000006 19.635 0 0 0
284 3 7.140000000000001 23.205000000000002 24.990000000000006 0 0 0
285 1 7.140000000000001 24.990000000000006 23.205000000000002 0 0 0
286 4 5.355000000000004 24.990000000000006 28.560000000000002 0 0 0
287 2 7.140000000000001 23.205000000000002 28.560000000000002 0 0 0
288 5 7.140000000000001 24.990000000000006 26.775000000000002 0 0 0
289 5 5.355000000000004 23.205000000000002 30.345 0 0 0
290 2 5.355000000000004 24.990000000000006 32.129999999999995 0 0 0
291 4 7.140000000000001 23.205000000000002 32.129999999999995 0 0 0
292 3 7.140000000000001 24.990000000000006 30.345 0 0 0
293 4 5.355000000000004 23.205000000000002 33.915 0 0 0
294 2 5.355000000000004 24.990000000000006 35.699999999999996 0 0 0
295 5 7.140000000000001 23.205000000000002 35.699999999999996 0 0 0
296 1 7.140000000000001 24.990000000000006 33.915 0 0 0
297 4 5.355000000000004 23.205000000000002 37.485 0 0 0
298 5 5.355000000000004 24.990000000000006 39.269999999999996 0 0 0
299 2 7.140000000000001 23.205000000000002 39.269999999999996 0 0 0
300 2 7.140000000000001 24.990000000000006 37.485 0 0 0
322 5 7.140000000000001 26.775000000000002 17.85 0 0 0
323 5 7.140000000000001 28.560000000000002 16.065 0 0 0
324 3 7.140000000000001 26.775000000000002 21.42 0 0 0
325 1 7.140000000000001 28.560000000000002 19.635 0 0 0
326 2 5.355000000000004 28.560000000000002 24.990000000000006 0 0 0
327 5 7.140000000000001 26.775000000000002 24.990000000000006 0 0 0
328 4 7.140000000000001 28.560000000000002 23.205000000000002 0 0 0
329 2 5.355000000000004 26.775000000000002 26.775000000000002 0 0 0
330 3 5.355000000000004 28.560000000000002 28.560000000000002 0 0 0
331 1 7.140000000000001 26.775000000000002 28.560000000000002 0 0 0
332 4 7.140000000000001 28.560000000000002 26.775000000000002 0 0 0
333 2 5.355000000000004 26.775000000000002 30.345 0 0 0
334 4 5.355000000000004 28.560000000000002 32.129999999999995 0 0 0
335 1 7.140000000000001 26.775000000000002 32.129999999999995 0 0 0
336 5 7.140000000000001 28.560000000000002 30.345 0 0 0
337 1 5.355000000000004 26.775000000000002 33.915 0 0 0
338 4 5.355000000000004 28.560000000000002 35.699999999999996 0 0 0
339 1 7.140000000000001 26.775000000000002 35.699999999999996 0 0 0
340 1 7.140000000000001 28.560000000000002 33.915 0 0 0
341 1 5.355000000000004 26.775000000000002 37.485 0 0 0
342 4 5.355000000000004 28.560000000000002 39.269999999999996 0 0 0
343 5 7.140000000000001 26.775000000000002 39.269999999999996 0 0 0
344 1 7.140000000000001 28.560000000000002 37.485 0 0 0
370 2 7.140000000000001 30.345 14.280000000000001 0 0 0
371 4 7.140000000000001 32.129999999999995 12.495000000000005 0 0 0
372 2 7.140000000000001 30.345 17.85 0 0 0
373 5 7.140000000000001 32.129999999999995 16.065 0 0 0
374 5 5.355000000000004 32.129999999999995 21.42 0 0 0
375 5 7.140000000000001 30.345 21.42 0 0 0
376 5 7.140000000000001 32.129999999999995 19.635 0 0 0
377 1 5.355000000000004 30.345 23.205000000000002 0 0 0
378 5 5.355000000000004 32.129999999999995 24.990000000000006 0 0 0
379 3 7.140000000000001 30.345 24.990000000000006 0 0 0
380 3 7.140000000000001 32.129999999999995 23.205000000000002 0 0 0
381 3 5.355000000000004 30.345 26.775000000000002 0 0 0
382 1 5.355000000000004 32.129999999999995 28.560000000000002 0 0 0
383 5 7.140000000000001 30.345 28.560000000000002 0 0 0
384 5 7.140000000000001 32.129999999999995 26.775000000000002 0 0 0
385 4 5.355000000000004 30.345 30.345 0 0 0
386 3 5.355000000000004 32.129999999999995 32.129999999999995 0 0 0
387 4 7.140000000000001 30.345 32.129999999999995 0 0 0
388 4 7.140000000000001 32.129999999999995 30.345 0 0 0
389 2 5.355000000000004 30.345 33.915 0 0 0
390 1 5.355000000000004 32.129999999999995 35.699999999999996 0 0 0
391 4 7.140000000000001 30.345 35.699999999999996 0 0 0
392 3 7.140000000000001 32.129999999999995 33.915 0 0 0
393 2 5.355000000000004 30.345 37.485 0 0 0
394 2 5.355000000000004 32.129999999999995 39.269999999999996 0 0 0
395 4 7.140000000000001 30.345 39.269999999999996 0 0 0
396 3 7.140000000000001 32.129999999999995 37.485 0 0 0
426 1 7.140000000000001 33.915 10.71 0 0 0
427 3 7.140000000000001 35.699999999999996 8.925000000000004 0 0 0
428 2 7.140000000000001 33.915 14.280000000000001 0 0 0
429 1 7.140000000000001 35.699999999999996 12.495000000000005 0 0 0
430 2 5.355000000000004 35.699999999999996 17.85 0 0 0
431 2 7.140000000000001 33.915 17.85 0 0 0
432 5 7.140000000000001 35.699999999999996 16.065 0 0 0
433 2 5.355000000000004 33.915 19.635 0 0 0
434 4 5.355000000000004 35.699999999999996 21.42 0 0 0
435 2 7.140000000000001 33.915 21.42 0 0 0
436 3 7.140000000000001 35.699999999999996 19.635 0 0 0
437 4 5.355000000000004 33.915 23.205000000000002 0 0 0
438 2 5.355000000000004 35.699999999999996 24.990000000000006 0 0 0
439 3 7.140000000000001 33.915 24.990000000000006 0 0 0
440 5 7.140000000000001 35.699999999999996 23.205000000000002 0 0 0
441 2 5.355000000000004 33.915 26.775000000000002 0 0 0
442 4 5.355000000000004 35.699999999999996 28.560000000000002 0 0 0
443 3 7.140000000000001 33.915 28.560000000000002 0 0 0
444 1 7.140000000000001 35.699999999999996 26.775000000000002 0 0 0
445 4 5.355000000000004 33.915 30.345 0 0 0
446 2 5.355000000000004 35.699999999999996 32.129999999999995 0 0 0
447 2 7.140000000000001 33.915 32.129999999999995 0 0 0
448 1 7.140000000000001 35.699999999999996 30.345 0 0 0
449 1 5.355000000000004 33.915 33.915 0 0 0
450 4 5.355000000000004 35.699999999999996 35.699999999999996 0 0 0
451 4 7.140000000000001 33.915 35.699999999999996 0 0 0
452 2 7.140000000000001 35.699999999999996 33.915 0 0 0
453 4 5.355000000000004 33.915 37.485 0 0 0
454 3 5.355000000000004 35.699999999999996 39.269999999999996 0 0 0
455 3 7.140000000000001 33.915 39.269999999999996 0 0 0
456 5 7.140000000000001 35.699999999999996 37.485 0 0 0
490 3 7.140000000000001 37.485 7.140000000000001 0 0 0
491 5 7.140000000000001 37.485 10.71 0 0 0
492 4 7.140000000000001 39.269999999999996 8.925000000000004 0 0 0
493 2 5.355000000000004 39.269999999999996 14.280000000000001 0 0 0
494 5 7.140000000000001 37.485 14.280000000000001 0 0 0
495 2 7.140000000000001 39.269999999999996 12.495000000000005 0 0 0
496 3 5.355000000000004 37.485 16.065 0 0 0
497 2 5.355000000000004 39.269999999999996 17.85 0 0 0
498 3 7.140000000000001 37.485 17.85 0 0 0
499 4 7.140000000000001 39.269999999999996 16.065 0 0 0
500 3 5.355000000000004 37.485 19.635 0 0 0
501 2 5.355000000000004 39.269999999999996 21.42 0 0 0
502 3 7.140000000000001 37.485 21.42 0 0 0
503 1 7.140000000000001 39.269999999999996 19.635 0 0 0
504 4 5.355000000000004 37.485 23.205000000000002 0 0 0
505 1 5.355000000000004 39.269999999999996 24.990000000000006 0 0 0
506 5 7.140000000000001 37.485 24.990000000000006 0 0 0
507 5 7.140000000000001 39.269999999999996 23.205000000000002 0 0 0
508 5 5.355000000000004 37.485 26.775000000000002 0 0 0
509 4 5.355000000000004 39.269999999999996 28.560000000000002 0 0 0
510 1 7.140000000000001 37.485 28.560000000000002 0 0 0
511 2 7.140000000000001 39.269999999999996 26.775000000000002 0 0 0
512 4 5.355000000000004 37.485 30.345 0 0 0
513 4 5.355000000000004 39.269999999999996 32.129999999999995 0 0 0
514 2 7.140000000000001 37.485 32.129999999999995 0 0 0
515 5 7.140000000000001 39.269999999999996 30.345 0 0 0
516 2 5.355000000000004 37.485 33.915 0 0 0
517 3 5.355000000000004 39.269999999999996 35.699999999999996 0 0 0
518 2 7.140000000000001 37.485 35.699999999999996 0 0 0
519 2 7.140000000000001 39.269999999999996 33.915 0 0 0
520 4 5.355000000000004 37.485 37.485 0 0 0
521 2 5.355000000000004 39.269999999999996 39.269999999999996 0 0 0
522 3 7.140000000000001 37.485 39.269999999999996 0 0 0
523 5 7.140000000000001 39.269999999999996 37.485 0 0 0
959 4 8.925000000000004 7.140000000000001 35.699999999999996 0 0 0
960 3 10.71 7.140000000000001 33.915 0 0 0
961 3 8.925000000000004 7.140000000000001 39.269999999999996 0 0 0
962 1 10.71 7.140000000000001 37.485 0 0 0
968 4 10.71 10.71 16.065 0 0 0
969 2 10.71 10.71 19.635 0 0 0
970 2 8.925000000000004 10.71 24.990000000000006 0 0 0
971 2 10.71 8.925000000000004 24.990000000000006 0 0 0
972 1 10.71 10.71 23.205000000000002 0 0 0
973 2 8.925000000000004 8.925000000000004 26.775000000000002 0 0 0
974 5 8.925000000000004 10.71 28.560000000000002 0 0 0
975 4 10.71 8.925000000000004 28.560000000000002 0 0 0
976 5 10.71 10.71 26.775000000000002 0 0 0
977 1 8.925000000000004 8.925000000000004 30.345 0 0 0
978 2 8.925000000000004 10.71 32.129999999999995 0 0 0
979 5 10.71 8.925000000000004 32.129999999999995 0 0 0
980 1 10.71 10.71 30.345 0 0 0
981 1 8.925000000000004 8.925000000000004 33.915 0 0 0
982 2 8.925000000000004 10.71 35.699999999999996 0 0 0
983 5 10.71 8.925000000000004 35.699999999999996 0 0 0
984 5 10.71 10.71 33.915 0 0 0
985 5 8.925000000000004 8.925000000000004 37.485 0 0 0
986 2 8.925000000000004 10.71 39.269999999999996 0 0 0
987 4 10.71 8.925000000000004 39.269999999999996 0 0 0
988 3 10.71 10.71 37.485 0 0 0
1012 2 10.71 12.495000000000005 14.280000000000001 0 0 0
1013 4 10.71 14.280000000000001 12.495000000000005 0 0 0
1014 2 10.71 12.495000000000005 17.85 0 0 0
1015 1 10.71 14.280000000000001 16.065 0 0 0
1016 1 8.925000000000004 14.280000000000001 21.42 0 0 0
1017 1 10.71 12.495000000000005 21.42 0 0 0
1018 5 10.71 14.280000000000001 19.635 0 0 0
1019 1 8.925000000000004 12.495000000000005 23.205000000000002 0 0 0
1020 1 8.925000000000004 14.280000000000001 24.990000000000006 0 0 0
1021 3 10.71 12.495000000000005 24.990000000000006 0 0 0
1022 1 10.71 14.280000000000001 23.205000000000002 0 0 0
1023 4 8.925000000000004 12.495000000000005 26.775000000000002 0 0 0
1024 3 8.925000000000004 14.280000000000001 28.560000000000002 0 0 0
1025 1 10.71 12.495000000000005 28.560000000000002 0 0 0
1026 3 10.71 14.280000000000001 26.775000000000002 0 0 0
1027 1 8.925000000000004 12.495000000000005 30.345 0 0 0
1028 2 8.925000000000004 14.280000000000001 32.129999999999995 0 0 0
1029 3 10.71 12.495000000000005 32.129999999999995 0 0 0
1030 5 10.71 14.280000000000001 30.345 0 0 0
1031 5 8.925000000000004 12.495000000000005 33.915 0 0 0
1032 3 8.925000000000004 14.280000000000001 35.699999999999996 0 0 0
1033 3 10.71 12.495000000000005 35.699999999999996 0 0 0
1034 3 10.71 14.280000000000001 33.915 0 0 0
1035 5 8.925000000000004 12.495000000000005 37.485 0 0 0
1036 4 8.925000000000004 14.280000000000001 39.269999999999996 0 0 0
1037 4 10.71 12.495000000000005 39.269999999999996 0 0 0
1038 2 10.71 14.280000000000001 37.485 0 0 0
1068 4 10.71 16.065 10.71 0 0 0
1069 3 10.71 16.065 14.280000000000001 0 0 0
1070 4 10.71 17.85 12.495000000000005 0 0 0
1071 4 8.925000000000004 17.85 17.85 0 0 0
1072 5 10.71 16.065 17.85 0 0 0
1073 3 10.71 17.85 16.065 0 0 0
1074 3 8.925000000000004 16.065 19.635 0 0 0
1075 4 8.925000000000004 17.85 21.42 0 0 0
1076 5 10.71 16.065 21.42 0 0 0
1077 5 10.71 17.85 19.635 0 0 0
1078 5 8.925000000000004 16.065 23.205000000000002 0 0 0
1079 1 8.925000000000004 17.85 24.990000000000006 0 0 0
1080 5 10.71 16.065 24.990000000000006 0 0 0
1081 1 10.71 17.85 23.205000000000002 0 0 0
1082 1 8.925000000000004 16.065 26.775000000000002 0 0 0
1083 4 8.925000000000004 17.85 28.560000000000002 0 0 0
1084 2 10.71 16.065 28.560000000000002 0 0 0
1085 2 10.71 17.85 26.775000000000002 0 0 0
1086 1 8.925000000000004 16.065 30.345 0 0 0
1087 5 8.925000000000004 17.85 32.129999999999995 0 0 0
1088 4 10.71 16.065 32.129999999999995 0 0 0
1089 3 10.71 17.85 30.345 0 0 0
1090 2 8.925000000000004 16.065 33.915 0 0 0
1091 1 8.925000000000004 17.85 35.699999999999996 0 0 0
1092 4 10.71 16.065 35.699999999999996 0 0 0
1093 4 10.71 17.85 33.915 0 0 0
1094 2 8.925000000000004 16.065 37.485 0 0 0
1095 3 8.925000000000004 17.85 39.269999999999996 0 0 0
1096 4 10.71 16.065 39.269999999999996 0 0 0
1097 2 10.71 17.85 37.485 0 0 0
1130 4 10.71 19.635 10.71 0 0 0
1131 1 8.925000000000004 21.42 14.280000000000001 0 0 0
1132 3 10.71 19.635 14.280000000000001 0 0 0
1133 4 10.71 21.42 12.495000000000005 0 0 0
1134 3 8.925000000000004 19.635 16.065 0 0 0
1135 4 8.925000000000004 21.42 17.85 0 0 0
1136 1 10.71 19.635 17.85 0 0 0
1137 2 10.71 21.42 16.065 0 0 0
1138 1 8.925000000000004 19.635 19.635 0 0 0
1139 2 8.925000000000004 21.42 21.42 0 0 0
1140 4 10.71 19.635 21.42 0 0 0
1141 5 10.71 21.42 19.635 0 0 0
1142 2 8.925000000000004 19.635 23.205000000000002 0 0 0
1143 4 8.925000000000004 21.42 24.990000000000006 0 0 0
1144 1 10.71 19.635 24.990000000000006 0 0 0
1145 2 10.71 21.42 23.205000000000002 0 0 0
1146 1 8.925000000000004 19.635 26.775000000000002 0 0 0
1147 1 8.925000000000004 21.42 28.560000000000002 0 0 0
1148 5 10.71 19.635 28.560000000000002 0 0 0
1149 5 10.71 21.42 26.775000000000002 0 0 0
1150 3 8.925000000000004 19.635 30.345 0 0 0
1151 2 8.925000000000004 21.42 32.129999999999995 0 0 0
1152 1 10.71 19.635 32.129999999999995 0 0 0
1153 2 10.71 21.42 30.345 0 0 0
1154 3 8.925000000000004 19.635 33.915 0 0 0
1155 1 8.925000000000004 21.42 35.699999999999996 0 0 0
1156 2 10.71 19.635 35.699999999999996 0 0 0
1157 5 10.71 21.42 33.915 0 0 0
1158 2 8.925000000000004 19.635 37.485 0 0 0
1159 5 8.925000000000004 21.42 39.269999999999996 0 0 0
1160 5 10.71 19.635 39.269999999999996 0 0 0
1161 3 10.71 21.42 37.485 0 0 0
1196 1 8.925000000000004 24.990000000000006 10.71 0 0 0
1197 3 10.71 23.205000000000002 10.71 0 0 0
1198 2 10.71 24.990000000000006 8.925000000000004 0 0 0
1199 1 8.925000000000004 23.205000000000002 12.495000000000005 0 0 0
1200 3 8.925000000000004 24.990000000000006 14.280000000000001 0 0 0
1201 2 10.71 23.205000000000002 14.280000000000001 0 0 0
1202 2 10.71 24.990000000000006 12.495000000000005 0 0 0
1203 4 8.925000000000004 23.205000000000002 16.065 0 0 0
1204 2 8.925000000000004 24.990000000000006 17.85 0 0 0
1205 2 10.71 23.205000000000002 17.85 0 0 0
1206 5 10.71 24.990000000000006 16.065 0 0 0
1207 1 8.925000000000004 23.205000000000002 19.635 0 0 0
1208 1 8.925000000000004 24.990000000000006 21.42 0 0 0
1209 1 10.71 23.205000000000002 21.42 0 0 0
1210 3 10.71 24.990000000000006 19.635 0 0 0
1211 5 8.925000000000004 23.205000000000002 23.205000000000002 0 0 0
1212 2 8.925000000000004 24.990000000000006 24.990000000000006 0 0 0
1213 2 10.71 23.205000000000002 24.990000000000006 0 0 0
1214 4 10.71 24.990000000000006 23.205000000000002 0 0 0
1215 1 8.925000000000004 23.205000000000002 26.775000000000002 0 0 0
1216 4 8.925000000000004 24.990000000000006 28.560000000000002 0 0 0
1217 1 10.71 23.205000000000002 28.560000000000002 0 0 0
1218 5 10.71 24.990000000000006 26.775000000000002 0 0 0
1219 4 8.925000000000004 23.205000000000002 30.345 0 0 0
1220 3 8.925000000000004 24.990000000000006 32.129999999999995 0 0 0
1221 2 10.71 23.205000000000002 32.129999999999995 0 0 0
1222 5 10.71 24.990000000000006 30.345 0 0 0
1223 4 8.925000000000004 23.205000000000002 33.915 0 0 0
1224 1 8.925000000000004 24.990000000000006 35.699999999999996 0 0 0
1225 1 10.71 23.205000000000002 35.699999999999996 0 0 0
1226 1 10.71 24.990000000000006 33.915 0 0 0
1227 2 8.925000000000004 23.205000000000002 37.485 0 0 0
1228 4 8.925000000000004 24.990000000000006 39.269999999999996 0 0 0
1229 1 10.71 23.205000000000002 39.269999999999996 0 0 0
1230 4 10.71 24.990000000000006 37.485 0 0 0
1268 3 8.925000000000004 26.775000000000002 8.925000000000004 0 0 0
1269 3 8.925000000000004 28.560000000000002 10.71 0 0 0
1270 2 10.71 26.775000000000002 10.71 0 0 0
1271 3 10.71 28.560000000000002 8.925000000000004 0 0 0
1272 5 8.925000000000004 26.775000000000002 12.495000000000005 0 0 0
1273 1 8.925000000000004 28.560000000000002 14.280000000000001 0 0 0
1274 3 10.71 26.775000000000002 14.280000000000001 0 0 0
1275 4 10.71 28.560000000000002 12.495000000000005 0 0 0
1276 4 8.925000000000004 26.775000000000002 16.065 0 0 0
1277 4 8.925000000000004 28.560000000000002 17.85 0 0 0
1278 5 10.71 26.775000000000002 17.85 0 0 0
1279 5 10.71 28.560000000000002 16.065 0 0 0
1280 3 8.925000000000004 26.775000000000002 19.635 0 0 0
1281 5 8.925000000000004 28.560000000000002 21.42 0 0 0
1282 1 10.71 26.775000000000002 21.42 0 0 0
1283 4 10.71 28.560000000000002 19.635 0 0 0
1284 2 8.925000000000004 26.775000000000002 23.205000000000002 0 0 0
1285 2 8.925000000000004 28.560000000000002 24.990000000000006 0 0 0
1286 3 10.71 26.775000000000002 24.990000000000006 0 0 0
1287 5 10.71 28.560000000000002 23.205000000000002 0 0 0
1288 4 8.925000000000004 26.775000000000002 26.775000000000002 0 0 0
1289 1 8.925000000000004 28.560000000000002 28.560000000000002 0 0 0
1290 2 10.71 26.775000000000002 28.560000000000002 0 0 0
1291 3 10.71 28.560000000000002 26.775000000000002 0 0 0
1292 3 8.925000000000004 26.775000000000002 30.345 0 0 0
1293 4 8.925000000000004 28.560000000000002 32.129999999999995 0 0 0
1294 2 10.71 26.775000000000002 32.129999999999995 0 0 0
1295 3 10.71 28.560000000000002 30.345 0 0 0
1296 2 8.925000000000004 26.775000000000002 33.915 0 0 0
1297 3 8.925000000000004 28.560000000000002 35.699999999999996 0 0 0
1298 2 10.71 26.775000000000002 35.699999999999996 0 0 0
1299 3 10.71 28.560000000000002 33.915 0 0 0
1300 4 8.925000000000004 26.775000000000002 37.485 0 0 0
1301 3 8.925000000000004 28.560000000000002 39.269999999999996 0 0 0
1302 3 10.71 26.775000000000002 39.269999999999996 0 0 0
1303 2 10.71 28.560000000000002 37.485 0 0 0
1342 5 8.925000000000004 30.345 8.925000000000004 0 0 0
1343 4 8.925000000000004 32.129999999999995 10.71 0 0 0
1344 2 10.71 30.345 10.71 0 0 0
1345 4 10.71 32.129999999999995 8.925000000000004 0 0 0
1346 1 8.925000000000004 30.345 12.495000000000005 0 0 0
1347 4 8.925000000000004 32.129999999999995 14.280000000000001 0 0 0
1348 3 10.71 30.345 14.280000000000001 0 0 0
1349 4 10.71 32.129999999999995 12.495000000000005 0 0 0
1350 3 8.925000000000004 30.345 16.065 0 0 0
1351 1 8.925000000000004 32.129999999999995 17.85 0 0 0
1352 1 10.71 30.345 17.85 0 0 0
1353 3 10.71 32.129999999999995 16.065 0 0 0
1354 3 8.925000000000004 30.345 19.635 0 0 0
1355 3 8.925000000000004 32.129999999999995 21.42 0 0 0
1356 1 10.71 30.345 21.42 0 0 0
1357 1 10.71 32.129999999999995 19.635 0 0 0
1358 2 8.925000000000004 30.345 23.205000000000002 0 0 0
1359 2 8.925000000000004 32.129999999999995 24.990000000000006 0 0 0
1360 5 10.71 30.345 24.990000000000006 0 0 0
1361 3 10.71 32.129999999999995 23.205000000000002 0 0 0
1362 2 8.925000000000004 30.345 26.775000000000002 0 0 0
1363 4 8.925000000000004 32.129999999999995 28.560000000000002 0 0 0
1364 2 10.71 30.345 28.560000000000002 0 0 0
1365 2 10.71 32.129999999999995 26.775000000000002 0 0 0
1366 4 8.925000000000004 30.345 30.345 0 0 0
1367 2 8.925000000000004 32.129999999999995 32.129999999999995 0 0 0
1368 5 10.71 30.345 32.129999999999995 0 0 0
1369 2 10.71 32.129999999999995 30.345 0 0 0
1370 4 8.925000000000004 30.345 33.915 0 0 0
1371 5 8.925000000000004 32.129999999999995 35.699999999999996 0 0 0
1372 4 10.71 30.345 35.699999999999996 0 0 0
1373 2 10.71 32.129999999999995 33.915 0 0 0
1374 2 8.925000000000004 30.345 37.485 0 0 0
1375 4 8.925000000000004 32.129999999999995 39.269999999999996 0 0 0
1376 3 10.71 30.345 39.269999999999996 0 0 0
1377 1 10.71 32.129999999999995 37.485 0 0 0
1416 4 8.925000000000004 35.699999999999996 7.140000000000001 0 0 0
1417 5 10.71 33.915 7.140000000000001 0 0 0
1418 2 8.925000000000004 33.915 8.925000000000004 0 0 0
1419 1 8.925000000000004 35.699999999999996 10.71 0 0 0
1420 2 10.71 33.915 10.71 0 0 0
1421 4 10.71 35.699999999999996 8.925000000000004 0 0 0
1422 5 8.925000000000004 33.915 12.495000000000005 0 0 0
1423 3 8.925000000000004 35.699999999999996 14.280000000000001 0 0 0
1424 2 10.71 33.915 14.280000000000001 0 0 0
1425 5 10.71 35.699999999999996 12.495000000000005 0 0 0
1426 3 8.925000000000004 33.915 16.065 0 0 0
1427 2 8.925000000000004 35.699999999999996 17.85 0 0 0
1428 4 10.71 33.915 17.85 0 0 0
1429 2 10.71 35.699999999999996 16.065 0 0 0
1430 4 8.925000000000004 33.915 19.635 0 0 0
1431 2 8.925000000000004 35.699999999999996 21.42 0 0 0
1432 5 10.71 33.915 21.42 0 0 0
1433 2 10.71 35.699999999999996 19.635 0 0 0
1434 1 8.925000000000004 33.915 23.205000000000002 0 0 0
1435 2 8.925000000000004 35.699999999999996 24.990000000000006 0 0 0
1436 2 10.71 33.915 24.990000000000006 0 0 0
1437 1 10.71 35.699999999999996 23.205000000000002 0 0 0
1438 5 8.925000000000004 33.915 26.775000000000002 0 0 0
1439 2 8.925000000000004 35.699999999999996 28.560000000000002 0 0 0
1440 2 10.71 33.915 28.560000000000002 0 0 0
1441 2 10.71 35.699999999999996 26.775000000000002 0 0 0
1442 1 8.925000000000004 33.915 30.345 0 0 0
1443 3 8.925000000000004 35.699999999999996 32.129999999999995 0 0 0
1444 1 10.71 33.915 32.129999999999995 0 0 0
1445 2 10.71 35.699999999999996 30.345 0 0 0
1446 4 8.925000000000004 33.915 33.915 0 0 0
1447 3 8.925000000000004 35.699999999999996 35.699999999999996 0 0 0
1448 1 10.71 33.915 35.699999999999996 0 0 0
1449 3 10.71 35.699999999999996 33.915 0 0 0
1450 1 8.925000000000004 33.915 37.485 0 0 0
1451 1 8.925000000000004 35.699999999999996 39.269999999999996 0 0 0
1452 5 10.71 33.915 39.269999999999996 0 0 0
1453 4 10.71 35.699999999999996 37.485 0 0 0
1494 5 8.925000000000004 39.269999999999996 7.140000000000001 0 0 0
1495 1 10.71 37.485 7.140000000000001 0 0 0
1496 2 8.925000000000004 37.485 8.925000000000004 0 0 0
1497 2 8.925000000000004 39.269999999999996 10.71 0 0 0
1498 2 10.71 37.485 10.71 0 0 0
1499 5 10.71 39.269999999999996 8.925000000000004 0 0 0
1500 2 8.925000000000004 37.485 12.495000000000005 0 0 0
1501 5 8.925000000000004 39.269999999999996 14.280000000000001 0 0 0
1502 2 10.71 37.485 14.280000000000001 0 0 0
1503 4 10.71 39.269999999999996 12.495000000000005 0 0 0
1504 1 8.925000000000004 37.485 16.065 0 0 0
1505 4 8.925000000000004 39.269999999999996 17.85 0 0 0
1506 3 10.71 37.485 17.85 0 0 0
1507 2 10.71 39.269999999999996 16.065 0 0 0
1508 2 8.925000000000004 37.485 19.635 0 0 0
1509 5 8.925000000000004 39.269999999999996 21.42 0 0 0
1510 1 10.71 37.485 21.42 0 0 0
1511 5 10.71 39.269999999999996 19.635 0 0 0
1512 3 8.925000000000004 37.485 23.205000000000002 0 0 0
1513 4 8.925000000000004 39.269999999999996 24.990000000000006 0 0 0
1514 2 10.71 37.485 24.990000000000006 0 0 0
1515 1 10.71 39.269999999999996 23.205000000000002 0 0 0
1516 2 8.925000000000004 37.485 26.775000000000002 0 0 0
1517 5 8.925000000000004 39.269999999999996 28.560000000000002 0 0 0
1518 5 10.71 37.485 28.560000000000002 0 0 0
1519 4 10.71 39.269999999999996 26.775000000000002 0 0 0
1520 3 8.925000000000004 37.485 30.345 0 0 0
1521 1 8.925000000000004 39.269999999999996 32.129999999999995 0 0 0
1522 1 10.71 37.485 32.129999999999995 0 0 0
1523 1 10.71 39.269999999999996 30.345 0 0 0
1524 1 8.925000000000004 37.485 33.915 0 0 0
1525 4 8.925000000000004 39.269999999999996 35.699999999999996 0 0 0
1526 4 10.71 37.485 35.699999999999996 0 0 0
1527 2 10.71 39.269999999999996 33.915 0 0 0
1528 5 8.925000000000004 37.485 37.485 0 0 0
1529 3 8.925000000000004 39.269999999999996 39.269999999999996 0 0 0
1530 1 10.71 37.485 39.269999999999996 0 0 0
1531 4 10.71 39.269999999999996 37.485 0 0 0
2224 5 12.495000000000005 7.140000000000001 32.129999999999995 0 0 0
2225 5 14.280000000000001 7.140000000000001 30.345 0 0 0
2226 3 12.495000000000005 7.140000000000001 35.699999999999996 0 0 0
2227 2 14.280000000000001 7.140000000000001 33.915 0 0 0
2228 2 12.495000000000005 7.140000000000001 39.269999999999996 0 0 0
2229 5 14.280000000000001 5.355000000000004 39.269999999999996 0 0 0
2230 1 14.280000000000001 7.140000000000001 37.485 0 0 0
2240 4 12.495000000000005 10.71 14.280000000000001 0 0 0
2241 3 14.280000000000001 10.71 12.495000000000005 0 0 0
2242 5 12.495000000000005 10.71 17.85 0 0 0
2243 1 14.280000000000001 10.71 16.065 0 0 0
2244 5 12.495000000000005 10.71 21.42 0 0 0
2245 3 14.280000000000001 8.925000000000004 21.42 0 0 0
2246 3 14.280000000000001 10.71 19.635 0 0 0
2247 1 12.495000000000005 8.925000000000004 23.205000000000002 0 0 0
2248 2 12.495000000000005 10.71 24.990000000000006 0 0 0
2249 1 14.280000000000001 8.925000000000004 24.990000000000006 0 0 0
2250 5 14.280000000000001 10.71 23.205000000000002 0 0 0
2251 1 12.495000000000005 8.925000000000004 26.775000000000002 0 0 0
2252 2 12.495000000000005 10.71 28.560000000000002 0 0 0
2253 1 14.280000000000001 8.925000000000004 28.560000000000002 0 0 0
2254 3 14.280000000000001 10.71 26.775000000000002 0 0 0
2255 4 12.495000000000005 8.925000000000004 30.345 0 0 0
2256 2 12.495000000000005 10.71 32.129999999999995 0 0 0
2257 4 14.280000000000001 8.925000000000004 32.129999999999995 0 0 0
2258 4 14.280000000000001 10.71 30.345 0 0 0
2259 3 12.495000000000005 8.925000000000004 33.915 0 0 0
2260 4 12.495000000000005 10.71 35.699999999999996 0 0 0
2261 2 14.280000000000001 8.925000000000004 35.699999999999996 0 0 0
2262 3 14.280000000000001 10.71 33.915 0 0 0
2263 3 12.495000000000005 8.925000000000004 37.485 0 0 0
2264 2 12.495000000000005 10.71 39.269999999999996 0 0 0
2265 1 14.280000000000001 8.925000000000004 39.269999999999996 0 0 0
2266 1 14.280000000000001 10.71 37.485 0 0 0
2296 1 12.495000000000005 14.280000000000001 10.71 0 0 0
2297 5 14.280000000000001 12.495000000000005 10.71 0 0 0
2298 3 12.495000000000005 12.495000000000005 12.495000000000005 0 0 0
2299 4 12.495000000000005 14.280000000000001 14.280000000000001 0 0 0