model_files/NiFeCrCoCu/NiFeCrCoCu_30000/NiFeCrCoCu_511/NiFeCrCoCu_511_fcc_30527_temp.data (written by ASE) 

30527 	 atoms 
5  atom types
0.0                      82  xlo xhi
0.0                      82  ylo yhi
0.0                      82  zlo zhi


Atoms 

     1   1                       0      39.269999999999996      41.055000000000007
     2   1                       0      41.055000000000007      39.269999999999996
     3   1                       0      41.055000000000007      42.840000000000003
     4   1                       0      42.840000000000003      41.055000000000007
     5   1      3.5700000000000003      21.420000000000002      41.055000000000007
     6   1      3.5700000000000003      23.205000000000002      39.269999999999996
     7   1      3.5700000000000003      24.990000000000006      37.484999999999999
     8   1      3.5700000000000003      23.205000000000002      42.840000000000003
     9   1      3.5700000000000003      24.990000000000006      41.055000000000007
    10   1      3.5700000000000003      24.990000000000006                  44.625
    11   1      3.5700000000000003      26.775000000000002      35.699999999999996
    12   1      3.5700000000000003      28.560000000000002      33.914999999999999
    13   1      3.5700000000000003      26.775000000000002      39.269999999999996
    14   1      3.5700000000000003      28.560000000000002      37.484999999999999
    15   1      3.5700000000000003      26.775000000000002      42.840000000000003
    16   1      3.5700000000000003      28.560000000000002      41.055000000000007
    17   1      3.5700000000000003      26.775000000000002      46.409999999999997
    18   1      3.5700000000000003      28.560000000000002                  44.625
    19   1      3.5700000000000003      28.560000000000002                  48.195
    20   1      3.5700000000000003      30.344999999999999      32.129999999999995
    21   1      3.5700000000000003      32.129999999999995      30.344999999999999
    22   1      3.5700000000000003      30.344999999999999      35.699999999999996
    23   1      3.5700000000000003      32.129999999999995      33.914999999999999
    24   1      1.7850000000000039      32.129999999999995      39.269999999999996
    25   1      3.5700000000000003      30.344999999999999      39.269999999999996
    26   1      3.5700000000000003      32.129999999999995      37.484999999999999
    27   1      1.7850000000000039      30.344999999999999      41.055000000000007
    28   1      1.7850000000000039      32.129999999999995      42.840000000000003
    29   1      3.5700000000000003      30.344999999999999      42.840000000000003
    30   1      3.5700000000000003      32.129999999999995      41.055000000000007
    31   1      3.5700000000000003      30.344999999999999      46.409999999999997
    32   1      3.5700000000000003      32.129999999999995                  44.625
    33   1      3.5700000000000003      30.344999999999999      49.979999999999997
    34   1      3.5700000000000003      32.129999999999995                  48.195
    35   1      3.5700000000000003      32.129999999999995      51.765000000000008
    36   1      3.5700000000000003      33.914999999999999      28.560000000000002
    37   1      3.5700000000000003      35.699999999999996      26.775000000000002
    38   1      3.5700000000000003      33.914999999999999      32.129999999999995
    39   1      3.5700000000000003      35.699999999999996      30.344999999999999
    40   1      1.7850000000000039      35.699999999999996      35.699999999999996
    41   1      3.5700000000000003      33.914999999999999      35.699999999999996
    42   1      3.5700000000000003      35.699999999999996      33.914999999999999
    43   1      1.7850000000000039      33.914999999999999      37.484999999999999
    44   1      1.7850000000000039      35.699999999999996      39.269999999999996
    45   1      3.5700000000000003      33.914999999999999      39.269999999999996
    46   1      3.5700000000000003      35.699999999999996      37.484999999999999
    47   1      1.7850000000000039      33.914999999999999      41.055000000000007
    48   1      1.7850000000000039      35.699999999999996      42.840000000000003
    49   1      3.5700000000000003      33.914999999999999      42.840000000000003
    50   1      3.5700000000000003      35.699999999999996      41.055000000000007
    51   1      1.7850000000000039      33.914999999999999                  44.625
    52   1      1.7850000000000039      35.699999999999996      46.409999999999997
    53   1      3.5700000000000003      33.914999999999999      46.409999999999997
    54   1      3.5700000000000003      35.699999999999996                  44.625
    55   1      3.5700000000000003      33.914999999999999      49.979999999999997
    56   1      3.5700000000000003      35.699999999999996                  48.195
    57   1      3.5700000000000003      33.914999999999999      53.550000000000004
    58   1      3.5700000000000003      35.699999999999996      51.765000000000008
    59   1      3.5700000000000003      35.699999999999996      55.335000000000001
    60   1      3.5700000000000003      37.484999999999999      24.990000000000006
    61   1      3.5700000000000003      39.269999999999996      23.205000000000002
    62   1      3.5700000000000003      37.484999999999999      28.560000000000002
    63   1      3.5700000000000003      39.269999999999996      26.775000000000002
    64   1      1.7850000000000039      39.269999999999996      32.129999999999995
    65   1      3.5700000000000003      37.484999999999999      32.129999999999995
    66   1      3.5700000000000003      39.269999999999996      30.344999999999999
    67   1      1.7850000000000039      37.484999999999999      33.914999999999999
    68   1      1.7850000000000039      39.269999999999996      35.699999999999996
    69   1      3.5700000000000003      37.484999999999999      35.699999999999996
    70   1      3.5700000000000003      39.269999999999996      33.914999999999999
    71   1      1.7850000000000039      37.484999999999999      37.484999999999999
    72   1      1.7850000000000039      39.269999999999996      39.269999999999996
    73   1      3.5700000000000003      37.484999999999999      39.269999999999996
    74   1      3.5700000000000003      39.269999999999996      37.484999999999999
    75   1      1.7850000000000039      37.484999999999999      41.055000000000007
    76   1      1.7850000000000039      39.269999999999996      42.840000000000003
    77   1      3.5700000000000003      37.484999999999999      42.840000000000003
    78   1      3.5700000000000003      39.269999999999996      41.055000000000007
    79   1      1.7850000000000039      37.484999999999999                  44.625
    80   1      1.7850000000000039      39.269999999999996      46.409999999999997
    81   1      3.5700000000000003      37.484999999999999      46.409999999999997
    82   1      3.5700000000000003      39.269999999999996                  44.625
    83   1      1.7850000000000039      37.484999999999999                  48.195
    84   1      1.7850000000000039      39.269999999999996      49.979999999999997
    85   1      3.5700000000000003      37.484999999999999      49.979999999999997
    86   1      3.5700000000000003      39.269999999999996                  48.195
    87   1      3.5700000000000003      37.484999999999999      53.550000000000004
    88   1      3.5700000000000003      39.269999999999996      51.765000000000008
    89   1      3.5700000000000003      37.484999999999999      57.119999999999997
    90   1      3.5700000000000003      39.269999999999996      55.335000000000001
    91   1      3.5700000000000003      39.269999999999996      58.905000000000001
    92   1      3.5700000000000003      41.055000000000007      21.420000000000002
    93   1      3.5700000000000003      41.055000000000007      24.990000000000006
    94   1      3.5700000000000003      42.840000000000003      23.205000000000002
    95   1      3.5700000000000003      41.055000000000007      28.560000000000002
    96   1      3.5700000000000003      42.840000000000003      26.775000000000002
    97   1      1.7850000000000039      41.055000000000007      30.344999999999999
    98   1      1.7850000000000039      42.840000000000003      32.129999999999995
    99   1      3.5700000000000003      41.055000000000007      32.129999999999995
   100   1      3.5700000000000003      42.840000000000003      30.344999999999999
   101   1      1.7850000000000039      41.055000000000007      33.914999999999999
   102   1      1.7850000000000039      42.840000000000003      35.699999999999996
   103   1      3.5700000000000003      41.055000000000007      35.699999999999996
   104   1      3.5700000000000003      42.840000000000003      33.914999999999999
   105   1      1.7850000000000039      41.055000000000007      37.484999999999999
   106   1      1.7850000000000039      42.840000000000003      39.269999999999996
   107   1      3.5700000000000003      41.055000000000007      39.269999999999996
   108   1      3.5700000000000003      42.840000000000003      37.484999999999999
   109   1      1.7850000000000039      41.055000000000007      41.055000000000007
   110   1      1.7850000000000039      42.840000000000003      42.840000000000003
   111   1      3.5700000000000003      41.055000000000007      42.840000000000003
   112   1      3.5700000000000003      42.840000000000003      41.055000000000007
   113   1      1.7850000000000039      41.055000000000007                  44.625
   114   1      1.7850000000000039      42.840000000000003      46.409999999999997
   115   1      3.5700000000000003      41.055000000000007      46.409999999999997
   116   1      3.5700000000000003      42.840000000000003                  44.625
   117   1      1.7850000000000039      41.055000000000007                  48.195
   118   1      1.7850000000000039      42.840000000000003      49.979999999999997
   119   1      3.5700000000000003      41.055000000000007      49.979999999999997
   120   1      3.5700000000000003      42.840000000000003                  48.195
   121   1      1.7850000000000039      41.055000000000007      51.765000000000008
   122   1      3.5700000000000003      41.055000000000007      53.550000000000004
   123   1      3.5700000000000003      42.840000000000003      51.765000000000008
   124   1      3.5700000000000003      41.055000000000007      57.119999999999997
   125   1      3.5700000000000003      42.840000000000003      55.335000000000001
   126   1      3.5700000000000003      41.055000000000007      60.689999999999998
   127   1      3.5700000000000003      42.840000000000003      58.905000000000001
   128   1      3.5700000000000003                  44.625      24.990000000000006
   129   1      3.5700000000000003                  44.625      28.560000000000002
   130   1      3.5700000000000003      46.409999999999997      26.775000000000002
   131   1      3.5700000000000003                  44.625      32.129999999999995
   132   1      3.5700000000000003      46.409999999999997      30.344999999999999
   133   1      1.7850000000000039                  44.625      33.914999999999999
   134   1      1.7850000000000039      46.409999999999997      35.699999999999996
   135   1      3.5700000000000003                  44.625      35.699999999999996
   136   1      3.5700000000000003      46.409999999999997      33.914999999999999
   137   1      1.7850000000000039                  44.625      37.484999999999999
   138   1      1.7850000000000039      46.409999999999997      39.269999999999996
   139   1      3.5700000000000003                  44.625      39.269999999999996
   140   1      3.5700000000000003      46.409999999999997      37.484999999999999
   141   1      1.7850000000000039                  44.625      41.055000000000007
   142   1      1.7850000000000039      46.409999999999997      42.840000000000003
   143   1      3.5700000000000003                  44.625      42.840000000000003
   144   1      3.5700000000000003      46.409999999999997      41.055000000000007
   145   1      1.7850000000000039                  44.625                  44.625
   146   1      1.7850000000000039      46.409999999999997      46.409999999999997
   147   1      3.5700000000000003                  44.625      46.409999999999997
   148   1      3.5700000000000003      46.409999999999997                  44.625
   149   1      1.7850000000000039                  44.625                  48.195
   150   1      3.5700000000000003                  44.625      49.979999999999997
   151   1      3.5700000000000003      46.409999999999997                  48.195
   152   1      3.5700000000000003                  44.625      53.550000000000004
   153   1      3.5700000000000003      46.409999999999997      51.765000000000008
   154   1      3.5700000000000003                  44.625      57.119999999999997
   155   1      3.5700000000000003      46.409999999999997      55.335000000000001
   156   1      3.5700000000000003                  48.195      28.560000000000002
   157   1      3.5700000000000003                  48.195      32.129999999999995
   158   1      3.5700000000000003      49.979999999999997      30.344999999999999
   159   1      3.5700000000000003                  48.195      35.699999999999996
   160   1      3.5700000000000003      49.979999999999997      33.914999999999999
   161   1      1.7850000000000039                  48.195      37.484999999999999
   162   1      1.7850000000000039      49.979999999999997      39.269999999999996
   163   1      3.5700000000000003                  48.195      39.269999999999996
   164   1      3.5700000000000003      49.979999999999997      37.484999999999999
   165   1      1.7850000000000039                  48.195      41.055000000000007
   166   1      1.7850000000000039      49.979999999999997      42.840000000000003
   167   1      3.5700000000000003                  48.195      42.840000000000003
   168   1      3.5700000000000003      49.979999999999997      41.055000000000007
   169   1      1.7850000000000039                  48.195                  44.625
   170   1      3.5700000000000003                  48.195      46.409999999999997
   171   1      3.5700000000000003      49.979999999999997                  44.625
   172   1      3.5700000000000003                  48.195      49.979999999999997
   173   1      3.5700000000000003      49.979999999999997                  48.195
   174   1      3.5700000000000003                  48.195      53.550000000000004
   175   1      3.5700000000000003      49.979999999999997      51.765000000000008
   176   1      3.5700000000000003      51.765000000000008      32.129999999999995
   177   1      3.5700000000000003      51.765000000000008      35.699999999999996
   178   1      3.5700000000000003      53.550000000000004      33.914999999999999
   179   1      3.5700000000000003      51.765000000000008      39.269999999999996
   180   1      3.5700000000000003      53.550000000000004      37.484999999999999
   181   1      1.7850000000000039      51.765000000000008      41.055000000000007
   182   1      3.5700000000000003      51.765000000000008      42.840000000000003
   183   1      3.5700000000000003      53.550000000000004      41.055000000000007
   184   1      3.5700000000000003      51.765000000000008      46.409999999999997
   185   1      3.5700000000000003      53.550000000000004                  44.625
   186   1      3.5700000000000003      51.765000000000008      49.979999999999997
   187   1      3.5700000000000003      53.550000000000004                  48.195
   188   1      3.5700000000000003      55.335000000000001      35.699999999999996
   189   1      3.5700000000000003      55.335000000000001      39.269999999999996
   190   1      3.5700000000000003      57.119999999999997      37.484999999999999
   191   1      3.5700000000000003      55.335000000000001      42.840000000000003
   192   1      3.5700000000000003      57.119999999999997      41.055000000000007
   193   1      3.5700000000000003      55.335000000000001      46.409999999999997
   194   1      3.5700000000000003      57.119999999999997                  44.625
   195   1      3.5700000000000003      58.905000000000001      39.269999999999996
   196   1      3.5700000000000003      58.905000000000001      42.840000000000003
   197   1      3.5700000000000003      60.689999999999998      41.055000000000007
   198   1      7.1400000000000006      7.1400000000000006      37.484999999999999
   199   1      7.1400000000000006      7.1400000000000006      41.055000000000007
   200   1      7.1400000000000006      7.1400000000000006                  44.625
   201   1      7.1400000000000006      8.9250000000000043      35.699999999999996
   202   1      7.1400000000000006      10.710000000000001      33.914999999999999
   203   1      7.1400000000000006      8.9250000000000043      39.269999999999996
   204   1      7.1400000000000006      10.710000000000001      37.484999999999999
   205   1      7.1400000000000006      8.9250000000000043      42.840000000000003
   206   1      7.1400000000000006      10.710000000000001      41.055000000000007
   207   1      7.1400000000000006      8.9250000000000043      46.409999999999997
   208   1      7.1400000000000006      10.710000000000001                  44.625
   209   1      7.1400000000000006      10.710000000000001                  48.195
   210   1      7.1400000000000006      12.495000000000005      32.129999999999995
   211   1      7.1400000000000006      14.280000000000001      30.344999999999999
   212   1      7.1400000000000006      12.495000000000005      35.699999999999996
   213   1      7.1400000000000006      14.280000000000001      33.914999999999999
   214   1       5.355000000000004      14.280000000000001      39.269999999999996
   215   1      7.1400000000000006      12.495000000000005      39.269999999999996
   216   1      7.1400000000000006      14.280000000000001      37.484999999999999
   217   1       5.355000000000004      12.495000000000005      41.055000000000007
   218   1       5.355000000000004      14.280000000000001      42.840000000000003
   219   1      7.1400000000000006      12.495000000000005      42.840000000000003
   220   1      7.1400000000000006      14.280000000000001      41.055000000000007
   221   1      7.1400000000000006      12.495000000000005      46.409999999999997
   222   1      7.1400000000000006      14.280000000000001                  44.625
   223   1      7.1400000000000006      12.495000000000005      49.979999999999997
   224   1      7.1400000000000006      14.280000000000001                  48.195
   225   1      7.1400000000000006      14.280000000000001      51.765000000000008
   226   1      7.1400000000000006      16.065000000000001      28.560000000000002
   227   1      7.1400000000000006      17.850000000000001      26.775000000000002
   228   1      7.1400000000000006      16.065000000000001      32.129999999999995
   229   1      7.1400000000000006      17.850000000000001      30.344999999999999
   230   1       5.355000000000004      17.850000000000001      35.699999999999996
   231   1      7.1400000000000006      16.065000000000001      35.699999999999996
   232   1      7.1400000000000006      17.850000000000001      33.914999999999999
   233   1       5.355000000000004      16.065000000000001      37.484999999999999
   234   1       5.355000000000004      17.850000000000001      39.269999999999996
   235   1      7.1400000000000006      16.065000000000001      39.269999999999996
   236   1      7.1400000000000006      17.850000000000001      37.484999999999999
   237   1       5.355000000000004      16.065000000000001      41.055000000000007
   238   1       5.355000000000004      17.850000000000001      42.840000000000003
   239   1      7.1400000000000006      16.065000000000001      42.840000000000003
   240   1      7.1400000000000006      17.850000000000001      41.055000000000007
   241   1       5.355000000000004      16.065000000000001                  44.625
   242   1       5.355000000000004      17.850000000000001      46.409999999999997
   243   1      7.1400000000000006      16.065000000000001      46.409999999999997
   244   1      7.1400000000000006      17.850000000000001                  44.625
   245   1      7.1400000000000006      16.065000000000001      49.979999999999997
   246   1      7.1400000000000006      17.850000000000001                  48.195
   247   1      7.1400000000000006      16.065000000000001      53.550000000000004
   248   1      7.1400000000000006      17.850000000000001      51.765000000000008
   249   1      7.1400000000000006      17.850000000000001      55.335000000000001
   250   1      7.1400000000000006      19.635000000000002      24.990000000000006
   251   1      7.1400000000000006      21.420000000000002      23.205000000000002
   252   1      7.1400000000000006      19.635000000000002      28.560000000000002
   253   1      7.1400000000000006      21.420000000000002      26.775000000000002
   254   1       5.355000000000004      21.420000000000002      32.129999999999995
   255   1      7.1400000000000006      19.635000000000002      32.129999999999995
   256   1      7.1400000000000006      21.420000000000002      30.344999999999999
   257   1       5.355000000000004      19.635000000000002      33.914999999999999
   258   1       5.355000000000004      21.420000000000002      35.699999999999996
   259   1      7.1400000000000006      19.635000000000002      35.699999999999996
   260   1      7.1400000000000006      21.420000000000002      33.914999999999999
   261   1       5.355000000000004      19.635000000000002      37.484999999999999
   262   1       5.355000000000004      21.420000000000002      39.269999999999996
   263   1      7.1400000000000006      19.635000000000002      39.269999999999996
   264   1      7.1400000000000006      21.420000000000002      37.484999999999999
   265   1       5.355000000000004      19.635000000000002      41.055000000000007
   266   1       5.355000000000004      21.420000000000002      42.840000000000003
   267   1      7.1400000000000006      19.635000000000002      42.840000000000003
   268   1      7.1400000000000006      21.420000000000002      41.055000000000007
   269   1       5.355000000000004      19.635000000000002                  44.625
   270   1       5.355000000000004      21.420000000000002      46.409999999999997
   271   1      7.1400000000000006      19.635000000000002      46.409999999999997
   272   1      7.1400000000000006      21.420000000000002                  44.625
   273   1       5.355000000000004      19.635000000000002                  48.195
   274   1       5.355000000000004      21.420000000000002      49.979999999999997
   275   1      7.1400000000000006      19.635000000000002      49.979999999999997
   276   1      7.1400000000000006      21.420000000000002                  48.195
   277   1      7.1400000000000006      19.635000000000002      53.550000000000004
   278   1      7.1400000000000006      21.420000000000002      51.765000000000008
   279   1      7.1400000000000006      19.635000000000002      57.119999999999997
   280   1      7.1400000000000006      21.420000000000002      55.335000000000001
   281   1      7.1400000000000006      21.420000000000002      58.905000000000001
   282   1      7.1400000000000006      23.205000000000002      21.420000000000002
   283   1      7.1400000000000006      24.990000000000006      19.635000000000002
   284   1      7.1400000000000006      23.205000000000002      24.990000000000006
   285   1      7.1400000000000006      24.990000000000006      23.205000000000002
   286   1       5.355000000000004      24.990000000000006      28.560000000000002
   287   1      7.1400000000000006      23.205000000000002      28.560000000000002
   288   1      7.1400000000000006      24.990000000000006      26.775000000000002
   289   1       5.355000000000004      23.205000000000002      30.344999999999999
   290   1       5.355000000000004      24.990000000000006      32.129999999999995
   291   1      7.1400000000000006      23.205000000000002      32.129999999999995
   292   1      7.1400000000000006      24.990000000000006      30.344999999999999
   293   1       5.355000000000004      23.205000000000002      33.914999999999999
   294   1       5.355000000000004      24.990000000000006      35.699999999999996
   295   1      7.1400000000000006      23.205000000000002      35.699999999999996
   296   1      7.1400000000000006      24.990000000000006      33.914999999999999
   297   1       5.355000000000004      23.205000000000002      37.484999999999999
   298   1       5.355000000000004      24.990000000000006      39.269999999999996
   299   1      7.1400000000000006      23.205000000000002      39.269999999999996
   300   1      7.1400000000000006      24.990000000000006      37.484999999999999
   301   1       5.355000000000004      23.205000000000002      41.055000000000007
   302   1       5.355000000000004      24.990000000000006      42.840000000000003
   303   1      7.1400000000000006      23.205000000000002      42.840000000000003
   304   1      7.1400000000000006      24.990000000000006      41.055000000000007
   305   1       5.355000000000004      23.205000000000002                  44.625
   306   1       5.355000000000004      24.990000000000006      46.409999999999997
   307   1      7.1400000000000006      23.205000000000002      46.409999999999997
   308   1      7.1400000000000006      24.990000000000006                  44.625
   309   1       5.355000000000004      23.205000000000002                  48.195
   310   1       5.355000000000004      24.990000000000006      49.979999999999997
   311   1      7.1400000000000006      23.205000000000002      49.979999999999997
   312   1      7.1400000000000006      24.990000000000006                  48.195
   313   1       5.355000000000004      23.205000000000002      51.765000000000008
   314   1       5.355000000000004      24.990000000000006      53.550000000000004
   315   1      7.1400000000000006      23.205000000000002      53.550000000000004
   316   1      7.1400000000000006      24.990000000000006      51.765000000000008
   317   1      7.1400000000000006      23.205000000000002      57.119999999999997
   318   1      7.1400000000000006      24.990000000000006      55.335000000000001
   319   1      7.1400000000000006      23.205000000000002      60.689999999999998
   320   1      7.1400000000000006      24.990000000000006      58.905000000000001
   321   1      7.1400000000000006      24.990000000000006      62.474999999999994
   322   1      7.1400000000000006      26.775000000000002      17.850000000000001
   323   1      7.1400000000000006      28.560000000000002      16.065000000000001
   324   1      7.1400000000000006      26.775000000000002      21.420000000000002
   325   1      7.1400000000000006      28.560000000000002      19.635000000000002
   326   1       5.355000000000004      28.560000000000002      24.990000000000006
   327   1      7.1400000000000006      26.775000000000002      24.990000000000006
   328   1      7.1400000000000006      28.560000000000002      23.205000000000002
   329   1       5.355000000000004      26.775000000000002      26.775000000000002
   330   1       5.355000000000004      28.560000000000002      28.560000000000002
   331   1      7.1400000000000006      26.775000000000002      28.560000000000002
   332   1      7.1400000000000006      28.560000000000002      26.775000000000002
   333   1       5.355000000000004      26.775000000000002      30.344999999999999
   334   1       5.355000000000004      28.560000000000002      32.129999999999995
   335   1      7.1400000000000006      26.775000000000002      32.129999999999995
   336   1      7.1400000000000006      28.560000000000002      30.344999999999999
   337   1       5.355000000000004      26.775000000000002      33.914999999999999
   338   1       5.355000000000004      28.560000000000002      35.699999999999996
   339   1      7.1400000000000006      26.775000000000002      35.699999999999996
   340   1      7.1400000000000006      28.560000000000002      33.914999999999999
   341   1       5.355000000000004      26.775000000000002      37.484999999999999
   342   1       5.355000000000004      28.560000000000002      39.269999999999996
   343   1      7.1400000000000006      26.775000000000002      39.269999999999996
   344   1      7.1400000000000006      28.560000000000002      37.484999999999999
   345   1       5.355000000000004      26.775000000000002      41.055000000000007
   346   1       5.355000000000004      28.560000000000002      42.840000000000003
   347   1      7.1400000000000006      26.775000000000002      42.840000000000003
   348   1      7.1400000000000006      28.560000000000002      41.055000000000007
   349   1       5.355000000000004      26.775000000000002                  44.625
   350   1       5.355000000000004      28.560000000000002      46.409999999999997
   351   1      7.1400000000000006      26.775000000000002      46.409999999999997
   352   1      7.1400000000000006      28.560000000000002                  44.625
   353   1       5.355000000000004      26.775000000000002                  48.195
   354   1       5.355000000000004      28.560000000000002      49.979999999999997
   355   1      7.1400000000000006      26.775000000000002      49.979999999999997
   356   1      7.1400000000000006      28.560000000000002                  48.195
   357   1       5.355000000000004      26.775000000000002      51.765000000000008
   358   1       5.355000000000004      28.560000000000002      53.550000000000004