model_files/Ag/Ag_30000/Ag_311/data.Ag_311_fcc_30453 (written by ASE) 

30453 	 atoms 
1  atom types
0.0                     102  xlo xhi
0.0                     102  ylo yhi
0.0                     102  zlo zhi


Atoms 

     1   1                       0      49.079999999999998                  51.125
     2   1                       0                  51.125      49.079999999999998
     3   1                       0                  51.125      53.169999999999995
     4   1                       0      53.169999999999995                  51.125
     5   1      4.0899999999999963      36.810000000000002                  51.125
     6   1      4.0899999999999963      38.854999999999997      49.079999999999998
     7   1      4.0899999999999963      40.899999999999999      47.034999999999997
     8   1      4.0899999999999963      38.854999999999997      53.169999999999995
     9   1      4.0899999999999963      40.899999999999999                  51.125
    10   1      4.0899999999999963      40.899999999999999      55.214999999999996
    11   1      4.0899999999999963      42.944999999999993      44.989999999999995
    12   1      4.0899999999999963      44.989999999999995      42.944999999999993
    13   1      2.0450000000000017      44.989999999999995      49.079999999999998
    14   1      4.0899999999999963      42.944999999999993      49.079999999999998
    15   1      4.0899999999999963      44.989999999999995      47.034999999999997
    16   1      2.0450000000000017      42.944999999999993                  51.125
    17   1      2.0450000000000017      44.989999999999995      53.169999999999995
    18   1      4.0899999999999963      42.944999999999993      53.169999999999995
    19   1      4.0899999999999963      44.989999999999995                  51.125
    20   1      4.0899999999999963      42.944999999999993      57.260000000000005
    21   1      4.0899999999999963      44.989999999999995      55.214999999999996
    22   1      4.0899999999999963      44.989999999999995      59.304999999999986
    23   1      4.0899999999999963      47.034999999999997      40.899999999999999
    24   1      4.0899999999999963      49.079999999999998      38.854999999999997
    25   1      2.0450000000000017      49.079999999999998      44.989999999999995
    26   1      4.0899999999999963      47.034999999999997      44.989999999999995
    27   1      4.0899999999999963      49.079999999999998      42.944999999999993
    28   1      2.0450000000000017      47.034999999999997      47.034999999999997
    29   1      2.0450000000000017      49.079999999999998      49.079999999999998
    30   1      4.0899999999999963      47.034999999999997      49.079999999999998
    31   1      4.0899999999999963      49.079999999999998      47.034999999999997
    32   1      2.0450000000000017      47.034999999999997                  51.125
    33   1      2.0450000000000017      49.079999999999998      53.169999999999995
    34   1      4.0899999999999963      47.034999999999997      53.169999999999995
    35   1      4.0899999999999963      49.079999999999998                  51.125
    36   1      2.0450000000000017      47.034999999999997      55.214999999999996
    37   1      2.0450000000000017      49.079999999999998      57.260000000000005
    38   1      4.0899999999999963      47.034999999999997      57.260000000000005
    39   1      4.0899999999999963      49.079999999999998      55.214999999999996
    40   1      4.0899999999999963      47.034999999999997      61.349999999999994
    41   1      4.0899999999999963      49.079999999999998      59.304999999999986
    42   1      4.0899999999999963      49.079999999999998      63.394999999999996
    43   1      4.0899999999999963                  51.125      36.810000000000002
    44   1      4.0899999999999963                  51.125      40.899999999999999
    45   1      4.0899999999999963      53.169999999999995      38.854999999999997
    46   1      2.0450000000000017                  51.125      42.944999999999993
    47   1      2.0450000000000017      53.169999999999995      44.989999999999995
    48   1      4.0899999999999963                  51.125      44.989999999999995
    49   1      4.0899999999999963      53.169999999999995      42.944999999999993
    50   1      2.0450000000000017                  51.125      47.034999999999997
    51   1      2.0450000000000017      53.169999999999995      49.079999999999998
    52   1      4.0899999999999963                  51.125      49.079999999999998
    53   1      4.0899999999999963      53.169999999999995      47.034999999999997
    54   1      2.0450000000000017                  51.125                  51.125
    55   1      2.0450000000000017      53.169999999999995      53.169999999999995
    56   1      4.0899999999999963                  51.125      53.169999999999995
    57   1      4.0899999999999963      53.169999999999995                  51.125
    58   1      2.0450000000000017                  51.125      55.214999999999996
    59   1      2.0450000000000017      53.169999999999995      57.260000000000005
    60   1      4.0899999999999963                  51.125      57.260000000000005
    61   1      4.0899999999999963      53.169999999999995      55.214999999999996
    62   1      2.0450000000000017                  51.125      59.304999999999986
    63   1      4.0899999999999963                  51.125      61.349999999999994
    64   1      4.0899999999999963      53.169999999999995      59.304999999999986
    65   1      4.0899999999999963                  51.125      65.439999999999998
    66   1      4.0899999999999963      53.169999999999995      63.394999999999996
    67   1      4.0899999999999963      55.214999999999996      40.899999999999999
    68   1      4.0899999999999963      55.214999999999996      44.989999999999995
    69   1      4.0899999999999963      57.260000000000005      42.944999999999993
    70   1      2.0450000000000017      55.214999999999996      47.034999999999997
    71   1      2.0450000000000017      57.260000000000005      49.079999999999998
    72   1      4.0899999999999963      55.214999999999996      49.079999999999998
    73   1      4.0899999999999963      57.260000000000005      47.034999999999997
    74   1      2.0450000000000017      55.214999999999996                  51.125
    75   1      2.0450000000000017      57.260000000000005      53.169999999999995
    76   1      4.0899999999999963      55.214999999999996      53.169999999999995
    77   1      4.0899999999999963      57.260000000000005                  51.125
    78   1      2.0450000000000017      55.214999999999996      55.214999999999996
    79   1      4.0899999999999963      55.214999999999996      57.260000000000005
    80   1      4.0899999999999963      57.260000000000005      55.214999999999996
    81   1      4.0899999999999963      55.214999999999996      61.349999999999994
    82   1      4.0899999999999963      57.260000000000005      59.304999999999986
    83   1      4.0899999999999963      59.304999999999986      44.989999999999995
    84   1      4.0899999999999963      59.304999999999986      49.079999999999998
    85   1      4.0899999999999963      61.349999999999994      47.034999999999997
    86   1      2.0450000000000017      59.304999999999986                  51.125
    87   1      4.0899999999999963      59.304999999999986      53.169999999999995
    88   1      4.0899999999999963      61.349999999999994                  51.125
    89   1      4.0899999999999963      59.304999999999986      57.260000000000005
    90   1      4.0899999999999963      61.349999999999994      55.214999999999996
    91   1      4.0899999999999963      63.394999999999996      49.079999999999998
    92   1      4.0899999999999963      63.394999999999996      53.169999999999995
    93   1      4.0899999999999963      65.439999999999998                  51.125
    94   1      8.1799999999999997      24.539999999999999                  51.125
    95   1      8.1799999999999997      26.584999999999997      49.079999999999998
    96   1      8.1799999999999997      28.629999999999995      47.034999999999997
    97   1      8.1799999999999997      26.584999999999997      53.169999999999995
    98   1      8.1799999999999997      28.629999999999995                  51.125
    99   1      8.1799999999999997      28.629999999999995      55.214999999999996
   100   1      8.1799999999999997      30.674999999999997      44.989999999999995
   101   1      8.1799999999999997      32.719999999999999      42.944999999999993
   102   1       6.134999999999998      32.719999999999999      49.079999999999998
   103   1      8.1799999999999997      30.674999999999997      49.079999999999998
   104   1      8.1799999999999997      32.719999999999999      47.034999999999997
   105   1       6.134999999999998      30.674999999999997                  51.125
   106   1       6.134999999999998      32.719999999999999      53.169999999999995
   107   1      8.1799999999999997      30.674999999999997      53.169999999999995
   108   1      8.1799999999999997      32.719999999999999                  51.125
   109   1      8.1799999999999997      30.674999999999997      57.260000000000005
   110   1      8.1799999999999997      32.719999999999999      55.214999999999996
   111   1      8.1799999999999997      32.719999999999999      59.304999999999986
   112   1      8.1799999999999997      34.765000000000001      40.899999999999999
   113   1      8.1799999999999997      36.810000000000002      38.854999999999997
   114   1       6.134999999999998      36.810000000000002      44.989999999999995
   115   1      8.1799999999999997      34.765000000000001      44.989999999999995
   116   1      8.1799999999999997      36.810000000000002      42.944999999999993
   117   1       6.134999999999998      34.765000000000001      47.034999999999997
   118   1       6.134999999999998      36.810000000000002      49.079999999999998
   119   1      8.1799999999999997      34.765000000000001      49.079999999999998
   120   1      8.1799999999999997      36.810000000000002      47.034999999999997
   121   1       6.134999999999998      34.765000000000001                  51.125
   122   1       6.134999999999998      36.810000000000002      53.169999999999995
   123   1      8.1799999999999997      34.765000000000001      53.169999999999995
   124   1      8.1799999999999997      36.810000000000002                  51.125
   125   1       6.134999999999998      34.765000000000001      55.214999999999996
   126   1       6.134999999999998      36.810000000000002      57.260000000000005
   127   1      8.1799999999999997      34.765000000000001      57.260000000000005
   128   1      8.1799999999999997      36.810000000000002      55.214999999999996
   129   1      8.1799999999999997      34.765000000000001      61.349999999999994
   130   1      8.1799999999999997      36.810000000000002      59.304999999999986
   131   1      8.1799999999999997      36.810000000000002      63.394999999999996
   132   1      8.1799999999999997      38.854999999999997      36.810000000000002
   133   1      8.1799999999999997      40.899999999999999      34.765000000000001
   134   1       6.134999999999998      40.899999999999999      40.899999999999999
   135   1      8.1799999999999997      38.854999999999997      40.899999999999999
   136   1      8.1799999999999997      40.899999999999999      38.854999999999997
   137   1       6.134999999999998      38.854999999999997      42.944999999999993
   138   1       6.134999999999998      40.899999999999999      44.989999999999995
   139   1      8.1799999999999997      38.854999999999997      44.989999999999995
   140   1      8.1799999999999997      40.899999999999999      42.944999999999993
   141   1       6.134999999999998      38.854999999999997      47.034999999999997
   142   1       6.134999999999998      40.899999999999999      49.079999999999998
   143   1      8.1799999999999997      38.854999999999997      49.079999999999998
   144   1      8.1799999999999997      40.899999999999999      47.034999999999997
   145   1       6.134999999999998      38.854999999999997                  51.125
   146   1       6.134999999999998      40.899999999999999      53.169999999999995
   147   1      8.1799999999999997      38.854999999999997      53.169999999999995
   148   1      8.1799999999999997      40.899999999999999                  51.125
   149   1       6.134999999999998      38.854999999999997      55.214999999999996
   150   1       6.134999999999998      40.899999999999999      57.260000000000005
   151   1      8.1799999999999997      38.854999999999997      57.260000000000005
   152   1      8.1799999999999997      40.899999999999999      55.214999999999996
   153   1       6.134999999999998      38.854999999999997      59.304999999999986
   154   1       6.134999999999998      40.899999999999999      61.349999999999994
   155   1      8.1799999999999997      38.854999999999997      61.349999999999994
   156   1      8.1799999999999997      40.899999999999999      59.304999999999986
   157   1      8.1799999999999997      38.854999999999997      65.439999999999998
   158   1      8.1799999999999997      40.899999999999999      63.394999999999996
   159   1      8.1799999999999997      40.899999999999999      67.484999999999999
   160   1      8.1799999999999997      42.944999999999993      32.719999999999999
   161   1      8.1799999999999997      44.989999999999995      30.674999999999997
   162   1       6.134999999999998      44.989999999999995      36.810000000000002
   163   1      8.1799999999999997      42.944999999999993      36.810000000000002
   164   1      8.1799999999999997      44.989999999999995      34.765000000000001
   165   1       6.134999999999998      42.944999999999993      38.854999999999997
   166   1       6.134999999999998      44.989999999999995      40.899999999999999
   167   1      8.1799999999999997      42.944999999999993      40.899999999999999
   168   1      8.1799999999999997      44.989999999999995      38.854999999999997
   169   1       6.134999999999998      42.944999999999993      42.944999999999993
   170   1       6.134999999999998      44.989999999999995      44.989999999999995
   171   1      8.1799999999999997      42.944999999999993      44.989999999999995
   172   1      8.1799999999999997      44.989999999999995      42.944999999999993
   173   1       6.134999999999998      42.944999999999993      47.034999999999997
   174   1       6.134999999999998      44.989999999999995      49.079999999999998
   175   1      8.1799999999999997      42.944999999999993      49.079999999999998
   176   1      8.1799999999999997      44.989999999999995      47.034999999999997
   177   1       6.134999999999998      42.944999999999993                  51.125
   178   1       6.134999999999998      44.989999999999995      53.169999999999995
   179   1      8.1799999999999997      42.944999999999993      53.169999999999995
   180   1      8.1799999999999997      44.989999999999995                  51.125
   181   1       6.134999999999998      42.944999999999993      55.214999999999996
   182   1       6.134999999999998      44.989999999999995      57.260000000000005
   183   1      8.1799999999999997      42.944999999999993      57.260000000000005
   184   1      8.1799999999999997      44.989999999999995      55.214999999999996
   185   1       6.134999999999998      42.944999999999993      59.304999999999986
   186   1       6.134999999999998      44.989999999999995      61.349999999999994
   187   1      8.1799999999999997      42.944999999999993      61.349999999999994
   188   1      8.1799999999999997      44.989999999999995      59.304999999999986
   189   1       6.134999999999998      42.944999999999993      63.394999999999996
   190   1       6.134999999999998      44.989999999999995      65.439999999999998
   191   1      8.1799999999999997      42.944999999999993      65.439999999999998
   192   1      8.1799999999999997      44.989999999999995      63.394999999999996
   193   1      8.1799999999999997      42.944999999999993      69.530000000000001
   194   1      8.1799999999999997      44.989999999999995      67.484999999999999
   195   1      8.1799999999999997      44.989999999999995      71.575000000000003
   196   1      8.1799999999999997      47.034999999999997      28.629999999999995
   197   1      8.1799999999999997      49.079999999999998      26.584999999999997
   198   1       6.134999999999998      49.079999999999998      32.719999999999999
   199   1      8.1799999999999997      47.034999999999997      32.719999999999999
   200   1      8.1799999999999997      49.079999999999998      30.674999999999997
   201   1       6.134999999999998      47.034999999999997      34.765000000000001
   202   1       6.134999999999998      49.079999999999998      36.810000000000002
   203   1      8.1799999999999997      47.034999999999997      36.810000000000002
   204   1      8.1799999999999997      49.079999999999998      34.765000000000001
   205   1       6.134999999999998      47.034999999999997      38.854999999999997
   206   1       6.134999999999998      49.079999999999998      40.899999999999999
   207   1      8.1799999999999997      47.034999999999997      40.899999999999999
   208   1      8.1799999999999997      49.079999999999998      38.854999999999997
   209   1       6.134999999999998      47.034999999999997      42.944999999999993
   210   1       6.134999999999998      49.079999999999998      44.989999999999995
   211   1      8.1799999999999997      47.034999999999997      44.989999999999995
   212   1      8.1799999999999997      49.079999999999998      42.944999999999993
   213   1       6.134999999999998      47.034999999999997      47.034999999999997
   214   1       6.134999999999998      49.079999999999998      49.079999999999998
   215   1      8.1799999999999997      47.034999999999997      49.079999999999998
   216   1      8.1799999999999997      49.079999999999998      47.034999999999997
   217   1       6.134999999999998      47.034999999999997                  51.125
   218   1       6.134999999999998      49.079999999999998      53.169999999999995
   219   1      8.1799999999999997      47.034999999999997      53.169999999999995
   220   1      8.1799999999999997      49.079999999999998                  51.125
   221   1       6.134999999999998      47.034999999999997      55.214999999999996
   222   1       6.134999999999998      49.079999999999998      57.260000000000005
   223   1      8.1799999999999997      47.034999999999997      57.260000000000005
   224   1      8.1799999999999997      49.079999999999998      55.214999999999996
   225   1       6.134999999999998      47.034999999999997      59.304999999999986
   226   1       6.134999999999998      49.079999999999998      61.349999999999994
   227   1      8.1799999999999997      47.034999999999997      61.349999999999994
   228   1      8.1799999999999997      49.079999999999998      59.304999999999986
   229   1       6.134999999999998      47.034999999999997      63.394999999999996
   230   1       6.134999999999998      49.079999999999998      65.439999999999998
   231   1      8.1799999999999997      47.034999999999997      65.439999999999998
   232   1      8.1799999999999997      49.079999999999998      63.394999999999996
   233   1       6.134999999999998      47.034999999999997      67.484999999999999
   234   1       6.134999999999998      49.079999999999998      69.530000000000001
   235   1      8.1799999999999997      47.034999999999997      69.530000000000001
   236   1      8.1799999999999997      49.079999999999998      67.484999999999999
   237   1      8.1799999999999997      47.034999999999997      73.620000000000005
   238   1      8.1799999999999997      49.079999999999998      71.575000000000003
   239   1      8.1799999999999997      49.079999999999998      75.664999999999992
   240   1      8.1799999999999997                  51.125      24.539999999999999
   241   1      8.1799999999999997                  51.125      28.629999999999995
   242   1      8.1799999999999997      53.169999999999995      26.584999999999997
   243   1       6.134999999999998                  51.125      30.674999999999997
   244   1       6.134999999999998      53.169999999999995      32.719999999999999
   245   1      8.1799999999999997                  51.125      32.719999999999999
   246   1      8.1799999999999997      53.169999999999995      30.674999999999997
   247   1       6.134999999999998                  51.125      34.765000000000001
   248   1       6.134999999999998      53.169999999999995      36.810000000000002
   249   1      8.1799999999999997                  51.125      36.810000000000002
   250   1      8.1799999999999997      53.169999999999995      34.765000000000001
   251   1       6.134999999999998                  51.125      38.854999999999997
   252   1       6.134999999999998      53.169999999999995      40.899999999999999
   253   1      8.1799999999999997                  51.125      40.899999999999999
   254   1      8.1799999999999997      53.169999999999995      38.854999999999997
   255   1       6.134999999999998                  51.125      42.944999999999993
   256   1       6.134999999999998      53.169999999999995      44.989999999999995
   257   1      8.1799999999999997                  51.125      44.989999999999995
   258   1      8.1799999999999997      53.169999999999995      42.944999999999993
   259   1       6.134999999999998                  51.125      47.034999999999997
   260   1       6.134999999999998      53.169999999999995      49.079999999999998
   261   1      8.1799999999999997                  51.125      49.079999999999998
   262   1      8.1799999999999997      53.169999999999995      47.034999999999997
   263   1       6.134999999999998                  51.125                  51.125
   264   1       6.134999999999998      53.169999999999995      53.169999999999995
   265   1      8.1799999999999997                  51.125      53.169999999999995
   266   1      8.1799999999999997      53.169999999999995                  51.125
   267   1       6.134999999999998                  51.125      55.214999999999996
   268   1       6.134999999999998      53.169999999999995      57.260000000000005
   269   1      8.1799999999999997                  51.125      57.260000000000005
   270   1      8.1799999999999997      53.169999999999995      55.214999999999996
   271   1       6.134999999999998                  51.125      59.304999999999986
   272   1       6.134999999999998      53.169999999999995      61.349999999999994
   273   1      8.1799999999999997                  51.125      61.349999999999994
   274   1      8.1799999999999997      53.169999999999995      59.304999999999986
   275   1       6.134999999999998                  51.125      63.394999999999996
   276   1       6.134999999999998      53.169999999999995      65.439999999999998
   277   1      8.1799999999999997                  51.125      65.439999999999998
   278   1      8.1799999999999997      53.169999999999995      63.394999999999996
   279   1       6.134999999999998                  51.125      67.484999999999999
   280   1       6.134999999999998      53.169999999999995      69.530000000000001
   281   1      8.1799999999999997                  51.125      69.530000000000001
   282   1      8.1799999999999997      53.169999999999995      67.484999999999999
   283   1       6.134999999999998                  51.125      71.575000000000003
   284   1      8.1799999999999997                  51.125      73.620000000000005
   285   1      8.1799999999999997      53.169999999999995      71.575000000000003
   286   1      8.1799999999999997                  51.125      77.709999999999994
   287   1      8.1799999999999997      53.169999999999995      75.664999999999992
   288   1      8.1799999999999997      55.214999999999996      28.629999999999995
   289   1      8.1799999999999997      55.214999999999996      32.719999999999999
   290   1      8.1799999999999997      57.260000000000005      30.674999999999997
   291   1       6.134999999999998      55.214999999999996      34.765000000000001
   292   1       6.134999999999998      57.260000000000005      36.810000000000002
   293   1      8.1799999999999997      55.214999999999996      36.810000000000002
   294   1      8.1799999999999997      57.260000000000005      34.765000000000001
   295   1       6.134999999999998      55.214999999999996      38.854999999999997
   296   1       6.134999999999998      57.260000000000005      40.899999999999999
   297   1      8.1799999999999997      55.214999999999996      40.899999999999999
   298   1      8.1799999999999997      57.260000000000005      38.854999999999997
   299   1       6.134999999999998      55.214999999999996      42.944999999999993
   300   1       6.134999999999998      57.260000000000005      44.989999999999995
   301   1      8.1799999999999997      55.214999999999996      44.989999999999995
   302   1      8.1799999999999997      57.260000000000005      42.944999999999993
   303   1       6.134999999999998      55.214999999999996      47.034999999999997
   304   1       6.134999999999998      57.260000000000005      49.079999999999998
   305   1      8.1799999999999997      55.214999999999996      49.079999999999998
   306   1      8.1799999999999997      57.260000000000005      47.034999999999997
   307   1       6.134999999999998      55.214999999999996                  51.125
   308   1       6.134999999999998      57.260000000000005      53.169999999999995
   309   1      8.1799999999999997      55.214999999999996      53.169999999999995
   310   1      8.1799999999999997      57.260000000000005                  51.125
   311   1       6.134999999999998      55.214999999999996      55.214999999999996
   312   1       6.134999999999998      57.260000000000005      57.260000000000005
   313   1      8.1799999999999997      55.214999999999996      57.260000000000005
   314   1      8.1799999999999997      57.260000000000005      55.214999999999996
   315   1       6.134999999999998      55.214999999999996      59.304999999999986
   316   1       6.134999999999998      57.260000000000005      61.349999999999994
   317   1      8.1799999999999997      55.214999999999996      61.349999999999994
   318   1      8.1799999999999997      57.260000000000005      59.304999999999986
   319   1       6.134999999999998      55.214999999999996      63.394999999999996
   320   1       6.134999999999998      57.260000000000005      65.439999999999998
   321   1      8.1799999999999997      55.214999999999996      65.439999999999998
   322   1      8.1799999999999997      57.260000000000005      63.394999999999996
   323   1       6.134999999999998      55.214999999999996      67.484999999999999
   324   1      8.1799999999999997      55.214999999999996      69.530000000000001
   325   1      8.1799999999999997      57.260000000000005      67.484999999999999
   326   1      8.1799999999999997      55.214999999999996      73.620000000000005
   327   1      8.1799999999999997      57.260000000000005      71.575000000000003
   328   1      8.1799999999999997      59.304999999999986      32.719999999999999
   329   1      8.1799999999999997      59.304999999999986      36.810000000000002
   330   1      8.1799999999999997      61.349999999999994      34.765000000000001
   331   1       6.134999999999998      59.304999999999986      38.854999999999997
   332   1       6.134999999999998      61.349999999999994      40.899999999999999
   333   1      8.1799999999999997      59.304999999999986      40.899999999999999
   334   1      8.1799999999999997      61.349999999999994      38.854999999999997
   335   1       6.134999999999998      59.304999999999986      42.944999999999993
   336   1       6.134999999999998      61.349999999999994      44.989999999999995
   337   1      8.1799999999999997      59.304999999999986      44.989999999999995
   338   1      8.1799999999999997      61.349999999999994      42.944999999999993
   339   1       6.134999999999998      59.304999999999986      47.034999999999997
   340   1       6.134999999999998      61.349999999999994      49.079999999999998
   341   1      8.1799999999999997      59.304999999999986      49.079999999999998
   342   1      8.1799999999999997      61.349999999999994      47.034999999999997
   343   1       6.134999999999998      59.304999999999986                  51.125
   344   1       6.134999999999998      61.349999999999994      53.169999999999995
   345   1      8.1799999999999997      59.304999999999986      53.169999999999995
   346   1      8.1799999999999997      61.349999999999994                  51.125
   347   1       6.134999999999998      59.304999999999986      55.214999999999996
   348   1       6.134999999999998      61.349999999999994      57.260000000000005
   349   1      8.1799999999999997      59.304999999999986      57.260000000000005
   350   1      8.1799999999999997      61.349999999999994      55.214999999999996
   351   1       6.134999999999998      59.304999999999986      59.304999999999986
   352   1       6.134999999999998      61.349999999999994      61.349999999999994
   353   1      8.1799999999999997      59.304999999999986      61.349999999999994
   354   1      8.1799999999999997      61.349999999999994      59.304999999999986
   355   1       6.134999999999998      59.304999999999986      63.394999999999996
   356   1      8.1799999999999997      59.304999999999986      65.439999999999998
   357   1      8.1799999999999997      61.349999999999994      63.394999999999996
   358   1      8.1799999999999997      59.304999999999986      69.530000000000001