model_files/CuNi/CuNi_30000/CuNi_551/CuNi_551_fcc_30369_temp.data (written by ASE) 

30369 	 atoms 
2  atom types
0.0                     114  xlo xhi
0.0                     114  ylo yhi
0.0                     114  zlo zhi


Atoms 

     1   1      1.7829999999999941      55.273000000000003      57.055999999999997
     2   1      1.7829999999999941      57.055999999999997      55.273000000000003
     3   1                       0      57.055999999999997      57.055999999999997
     4   1      1.7829999999999941      57.055999999999997      58.839000000000006
     5   1      1.7829999999999941      58.839000000000006      57.055999999999997
     6   1      5.3489999999999958      51.706999999999994      57.055999999999997
     7   1      3.5659999999999954      55.273000000000003      55.273000000000003
     8   1      5.3489999999999958      53.490000000000002      55.273000000000003
     9   1      5.3489999999999958      55.273000000000003      53.490000000000002
    10   1      3.5659999999999954      53.490000000000002      57.055999999999997
    11   1      3.5659999999999954      55.273000000000003      58.839000000000006
    12   1      5.3489999999999958      53.490000000000002      58.839000000000006
    13   1      5.3489999999999958      55.273000000000003      57.055999999999997
    14   1      5.3489999999999958      55.273000000000003      60.621999999999993
    15   1      5.3489999999999958      57.055999999999997      51.706999999999994
    16   1      3.5659999999999954      57.055999999999997      53.490000000000002
    17   1      3.5659999999999954      58.839000000000006      55.273000000000003
    18   1      5.3489999999999958      57.055999999999997      55.273000000000003
    19   1      5.3489999999999958      58.839000000000006      53.490000000000002
    20   1      3.5659999999999954      57.055999999999997      57.055999999999997
    21   1      3.5659999999999954      58.839000000000006      58.839000000000006
    22   1      5.3489999999999958      57.055999999999997      58.839000000000006
    23   1      5.3489999999999958      58.839000000000006      57.055999999999997
    24   1      3.5659999999999954      57.055999999999997      60.621999999999993
    25   1      5.3489999999999958      57.055999999999997      62.405000000000001
    26   1      5.3489999999999958      58.839000000000006      60.621999999999993
    27   1      5.3489999999999958      60.621999999999993      55.273000000000003
    28   1      3.5659999999999954      60.621999999999993      57.055999999999997
    29   1      5.3489999999999958      60.621999999999993      58.839000000000006
    30   1      5.3489999999999958      62.405000000000001      57.055999999999997
    31   1      8.9149999999999991      48.141000000000005      57.055999999999997
    32   1       7.131999999999997      51.706999999999994      51.706999999999994
    33   1      8.9149999999999991      49.923999999999999      51.706999999999994
    34   1      8.9149999999999991      51.706999999999994      49.923999999999999
    35   1       7.131999999999997      51.706999999999994      55.273000000000003
    36   1      8.9149999999999991      49.923999999999999      55.273000000000003
    37   1      8.9149999999999991      51.706999999999994      53.490000000000002
    38   1       7.131999999999997      49.923999999999999      57.055999999999997
    39   1       7.131999999999997      51.706999999999994      58.839000000000006
    40   1      8.9149999999999991      49.923999999999999      58.839000000000006
    41   1      8.9149999999999991      51.706999999999994      57.055999999999997
    42   1       7.131999999999997      51.706999999999994      62.405000000000001
    43   1      8.9149999999999991      49.923999999999999      62.405000000000001
    44   1      8.9149999999999991      51.706999999999994      60.621999999999993
    45   1      8.9149999999999991      51.706999999999994      64.188000000000002
    46   1       7.131999999999997      55.273000000000003      51.706999999999994
    47   1      8.9149999999999991      53.490000000000002      51.706999999999994
    48   1      8.9149999999999991      55.273000000000003      49.923999999999999
    49   1       7.131999999999997      53.490000000000002      53.490000000000002
    50   1       7.131999999999997      55.273000000000003      55.273000000000003
    51   1      8.9149999999999991      53.490000000000002      55.273000000000003
    52   1      8.9149999999999991      55.273000000000003      53.490000000000002
    53   1       7.131999999999997      53.490000000000002      57.055999999999997
    54   1       7.131999999999997      55.273000000000003      58.839000000000006
    55   1      8.9149999999999991      53.490000000000002      58.839000000000006
    56   1      8.9149999999999991      55.273000000000003      57.055999999999997
    57   1       7.131999999999997      53.490000000000002      60.621999999999993
    58   1       7.131999999999997      55.273000000000003      62.405000000000001
    59   1      8.9149999999999991      53.490000000000002      62.405000000000001
    60   1      8.9149999999999991      55.273000000000003      60.621999999999993
    61   1      8.9149999999999991      55.273000000000003      64.188000000000002
    62   1      8.9149999999999991      57.055999999999997      48.141000000000005
    63   1       7.131999999999997      57.055999999999997      49.923999999999999
    64   1       7.131999999999997      58.839000000000006      51.706999999999994
    65   1      8.9149999999999991      57.055999999999997      51.706999999999994
    66   1      8.9149999999999991      58.839000000000006      49.923999999999999
    67   1       7.131999999999997      57.055999999999997      53.490000000000002
    68   1       7.131999999999997      58.839000000000006      55.273000000000003
    69   1      8.9149999999999991      57.055999999999997      55.273000000000003
    70   1      8.9149999999999991      58.839000000000006      53.490000000000002
    71   1       7.131999999999997      57.055999999999997      57.055999999999997
    72   1       7.131999999999997      58.839000000000006      58.839000000000006
    73   1      8.9149999999999991      57.055999999999997      58.839000000000006
    74   1      8.9149999999999991      58.839000000000006      57.055999999999997
    75   1       7.131999999999997      57.055999999999997      60.621999999999993
    76   1       7.131999999999997      58.839000000000006      62.405000000000001
    77   1      8.9149999999999991      57.055999999999997      62.405000000000001
    78   1      8.9149999999999991      58.839000000000006      60.621999999999993
    79   1       7.131999999999997      57.055999999999997      64.188000000000002
    80   1      8.9149999999999991      57.055999999999997      65.970999999999989
    81   1      8.9149999999999991      58.839000000000006      64.188000000000002
    82   1       7.131999999999997      62.405000000000001      51.706999999999994
    83   1      8.9149999999999991      60.621999999999993      51.706999999999994
    84   1      8.9149999999999991      62.405000000000001      49.923999999999999
    85   1       7.131999999999997      60.621999999999993      53.490000000000002
    86   1       7.131999999999997      62.405000000000001      55.273000000000003
    87   1      8.9149999999999991      60.621999999999993      55.273000000000003
    88   1      8.9149999999999991      62.405000000000001      53.490000000000002
    89   1       7.131999999999997      60.621999999999993      57.055999999999997
    90   1       7.131999999999997      62.405000000000001      58.839000000000006
    91   1      8.9149999999999991      60.621999999999993      58.839000000000006
    92   1      8.9149999999999991      62.405000000000001      57.055999999999997
    93   1       7.131999999999997      60.621999999999993      60.621999999999993
    94   1       7.131999999999997      62.405000000000001      62.405000000000001
    95   1      8.9149999999999991      60.621999999999993      62.405000000000001
    96   1      8.9149999999999991      62.405000000000001      60.621999999999993
    97   1      8.9149999999999991      62.405000000000001      64.188000000000002
    98   1      8.9149999999999991      64.188000000000002      51.706999999999994
    99   1      8.9149999999999991      64.188000000000002      55.273000000000003
   100   1       7.131999999999997      64.188000000000002      57.055999999999997
   101   1      8.9149999999999991      64.188000000000002      58.839000000000006
   102   1      8.9149999999999991      65.970999999999989      57.055999999999997
   103   1      8.9149999999999991      64.188000000000002      62.405000000000001
   104   1      12.481000000000002      44.575000000000003      57.055999999999997
   105   1                  10.698      48.141000000000005      48.141000000000005
   106   1      12.481000000000002      46.357999999999997      48.141000000000005
   107   1      12.481000000000002      48.141000000000005      46.357999999999997
   108   1                  10.698      48.141000000000005      51.706999999999994
   109   1      12.481000000000002      46.357999999999997      51.706999999999994
   110   1      12.481000000000002      48.141000000000005      49.923999999999999
   111   1                  10.698      48.141000000000005      55.273000000000003
   112   1      12.481000000000002      46.357999999999997      55.273000000000003
   113   1      12.481000000000002      48.141000000000005      53.490000000000002
   114   1                  10.698      46.357999999999997      57.055999999999997
   115   1                  10.698      48.141000000000005      58.839000000000006
   116   1      12.481000000000002      46.357999999999997      58.839000000000006
   117   1      12.481000000000002      48.141000000000005      57.055999999999997
   118   1                  10.698      48.141000000000005      62.405000000000001
   119   1      12.481000000000002      46.357999999999997      62.405000000000001
   120   1      12.481000000000002      48.141000000000005      60.621999999999993
   121   1                  10.698      48.141000000000005      65.970999999999989
   122   1      12.481000000000002      46.357999999999997      65.970999999999989
   123   1      12.481000000000002      48.141000000000005      64.188000000000002
   124   1      12.481000000000002      48.141000000000005      67.754000000000005
   125   1                  10.698      51.706999999999994      48.141000000000005
   126   1      12.481000000000002      49.923999999999999      48.141000000000005
   127   1      12.481000000000002      51.706999999999994      46.357999999999997
   128   1                  10.698      49.923999999999999      49.923999999999999
   129   1                  10.698      51.706999999999994      51.706999999999994
   130   1      12.481000000000002      49.923999999999999      51.706999999999994
   131   1      12.481000000000002      51.706999999999994      49.923999999999999
   132   1                  10.698      49.923999999999999      53.490000000000002
   133   1                  10.698      51.706999999999994      55.273000000000003
   134   1      12.481000000000002      49.923999999999999      55.273000000000003
   135   1      12.481000000000002      51.706999999999994      53.490000000000002
   136   1                  10.698      49.923999999999999      57.055999999999997
   137   1                  10.698      51.706999999999994      58.839000000000006
   138   1      12.481000000000002      49.923999999999999      58.839000000000006
   139   1      12.481000000000002      51.706999999999994      57.055999999999997
   140   1                  10.698      49.923999999999999      60.621999999999993
   141   1                  10.698      51.706999999999994      62.405000000000001
   142   1      12.481000000000002      49.923999999999999      62.405000000000001
   143   1      12.481000000000002      51.706999999999994      60.621999999999993
   144   1                  10.698      49.923999999999999      64.188000000000002
   145   1                  10.698      51.706999999999994      65.970999999999989
   146   1      12.481000000000002      49.923999999999999      65.970999999999989
   147   1      12.481000000000002      51.706999999999994      64.188000000000002
   148   1      12.481000000000002      51.706999999999994      67.754000000000005
   149   1                  10.698      55.273000000000003      48.141000000000005
   150   1      12.481000000000002      53.490000000000002      48.141000000000005
   151   1      12.481000000000002      55.273000000000003      46.357999999999997
   152   1                  10.698      53.490000000000002      49.923999999999999
   153   1                  10.698      55.273000000000003      51.706999999999994
   154   1      12.481000000000002      53.490000000000002      51.706999999999994
   155   1      12.481000000000002      55.273000000000003      49.923999999999999
   156   1                  10.698      53.490000000000002      53.490000000000002
   157   1                  10.698      55.273000000000003      55.273000000000003
   158   1      12.481000000000002      53.490000000000002      55.273000000000003
   159   1      12.481000000000002      55.273000000000003      53.490000000000002
   160   1                  10.698      53.490000000000002      57.055999999999997
   161   1                  10.698      55.273000000000003      58.839000000000006
   162   1      12.481000000000002      53.490000000000002      58.839000000000006
   163   1      12.481000000000002      55.273000000000003      57.055999999999997
   164   1                  10.698      53.490000000000002      60.621999999999993
   165   1                  10.698      55.273000000000003      62.405000000000001
   166   1      12.481000000000002      53.490000000000002      62.405000000000001
   167   1      12.481000000000002      55.273000000000003      60.621999999999993
   168   1                  10.698      53.490000000000002      64.188000000000002
   169   1                  10.698      55.273000000000003      65.970999999999989
   170   1      12.481000000000002      53.490000000000002      65.970999999999989
   171   1      12.481000000000002      55.273000000000003      64.188000000000002
   172   1      12.481000000000002      55.273000000000003      67.754000000000005
   173   1      12.481000000000002      57.055999999999997      44.575000000000003
   174   1                  10.698      57.055999999999997      46.357999999999997
   175   1                  10.698      58.839000000000006      48.141000000000005
   176   1      12.481000000000002      57.055999999999997      48.141000000000005
   177   1      12.481000000000002      58.839000000000006      46.357999999999997
   178   1                  10.698      57.055999999999997      49.923999999999999
   179   1                  10.698      58.839000000000006      51.706999999999994
   180   1      12.481000000000002      57.055999999999997      51.706999999999994
   181   1      12.481000000000002      58.839000000000006      49.923999999999999
   182   1                  10.698      57.055999999999997      53.490000000000002
   183   1                  10.698      58.839000000000006      55.273000000000003
   184   1      12.481000000000002      57.055999999999997      55.273000000000003
   185   1      12.481000000000002      58.839000000000006      53.490000000000002
   186   1                  10.698      57.055999999999997      57.055999999999997
   187   1                  10.698      58.839000000000006      58.839000000000006
   188   1      12.481000000000002      57.055999999999997      58.839000000000006
   189   1      12.481000000000002      58.839000000000006      57.055999999999997
   190   1                  10.698      57.055999999999997      60.621999999999993
   191   1                  10.698      58.839000000000006      62.405000000000001
   192   1      12.481000000000002      57.055999999999997      62.405000000000001
   193   1      12.481000000000002      58.839000000000006      60.621999999999993
   194   1                  10.698      57.055999999999997      64.188000000000002
   195   1                  10.698      58.839000000000006      65.970999999999989
   196   1      12.481000000000002      57.055999999999997      65.970999999999989
   197   1      12.481000000000002      58.839000000000006      64.188000000000002
   198   1                  10.698      57.055999999999997      67.754000000000005
   199   1      12.481000000000002      57.055999999999997      69.537000000000006
   200   1      12.481000000000002      58.839000000000006      67.754000000000005
   201   1                  10.698      62.405000000000001      48.141000000000005
   202   1      12.481000000000002      60.621999999999993      48.141000000000005
   203   1      12.481000000000002      62.405000000000001      46.357999999999997
   204   1                  10.698      60.621999999999993      49.923999999999999
   205   1                  10.698      62.405000000000001      51.706999999999994
   206   1      12.481000000000002      60.621999999999993      51.706999999999994
   207   1      12.481000000000002      62.405000000000001      49.923999999999999
   208   1                  10.698      60.621999999999993      53.490000000000002
   209   1                  10.698      62.405000000000001      55.273000000000003
   210   1      12.481000000000002      60.621999999999993      55.273000000000003
   211   1      12.481000000000002      62.405000000000001      53.490000000000002
   212   1                  10.698      60.621999999999993      57.055999999999997
   213   1                  10.698      62.405000000000001      58.839000000000006
   214   1      12.481000000000002      60.621999999999993      58.839000000000006
   215   1      12.481000000000002      62.405000000000001      57.055999999999997
   216   1                  10.698      60.621999999999993      60.621999999999993
   217   1                  10.698      62.405000000000001      62.405000000000001
   218   1      12.481000000000002      60.621999999999993      62.405000000000001
   219   1      12.481000000000002      62.405000000000001      60.621999999999993
   220   1                  10.698      60.621999999999993      64.188000000000002
   221   1                  10.698      62.405000000000001      65.970999999999989
   222   1      12.481000000000002      60.621999999999993      65.970999999999989
   223   1      12.481000000000002      62.405000000000001      64.188000000000002
   224   1      12.481000000000002      62.405000000000001      67.754000000000005
   225   1                  10.698      65.970999999999989      48.141000000000005
   226   1      12.481000000000002      64.188000000000002      48.141000000000005
   227   1      12.481000000000002      65.970999999999989      46.357999999999997
   228   1                  10.698      64.188000000000002      49.923999999999999
   229   1                  10.698      65.970999999999989      51.706999999999994
   230   1      12.481000000000002      64.188000000000002      51.706999999999994
   231   1      12.481000000000002      65.970999999999989      49.923999999999999
   232   1                  10.698      64.188000000000002      53.490000000000002
   233   1                  10.698      65.970999999999989      55.273000000000003
   234   1      12.481000000000002      64.188000000000002      55.273000000000003
   235   1      12.481000000000002      65.970999999999989      53.490000000000002
   236   1                  10.698      64.188000000000002      57.055999999999997
   237   1                  10.698      65.970999999999989      58.839000000000006
   238   1      12.481000000000002      64.188000000000002      58.839000000000006
   239   1      12.481000000000002      65.970999999999989      57.055999999999997
   240   1                  10.698      64.188000000000002      60.621999999999993
   241   1                  10.698      65.970999999999989      62.405000000000001
   242   1      12.481000000000002      64.188000000000002      62.405000000000001
   243   1      12.481000000000002      65.970999999999989      60.621999999999993
   244   1                  10.698      64.188000000000002      64.188000000000002
   245   1                  10.698      65.970999999999989      65.970999999999989
   246   1      12.481000000000002      64.188000000000002      65.970999999999989
   247   1      12.481000000000002      65.970999999999989      64.188000000000002
   248   1      12.481000000000002      65.970999999999989      67.754000000000005
   249   1      12.481000000000002      67.754000000000005      48.141000000000005
   250   1      12.481000000000002      67.754000000000005      51.706999999999994
   251   1      12.481000000000002      67.754000000000005      55.273000000000003
   252   1                  10.698      67.754000000000005      57.055999999999997
   253   1      12.481000000000002      67.754000000000005      58.839000000000006
   254   1      12.481000000000002      69.537000000000006      57.055999999999997
   255   1      12.481000000000002      67.754000000000005      62.405000000000001
   256   1      12.481000000000002      67.754000000000005      65.970999999999989
   257   1      16.047000000000004      41.008999999999993      57.055999999999997
   258   1      14.264000000000003      44.575000000000003      48.141000000000005
   259   1      16.047000000000004      42.792000000000002      48.141000000000005
   260   1      16.047000000000004      44.575000000000003      46.357999999999997
   261   1      14.264000000000003      44.575000000000003      51.706999999999994
   262   1      16.047000000000004      42.792000000000002      51.706999999999994
   263   1      16.047000000000004      44.575000000000003      49.923999999999999
   264   1      14.264000000000003      44.575000000000003      55.273000000000003
   265   1      16.047000000000004      42.792000000000002      55.273000000000003
   266   1      16.047000000000004      44.575000000000003      53.490000000000002
   267   1      14.264000000000003      42.792000000000002      57.055999999999997
   268   1      14.264000000000003      44.575000000000003      58.839000000000006
   269   1      16.047000000000004      42.792000000000002      58.839000000000006
   270   1      16.047000000000004      44.575000000000003      57.055999999999997
   271   1      14.264000000000003      44.575000000000003      62.405000000000001
   272   1      16.047000000000004      42.792000000000002      62.405000000000001
   273   1      16.047000000000004      44.575000000000003      60.621999999999993
   274   1      14.264000000000003      44.575000000000003      65.970999999999989
   275   1      16.047000000000004      42.792000000000002      65.970999999999989
   276   1      16.047000000000004      44.575000000000003      64.188000000000002
   277   1      16.047000000000004      44.575000000000003      67.754000000000005
   278   1      14.264000000000003      48.141000000000005      44.575000000000003
   279   1      16.047000000000004      46.357999999999997      44.575000000000003
   280   1      16.047000000000004      48.141000000000005      42.792000000000002
   281   1      14.264000000000003      46.357999999999997      46.357999999999997
   282   1      14.264000000000003      48.141000000000005      48.141000000000005
   283   1      16.047000000000004      46.357999999999997      48.141000000000005
   284   1      16.047000000000004      48.141000000000005      46.357999999999997
   285   1      14.264000000000003      46.357999999999997      49.923999999999999
   286   1      14.264000000000003      48.141000000000005      51.706999999999994
   287   1      16.047000000000004      46.357999999999997      51.706999999999994
   288   1      16.047000000000004      48.141000000000005      49.923999999999999
   289   1      14.264000000000003      46.357999999999997      53.490000000000002
   290   1      14.264000000000003      48.141000000000005      55.273000000000003
   291   1      16.047000000000004      46.357999999999997      55.273000000000003
   292   1      16.047000000000004      48.141000000000005      53.490000000000002
   293   1      14.264000000000003      46.357999999999997      57.055999999999997
   294   1      14.264000000000003      48.141000000000005      58.839000000000006
   295   1      16.047000000000004      46.357999999999997      58.839000000000006
   296   1      16.047000000000004      48.141000000000005      57.055999999999997
   297   1      14.264000000000003      46.357999999999997      60.621999999999993
   298   1      14.264000000000003      48.141000000000005      62.405000000000001
   299   1      16.047000000000004      46.357999999999997      62.405000000000001
   300   1      16.047000000000004      48.141000000000005      60.621999999999993
   301   1      14.264000000000003      46.357999999999997      64.188000000000002
   302   1      14.264000000000003      48.141000000000005      65.970999999999989
   303   1      16.047000000000004      46.357999999999997      65.970999999999989
   304   1      16.047000000000004      48.141000000000005      64.188000000000002
   305   1      14.264000000000003      46.357999999999997      67.754000000000005
   306   1      14.264000000000003      48.141000000000005      69.537000000000006
   307   1      16.047000000000004      46.357999999999997      69.537000000000006
   308   1      16.047000000000004      48.141000000000005      67.754000000000005
   309   1      16.047000000000004      48.141000000000005      71.319999999999993
   310   1      14.264000000000003      51.706999999999994      44.575000000000003
   311   1      16.047000000000004      49.923999999999999      44.575000000000003
   312   1      16.047000000000004      51.706999999999994      42.792000000000002
   313   1      14.264000000000003      49.923999999999999      46.357999999999997
   314   1      14.264000000000003      51.706999999999994      48.141000000000005
   315   1      16.047000000000004      49.923999999999999      48.141000000000005
   316   1      16.047000000000004      51.706999999999994      46.357999999999997
   317   1      14.264000000000003      49.923999999999999      49.923999999999999
   318   1      14.264000000000003      51.706999999999994      51.706999999999994
   319   1      16.047000000000004      49.923999999999999      51.706999999999994
   320   1      16.047000000000004      51.706999999999994      49.923999999999999
   321   1      14.264000000000003      49.923999999999999      53.490000000000002
   322   1      14.264000000000003      51.706999999999994      55.273000000000003
   323   1      16.047000000000004      49.923999999999999      55.273000000000003
   324   1      16.047000000000004      51.706999999999994      53.490000000000002
   325   1      14.264000000000003      49.923999999999999      57.055999999999997
   326   1      14.264000000000003      51.706999999999994      58.839000000000006
   327   1      16.047000000000004      49.923999999999999      58.839000000000006
   328   1      16.047000000000004      51.706999999999994      57.055999999999997
   329   1      14.264000000000003      49.923999999999999      60.621999999999993
   330   1      14.264000000000003      51.706999999999994      62.405000000000001
   331   1      16.047000000000004      49.923999999999999      62.405000000000001
   332   1      16.047000000000004      51.706999999999994      60.621999999999993
   333   1      14.264000000000003      49.923999999999999      64.188000000000002
   334   1      14.264000000000003      51.706999999999994      65.970999999999989
   335   1      16.047000000000004      49.923999999999999      65.970999999999989
   336   1      16.047000000000004      51.706999999999994      64.188000000000002
   337   1      14.264000000000003      49.923999999999999      67.754000000000005
   338   1      14.264000000000003      51.706999999999994      69.537000000000006
   339   1      16.047000000000004      49.923999999999999      69.537000000000006
   340   1      16.047000000000004      51.706999999999994      67.754000000000005
   341   1      16.047000000000004      51.706999999999994      71.319999999999993
   342   1      14.264000000000003      55.273000000000003      44.575000000000003
   343   1      16.047000000000004      53.490000000000002      44.575000000000003
   344   1      16.047000000000004      55.273000000000003      42.792000000000002
   345   1      14.264000000000003      53.490000000000002      46.357999999999997
   346   1      14.264000000000003      55.273000000000003      48.141000000000005
   347   1      16.047000000000004      53.490000000000002      48.141000000000005
   348   1      16.047000000000004      55.273000000000003      46.357999999999997
   349   1      14.264000000000003      53.490000000000002      49.923999999999999
   350   1      14.264000000000003      55.273000000000003      51.706999999999994
   351   1      16.047000000000004      53.490000000000002      51.706999999999994
   352   1      16.047000000000004      55.273000000000003      49.923999999999999
   353   1      14.264000000000003      53.490000000000002      53.490000000000002
   354   1      14.264000000000003      55.273000000000003      55.273000000000003
   355   1      16.047000000000004      53.490000000000002      55.273000000000003
   356   1      16.047000000000004      55.273000000000003      53.490000000000002
   357   1      14.264000000000003      53.490000000000002      57.055999999999997
   358   1      14.264000000000003      55.273000000000003      58.839000000000006