LAMMPS data file via write_data, version 30 Nov 2020, timestep = 0

30029 atoms
5 atom types

0 86 xlo xhi
0 86 ylo yhi
0 86 zlo zhi

Masses

1 58.7
2 55.8
3 52
4 59
5 26

Atoms # atomic

1 3 1.8049999999999995 37.905 39.71 0 0 0
4 5 1.8049999999999995 39.71 37.905 0 0 0
5 2 0 41.515 41.515 0 0 0
6 2 1.8049999999999995 39.71 41.515 0 0 0
7 3 1.8049999999999995 41.515 39.71 0 0 0
30 2 5.414999999999999 28.880000000000003 30.685 0 0 0
31 3 5.414999999999999 30.685 28.880000000000003 0 0 0
32 1 5.414999999999999 28.880000000000003 34.295 0 0 0
33 3 5.414999999999999 30.685 32.49 0 0 0
34 4 5.414999999999999 28.880000000000003 37.905 0 0 0
35 4 5.414999999999999 30.685 36.1 0 0 0
36 5 5.414999999999999 28.880000000000003 41.515 0 0 0
37 4 5.414999999999999 30.685 39.71 0 0 0
47 5 5.414999999999999 32.49 30.685 0 0 0
48 1 5.414999999999999 34.295 28.880000000000003 0 0 0
49 5 3.609999999999999 32.49 32.49 0 0 0
50 2 3.609999999999999 34.295 34.295 0 0 0
51 4 5.414999999999999 32.49 34.295 0 0 0
52 4 5.414999999999999 34.295 32.49 0 0 0
53 5 3.609999999999999 32.49 36.1 0 0 0
54 1 3.609999999999999 34.295 37.905 0 0 0
55 5 5.414999999999999 32.49 37.905 0 0 0
56 4 5.414999999999999 34.295 36.1 0 0 0
57 3 3.609999999999999 32.49 39.71 0 0 0
58 4 3.609999999999999 34.295 41.515 0 0 0
59 5 5.414999999999999 32.49 41.515 0 0 0
60 3 5.414999999999999 34.295 39.71 0 0 0
77 2 5.414999999999999 36.1 30.685 0 0 0
78 1 5.414999999999999 37.905 28.880000000000003 0 0 0
79 5 3.609999999999999 36.1 32.49 0 0 0
80 5 3.609999999999999 37.905 34.295 0 0 0
81 3 5.414999999999999 36.1 34.295 0 0 0
82 3 5.414999999999999 37.905 32.49 0 0 0
83 5 3.609999999999999 36.1 36.1 0 0 0
84 3 3.609999999999999 37.905 37.905 0 0 0
85 1 5.414999999999999 36.1 37.905 0 0 0
86 4 5.414999999999999 37.905 36.1 0 0 0
87 4 3.609999999999999 36.1 39.71 0 0 0
88 1 3.609999999999999 37.905 41.515 0 0 0
89 4 5.414999999999999 36.1 41.515 0 0 0
90 3 5.414999999999999 37.905 39.71 0 0 0
107 1 5.414999999999999 39.71 30.685 0 0 0
108 4 5.414999999999999 41.515 28.880000000000003 0 0 0
109 3 3.609999999999999 39.71 32.49 0 0 0
110 2 3.609999999999999 41.515 34.295 0 0 0
111 4 5.414999999999999 39.71 34.295 0 0 0
112 5 5.414999999999999 41.515 32.49 0 0 0
113 3 3.609999999999999 39.71 36.1 0 0 0
114 2 3.609999999999999 41.515 37.905 0 0 0
115 5 5.414999999999999 39.71 37.905 0 0 0
116 3 5.414999999999999 41.515 36.1 0 0 0
117 4 3.609999999999999 39.71 39.71 0 0 0
118 3 3.609999999999999 41.515 41.515 0 0 0
119 4 5.414999999999999 39.71 41.515 0 0 0
120 1 5.414999999999999 41.515 39.71 0 0 0
259 1 9.024999999999999 19.855 21.66 0 0 0
260 1 9.024999999999999 19.855 25.270000000000003 0 0 0
261 3 9.024999999999999 19.855 28.880000000000003 0 0 0
262 2 9.024999999999999 19.855 32.49 0 0 0
263 5 9.024999999999999 19.855 36.1 0 0 0
264 1 9.024999999999999 19.855 39.71 0 0 0
272 1 9.024999999999999 21.66 19.855 0 0 0
273 2 7.219999999999998 23.465 23.465 0 0 0
274 3 9.024999999999999 21.66 23.465 0 0 0
275 3 9.024999999999999 23.465 21.66 0 0 0
276 5 7.219999999999998 23.465 27.075 0 0 0
277 4 9.024999999999999 21.66 27.075 0 0 0
278 2 9.024999999999999 23.465 25.270000000000003 0 0 0
279 5 7.219999999999998 23.465 30.685 0 0 0
280 3 9.024999999999999 21.66 30.685 0 0 0
281 1 9.024999999999999 23.465 28.880000000000003 0 0 0
282 2 7.219999999999998 23.465 34.295 0 0 0
283 5 9.024999999999999 21.66 34.295 0 0 0
284 3 9.024999999999999 23.465 32.49 0 0 0
285 2 7.219999999999998 23.465 37.905 0 0 0
286 5 9.024999999999999 21.66 37.905 0 0 0
287 3 9.024999999999999 23.465 36.1 0 0 0
288 2 7.219999999999998 23.465 41.515 0 0 0
289 4 9.024999999999999 21.66 41.515 0 0 0
290 2 9.024999999999999 23.465 39.71 0 0 0
311 5 9.024999999999999 25.270000000000003 19.855 0 0 0
312 2 7.219999999999998 27.075 23.465 0 0 0
313 5 9.024999999999999 25.270000000000003 23.465 0 0 0
314 4 9.024999999999999 27.075 21.66 0 0 0
315 5 7.219999999999998 25.270000000000003 25.270000000000003 0 0 0
316 2 7.219999999999998 27.075 27.075 0 0 0
317 5 9.024999999999999 25.270000000000003 27.075 0 0 0
318 3 9.024999999999999 27.075 25.270000000000003 0 0 0
319 2 7.219999999999998 25.270000000000003 28.880000000000003 0 0 0
320 4 7.219999999999998 27.075 30.685 0 0 0
321 2 9.024999999999999 25.270000000000003 30.685 0 0 0
322 3 9.024999999999999 27.075 28.880000000000003 0 0 0
323 1 7.219999999999998 25.270000000000003 32.49 0 0 0
324 1 7.219999999999998 27.075 34.295 0 0 0
325 4 9.024999999999999 25.270000000000003 34.295 0 0 0
326 5 9.024999999999999 27.075 32.49 0 0 0
327 5 7.219999999999998 25.270000000000003 36.1 0 0 0
328 1 7.219999999999998 27.075 37.905 0 0 0
329 1 9.024999999999999 25.270000000000003 37.905 0 0 0
330 3 9.024999999999999 27.075 36.1 0 0 0
331 2 7.219999999999998 25.270000000000003 39.71 0 0 0
332 1 7.219999999999998 27.075 41.515 0 0 0
333 3 9.024999999999999 25.270000000000003 41.515 0 0 0
334 1 9.024999999999999 27.075 39.71 0 0 0
361 5 9.024999999999999 28.880000000000003 19.855 0 0 0
362 5 7.219999999999998 30.685 23.465 0 0 0
363 1 9.024999999999999 28.880000000000003 23.465 0 0 0
364 5 9.024999999999999 30.685 21.66 0 0 0
365 2 7.219999999999998 28.880000000000003 25.270000000000003 0 0 0
366 2 7.219999999999998 30.685 27.075 0 0 0
367 4 9.024999999999999 28.880000000000003 27.075 0 0 0
368 1 9.024999999999999 30.685 25.270000000000003 0 0 0
369 2 7.219999999999998 28.880000000000003 28.880000000000003 0 0 0
370 1 7.219999999999998 30.685 30.685 0 0 0
371 4 9.024999999999999 28.880000000000003 30.685 0 0 0
372 5 9.024999999999999 30.685 28.880000000000003 0 0 0
373 5 7.219999999999998 28.880000000000003 32.49 0 0 0
374 2 7.219999999999998 30.685 34.295 0 0 0
375 4 9.024999999999999 28.880000000000003 34.295 0 0 0
376 1 9.024999999999999 30.685 32.49 0 0 0
377 2 7.219999999999998 28.880000000000003 36.1 0 0 0
378 1 7.219999999999998 30.685 37.905 0 0 0
379 5 9.024999999999999 28.880000000000003 37.905 0 0 0
380 5 9.024999999999999 30.685 36.1 0 0 0
381 3 7.219999999999998 28.880000000000003 39.71 0 0 0
382 4 7.219999999999998 30.685 41.515 0 0 0
383 1 9.024999999999999 28.880000000000003 41.515 0 0 0
384 3 9.024999999999999 30.685 39.71 0 0 0
411 2 9.024999999999999 32.49 19.855 0 0 0
412 1 7.219999999999998 34.295 23.465 0 0 0
413 5 9.024999999999999 32.49 23.465 0 0 0
414 3 9.024999999999999 34.295 21.66 0 0 0
415 1 7.219999999999998 32.49 25.270000000000003 0 0 0
416 4 7.219999999999998 34.295 27.075 0 0 0
417 2 9.024999999999999 32.49 27.075 0 0 0
418 5 9.024999999999999 34.295 25.270000000000003 0 0 0
419 3 7.219999999999998 32.49 28.880000000000003 0 0 0
420 4 7.219999999999998 34.295 30.685 0 0 0
421 4 9.024999999999999 32.49 30.685 0 0 0
422 4 9.024999999999999 34.295 28.880000000000003 0 0 0
423 5 7.219999999999998 32.49 32.49 0 0 0
424 5 7.219999999999998 34.295 34.295 0 0 0
425 2 9.024999999999999 32.49 34.295 0 0 0
426 1 9.024999999999999 34.295 32.49 0 0 0
427 5 7.219999999999998 32.49 36.1 0 0 0
428 4 7.219999999999998 34.295 37.905 0 0 0
429 5 9.024999999999999 32.49 37.905 0 0 0
430 5 9.024999999999999 34.295 36.1 0 0 0
431 2 7.219999999999998 32.49 39.71 0 0 0
432 4 7.219999999999998 34.295 41.515 0 0 0
433 4 9.024999999999999 32.49 41.515 0 0 0
434 4 9.024999999999999 34.295 39.71 0 0 0
461 1 9.024999999999999 36.1 19.855 0 0 0
462 1 7.219999999999998 37.905 23.465 0 0 0
463 3 9.024999999999999 36.1 23.465 0 0 0
464 3 9.024999999999999 37.905 21.66 0 0 0
465 2 7.219999999999998 36.1 25.270000000000003 0 0 0
466 2 7.219999999999998 37.905 27.075 0 0 0
467 1 9.024999999999999 36.1 27.075 0 0 0
468 3 9.024999999999999 37.905 25.270000000000003 0 0 0
469 5 7.219999999999998 36.1 28.880000000000003 0 0 0
470 3 7.219999999999998 37.905 30.685 0 0 0
471 3 9.024999999999999 36.1 30.685 0 0 0
472 5 9.024999999999999 37.905 28.880000000000003 0 0 0
473 5 7.219999999999998 36.1 32.49 0 0 0
474 2 7.219999999999998 37.905 34.295 0 0 0
475 2 9.024999999999999 36.1 34.295 0 0 0
476 3 9.024999999999999 37.905 32.49 0 0 0
477 5 7.219999999999998 36.1 36.1 0 0 0
478 4 7.219999999999998 37.905 37.905 0 0 0
479 3 9.024999999999999 36.1 37.905 0 0 0
480 2 9.024999999999999 37.905 36.1 0 0 0
481 3 7.219999999999998 36.1 39.71 0 0 0
482 1 7.219999999999998 37.905 41.515 0 0 0
483 3 9.024999999999999 36.1 41.515 0 0 0
484 2 9.024999999999999 37.905 39.71 0 0 0
511 1 9.024999999999999 39.71 19.855 0 0 0
512 5 7.219999999999998 41.515 23.465 0 0 0
513 5 9.024999999999999 39.71 23.465 0 0 0
514 4 9.024999999999999 41.515 21.66 0 0 0
515 1 7.219999999999998 39.71 25.270000000000003 0 0 0
516 4 7.219999999999998 41.515 27.075 0 0 0
517 3 9.024999999999999 39.71 27.075 0 0 0
518 1 9.024999999999999 41.515 25.270000000000003 0 0 0
519 4 7.219999999999998 39.71 28.880000000000003 0 0 0
520 4 7.219999999999998 41.515 30.685 0 0 0
521 3 9.024999999999999 39.71 30.685 0 0 0
522 1 9.024999999999999 41.515 28.880000000000003 0 0 0
523 3 7.219999999999998 39.71 32.49 0 0 0
524 4 7.219999999999998 41.515 34.295 0 0 0
525 5 9.024999999999999 39.71 34.295 0 0 0
526 5 9.024999999999999 41.515 32.49 0 0 0
527 1 7.219999999999998 39.71 36.1 0 0 0
528 4 7.219999999999998 41.515 37.905 0 0 0
529 1 9.024999999999999 39.71 37.905 0 0 0
530 1 9.024999999999999 41.515 36.1 0 0 0
531 4 7.219999999999998 39.71 39.71 0 0 0
532 5 7.219999999999998 41.515 41.515 0 0 0
533 2 9.024999999999999 39.71 41.515 0 0 0
534 2 9.024999999999999 41.515 39.71 0 0 0
888 5 12.635000000000002 12.635000000000002 14.440000000000001 0 0 0
889 5 12.635000000000002 12.635000000000002 18.05 0 0 0
890 4 12.635000000000002 12.635000000000002 21.66 0 0 0
891 3 12.635000000000002 12.635000000000002 25.270000000000003 0 0 0
892 5 12.635000000000002 12.635000000000002 28.880000000000003 0 0 0
893 4 12.635000000000002 12.635000000000002 32.49 0 0 0
894 5 12.635000000000002 12.635000000000002 36.1 0 0 0
895 4 12.635000000000002 12.635000000000002 39.71 0 0 0
905 1 12.635000000000002 14.440000000000001 12.635000000000002 0 0 0
906 5 10.829999999999998 14.440000000000001 14.440000000000001 0 0 0
907 1 10.829999999999998 16.245 16.245 0 0 0
908 3 12.635000000000002 14.440000000000001 16.245 0 0 0
909 3 12.635000000000002 16.245 14.440000000000001 0 0 0
910 3 10.829999999999998 14.440000000000001 18.05 0 0 0
911 4 10.829999999999998 16.245 19.855 0 0 0
912 2 12.635000000000002 14.440000000000001 19.855 0 0 0
913 5 12.635000000000002 16.245 18.05 0 0 0
914 1 10.829999999999998 14.440000000000001 21.66 0 0 0
915 3 10.829999999999998 16.245 23.465 0 0 0
916 1 12.635000000000002 14.440000000000001 23.465 0 0 0
917 3 12.635000000000002 16.245 21.66 0 0 0
918 3 10.829999999999998 14.440000000000001 25.270000000000003 0 0 0
919 3 10.829999999999998 16.245 27.075 0 0 0
920 4 12.635000000000002 14.440000000000001 27.075 0 0 0
921 4 12.635000000000002 16.245 25.270000000000003 0 0 0
922 5 10.829999999999998 14.440000000000001 28.880000000000003 0 0 0
923 3 10.829999999999998 16.245 30.685 0 0 0
924 1 12.635000000000002 14.440000000000001 30.685 0 0 0
925 4 12.635000000000002 16.245 28.880000000000003 0 0 0
926 1 10.829999999999998 14.440000000000001 32.49 0 0 0
927 5 10.829999999999998 16.245 34.295 0 0 0
928 1 12.635000000000002 14.440000000000001 34.295 0 0 0
929 2 12.635000000000002 16.245 32.49 0 0 0
930 1 10.829999999999998 14.440000000000001 36.1 0 0 0
931 3 10.829999999999998 16.245 37.905 0 0 0
932 5 12.635000000000002 14.440000000000001 37.905 0 0 0
933 1 12.635000000000002 16.245 36.1 0 0 0
934 5 10.829999999999998 14.440000000000001 39.71 0 0 0
935 3 10.829999999999998 16.245 41.515 0 0 0
936 1 12.635000000000002 14.440000000000001 41.515 0 0 0
937 5 12.635000000000002 16.245 39.71 0 0 0
973 5 12.635000000000002 18.05 12.635000000000002 0 0 0
974 4 10.829999999999998 18.05 14.440000000000001 0 0 0
975 4 10.829999999999998 19.855 16.245 0 0 0
976 1 12.635000000000002 18.05 16.245 0 0 0
977 1 12.635000000000002 19.855 14.440000000000001 0 0 0
978 4 10.829999999999998 18.05 18.05 0 0 0
979 5 10.829999999999998 19.855 19.855 0 0 0
980 3 12.635000000000002 18.05 19.855 0 0 0
981 1 12.635000000000002 19.855 18.05 0 0 0
982 5 10.829999999999998 18.05 21.66 0 0 0
983 4 10.829999999999998 19.855 23.465 0 0 0
984 5 12.635000000000002 18.05 23.465 0 0 0
985 2 12.635000000000002 19.855 21.66 0 0 0
986 4 10.829999999999998 18.05 25.270000000000003 0 0 0
987 3 10.829999999999998 19.855 27.075 0 0 0
988 5 12.635000000000002 18.05 27.075 0 0 0
989 5 12.635000000000002 19.855 25.270000000000003 0 0 0
990 2 10.829999999999998 18.05 28.880000000000003 0 0 0
991 4 10.829999999999998 19.855 30.685 0 0 0
992 1 12.635000000000002 18.05 30.685 0 0 0
993 1 12.635000000000002 19.855 28.880000000000003 0 0 0
994 3 10.829999999999998 18.05 32.49 0 0 0
995 2 10.829999999999998 19.855 34.295 0 0 0
996 1 12.635000000000002 18.05 34.295 0 0 0
997 2 12.635000000000002 19.855 32.49 0 0 0
998 2 10.829999999999998 18.05 36.1 0 0 0
999 4 10.829999999999998 19.855 37.905 0 0 0
1000 5 12.635000000000002 18.05 37.905 0 0 0
1001 2 12.635000000000002 19.855 36.1 0 0 0
1002 3 10.829999999999998 18.05 39.71 0 0 0
1003 3 10.829999999999998 19.855 41.515 0 0 0
1004 4 12.635000000000002 18.05 41.515 0 0 0
1005 2 12.635000000000002 19.855 39.71 0 0 0
1041 4 12.635000000000002 21.66 12.635000000000002 0 0 0
1042 4 10.829999999999998 21.66 14.440000000000001 0 0 0
1043 4 10.829999999999998 23.465 16.245 0 0 0
1044 4 12.635000000000002 21.66 16.245 0 0 0
1045 1 12.635000000000002 23.465 14.440000000000001 0 0 0
1046 1 10.829999999999998 21.66 18.05 0 0 0
1047 4 10.829999999999998 23.465 19.855 0 0 0
1048 5 12.635000000000002 21.66 19.855 0 0 0
1049 1 12.635000000000002 23.465 18.05 0 0 0
1050 5 10.829999999999998 21.66 21.66 0 0 0
1051 2 10.829999999999998 23.465 23.465 0 0 0
1052 5 12.635000000000002 21.66 23.465 0 0 0
1053 5 12.635000000000002 23.465 21.66 0 0 0
1054 4 10.829999999999998 21.66 25.270000000000003 0 0 0
1055 5 10.829999999999998 23.465 27.075 0 0 0
1056 1 12.635000000000002 21.66 27.075 0 0 0
1057 1 12.635000000000002 23.465 25.270000000000003 0 0 0
1058 2 10.829999999999998 21.66 28.880000000000003 0 0 0
1059 5 10.829999999999998 23.465 30.685 0 0 0
1060 5 12.635000000000002 21.66 30.685 0 0 0
1061 1 12.635000000000002 23.465 28.880000000000003 0 0 0
1062 5 10.829999999999998 21.66 32.49 0 0 0
1063 2 10.829999999999998 23.465 34.295 0 0 0
1064 5 12.635000000000002 21.66 34.295 0 0 0
1065 3 12.635000000000002 23.465 32.49 0 0 0
1066 2 10.829999999999998 21.66 36.1 0 0 0
1067 3 10.829999999999998 23.465 37.905 0 0 0
1068 5 12.635000000000002 21.66 37.905 0 0 0
1069 1 12.635000000000002 23.465 36.1 0 0 0
1070 3 10.829999999999998 21.66 39.71 0 0 0
1071 3 10.829999999999998 23.465 41.515 0 0 0
1072 2 12.635000000000002 21.66 41.515 0 0 0
1073 5 12.635000000000002 23.465 39.71 0 0 0
1109 3 12.635000000000002 25.270000000000003 12.635000000000002 0 0 0
1110 5 10.829999999999998 25.270000000000003 14.440000000000001 0 0 0
1111 5 10.829999999999998 27.075 16.245 0 0 0
1112 1 12.635000000000002 25.270000000000003 16.245 0 0 0
1113 5 12.635000000000002 27.075 14.440000000000001 0 0 0
1114 5 10.829999999999998 25.270000000000003 18.05 0 0 0
1115 2 10.829999999999998 27.075 19.855 0 0 0
1116 2 12.635000000000002 25.270000000000003 19.855 0 0 0
1117 3 12.635000000000002 27.075 18.05 0 0 0
1118 5 10.829999999999998 25.270000000000003 21.66 0 0 0
1119 2 10.829999999999998 27.075 23.465 0 0 0
1120 3 12.635000000000002 25.270000000000003 23.465 0 0 0
1121 5 12.635000000000002 27.075 21.66 0 0 0
1122 4 10.829999999999998 25.270000000000003 25.270000000000003 0 0 0
1123 5 10.829999999999998 27.075 27.075 0 0 0
1124 2 12.635000000000002 25.270000000000003 27.075 0 0 0
1125 4 12.635000000000002 27.075 25.270000000000003 0 0 0
1126 4 10.829999999999998 25.270000000000003 28.880000000000003 0 0 0
1127 4 10.829999999999998 27.075 30.685 0 0 0
1128 5 12.635000000000002 25.270000000000003 30.685 0 0 0
1129 1 12.635000000000002 27.075 28.880000000000003 0 0 0
1130 4 10.829999999999998 25.270000000000003 32.49 0 0 0
1131 2 10.829999999999998 27.075 34.295 0 0 0
1132 2 12.635000000000002 25.270000000000003 34.295 0 0 0
1133 2 12.635000000000002 27.075 32.49 0 0 0
1134 5 10.829999999999998 25.270000000000003 36.1 0 0 0
1135 2 10.829999999999998 27.075 37.905 0 0 0
1136 5 12.635000000000002 25.270000000000003 37.905 0 0 0
1137 2 12.635000000000002 27.075 36.1 0 0 0
1138 2 10.829999999999998 25.270000000000003 39.71 0 0 0
1139 3 10.829999999999998 27.075 41.515 0 0 0
1140 4 12.635000000000002 25.270000000000003 41.515 0 0 0
1141 2 12.635000000000002 27.075 39.71 0 0 0
1177 2 12.635000000000002 28.880000000000003 12.635000000000002 0 0 0
1178 2 10.829999999999998 28.880000000000003 14.440000000000001 0 0 0
1179 1 10.829999999999998 30.685 16.245 0 0 0
1180 2 12.635000000000002 28.880000000000003 16.245 0 0 0
1181 1 12.635000000000002 30.685 14.440000000000001 0 0 0
1182 5 10.829999999999998 28.880000000000003 18.05 0 0 0
1183 4 10.829999999999998 30.685 19.855 0 0 0
1184 3 12.635000000000002 28.880000000000003 19.855 0 0 0
1185 5 12.635000000000002 30.685 18.05 0 0 0
1186 4 10.829999999999998 28.880000000000003 21.66 0 0 0
1187 5 10.829999999999998 30.685 23.465 0 0 0
1188 5 12.635000000000002 28.880000000000003 23.465 0 0 0
1189 5 12.635000000000002 30.685 21.66 0 0 0
1190 2 10.829999999999998 28.880000000000003 25.270000000000003 0 0 0
1191 1 10.829999999999998 30.685 27.075 0 0 0
1192 1 12.635000000000002 28.880000000000003 27.075 0 0 0
1193 3 12.635000000000002 30.685 25.270000000000003 0 0 0
1194 3 10.829999999999998 28.880000000000003 28.880000000000003 0 0 0
1195 4 10.829999999999998 30.685 30.685 0 0 0
1196 1 12.635000000000002 28.880000000000003 30.685 0 0 0
1197 3 12.635000000000002 30.685 28.880000000000003 0 0 0
1198 4 10.829999999999998 28.880000000000003 32.49 0 0 0
1199 5 10.829999999999998 30.685 34.295 0 0 0
1200 3 12.635000000000002 28.880000000000003 34.295 0 0 0
1201 4 12.635000000000002 30.685 32.49 0 0 0
1202 1 10.829999999999998 28.880000000000003 36.1 0 0 0
1203 1 10.829999999999998 30.685 37.905 0 0 0
1204 3 12.635000000000002 28.880000000000003 37.905 0 0 0
1205 3 12.635000000000002 30.685 36.1 0 0 0
1206 3 10.829999999999998 28.880000000000003 39.71 0 0 0
1207 1 10.829999999999998 30.685 41.515 0 0 0
1208 5 12.635000000000002 28.880000000000003 41.515 0 0 0
1209 1 12.635000000000002 30.685 39.71 0 0 0
1245 1 12.635000000000002 32.49 12.635000000000002 0 0 0
1246 1 10.829999999999998 32.49 14.440000000000001 0 0 0
1247 3 10.829999999999998 34.295 16.245 0 0 0
1248 2 12.635000000000002 32.49 16.245 0 0 0
1249 5 12.635000000000002 34.295 14.440000000000001 0 0 0
1250 3 10.829999999999998 32.49 18.05 0 0 0
1251 2 10.829999999999998 34.295 19.855 0 0 0
1252 1 12.635000000000002 32.49 19.855 0 0 0
1253 2 12.635000000000002 34.295 18.05 0 0 0
1254 4 10.829999999999998 32.49 21.66 0 0 0
1255 2 10.829999999999998 34.295 23.465 0 0 0
1256 2 12.635000000000002 32.49 23.465 0 0 0
1257 2 12.635000000000002 34.295 21.66 0 0 0
1258 5 10.829999999999998 32.49 25.270000000000003 0 0 0
1259 5 10.829999999999998 34.295 27.075 0 0 0
1260 5 12.635000000000002 32.49 27.075 0 0 0
1261 2 12.635000000000002 34.295 25.270000000000003 0 0 0
1262 5 10.829999999999998 32.49 28.880000000000003 0 0 0
1263 5 10.829999999999998 34.295 30.685 0 0 0
1264 5 12.635000000000002 32.49 30.685 0 0 0
1265 4 12.635000000000002 34.295 28.880000000000003 0 0 0
1266 4 10.829999999999998 32.49 32.49 0 0 0
1267 4 10.829999999999998 34.295 34.295 0 0 0
1268 2 12.635000000000002 32.49 34.295 0 0 0
1269 3 12.635000000000002 34.295 32.49 0 0 0
1270 3 10.829999999999998 32.49 36.1 0 0 0
1271 1 10.829999999999998 34.295 37.905 0 0 0
1272 5 12.635000000000002 32.49 37.905 0 0 0
1273 2 12.635000000000002 34.295 36.1 0 0 0
1274 2 10.829999999999998 32.49 39.71 0 0 0
1275 4 10.829999999999998 34.295 41.515 0 0 0
1276 3 12.635000000000002 32.49 41.515 0 0 0
1277 3 12.635000000000002 34.295 39.71 0 0 0
1313 2 12.635000000000002 36.1 12.635000000000002 0 0 0
1314 3 10.829999999999998 36.1 14.440000000000001 0 0 0
1315 4 10.829999999999998 37.905 16.245 0 0 0
1316 5 12.635000000000002 36.1 16.245 0 0 0
1317 3 12.635000000000002 37.905 14.440000000000001 0 0 0
1318 5 10.829999999999998 36.1 18.05 0 0 0
1319 2 10.829999999999998 37.905 19.855 0 0 0
1320 4 12.635000000000002 36.1 19.855 0 0 0
1321 5 12.635000000000002 37.905 18.05 0 0 0
1322 1 10.829999999999998 36.1 21.66 0 0 0
1323 3 10.829999999999998 37.905 23.465 0 0 0
1324 3 12.635000000000002 36.1 23.465 0 0 0
1325 1 12.635000000000002 37.905 21.66 0 0 0
1326 5 10.829999999999998 36.1 25.270000000000003 0 0 0
1327 4 10.829999999999998 37.905 27.075 0 0 0
1328 2 12.635000000000002 36.1 27.075 0 0 0
1329 3 12.635000000000002 37.905 25.270000000000003 0 0 0
1330 2 10.829999999999998 36.1 28.880000000000003 0 0 0
1331 5 10.829999999999998 37.905 30.685 0 0 0
1332 3 12.635000000000002 36.1 30.685 0 0 0
1333 3 12.635000000000002 37.905 28.880000000000003 0 0 0
1334 5 10.829999999999998 36.1 32.49 0 0 0
1335 5 10.829999999999998 37.905 34.295 0 0 0
1336 3 12.635000000000002 36.1 34.295 0 0 0
1337 4 12.635000000000002 37.905 32.49 0 0 0
1338 1 10.829999999999998 36.1 36.1 0 0 0
1339 4 10.829999999999998 37.905 37.905 0 0 0
1340 1 12.635000000000002 36.1 37.905 0 0 0
1341 5 12.635000000000002 37.905 36.1 0 0 0
1342 5 10.829999999999998 36.1 39.71 0 0 0
1343 5 10.829999999999998 37.905 41.515 0 0 0
1344 3 12.635000000000002 36.1 41.515 0 0 0
1345 2 12.635000000000002 37.905 39.71 0 0 0
1381 4 12.635000000000002 39.71 12.635000000000002 0 0 0
1382 5 10.829999999999998 39.71 14.440000000000001 0 0 0
1383 2 10.829999999999998 41.515 16.245 0 0 0
1384 4 12.635000000000002 39.71 16.245 0 0 0
1385 4 12.635000000000002 41.515 14.440000000000001 0 0 0
1386 4 10.829999999999998 39.71 18.05 0 0 0
1387 2 10.829999999999998 41.515 19.855 0 0 0
1388 4 12.635000000000002 39.71 19.855 0 0 0
1389 4 12.635000000000002 41.515 18.05 0 0 0
1390 2 10.829999999999998 39.71 21.66 0 0 0
1391 3 10.829999999999998 41.515 23.465 0 0 0
1392 1 12.635000000000002 39.71 23.465 0 0 0
1393 1 12.635000000000002 41.515 21.66 0 0 0
1394 1 10.829999999999998 39.71 25.270000000000003 0 0 0
1395 4 10.829999999999998 41.515 27.075 0 0 0
1396 1 12.635000000000002 39.71 27.075 0 0 0
1397 5 12.635000000000002 41.515 25.270000000000003 0 0 0
1398 4 10.829999999999998 39.71 28.880000000000003 0 0 0
1399 3 10.829999999999998 41.515 30.685 0 0 0
1400 1 12.635000000000002 39.71 30.685 0 0 0
1401 5 12.635000000000002 41.515 28.880000000000003 0 0 0
1402 5 10.829999999999998 39.71 32.49 0 0 0
1403 3 10.829999999999998 41.515 34.295 0 0 0
1404 4 12.635000000000002 39.71 34.295 0 0 0
1405 2 12.635000000000002 41.515 32.49 0 0 0
1406 3 10.829999999999998 39.71 36.1 0 0 0
1407 2 10.829999999999998 41.515 37.905 0 0 0
1408 2 12.635000000000002 39.71 37.905 0 0 0
1409 4 12.635000000000002 41.515 36.1 0 0 0
1410 2 10.829999999999998 39.71 39.71 0 0 0
1411 5 10.829999999999998 41.515 41.515 0 0 0
1412 5 12.635000000000002 39.71 41.515 0 0 0
1413 1 12.635000000000002 41.515 39.71 0 0 0
2045 1 14.440000000000001 12.635000000000002 12.635000000000002 0 0 0
2046 1 14.440000000000001 10.829999999999998 14.440000000000001 0 0 0
2047 1 14.440000000000001 12.635000000000002 16.245 0 0 0
2048 4 16.245 10.829999999999998 16.245 0 0 0
2049 5 16.245 12.635000000000002 14.440000000000001 0 0 0
2050 2 14.440000000000001 10.829999999999998 18.05 0 0 0
2051 1 14.440000000000001 12.635000000000002 19.855 0 0 0
2052 5 16.245 10.829999999999998 19.855 0 0 0
2053 1 16.245 12.635000000000002 18.05 0 0 0
2054 3 14.440000000000001 10.829999999999998 21.66 0 0 0
2055 1 14.440000000000001 12.635000000000002 23.465 0 0 0
2056 5 16.245 10.829999999999998 23.465 0 0 0
2057 4 16.245 12.635000000000002 21.66 0 0 0
2058 5 14.440000000000001 10.829999999999998 25.270000000000003 0 0 0
2059 4 14.440000000000001 12.635000000000002 27.075 0 0 0
2060 4 16.245 10.829999999999998 27.075 0 0 0
2061 3 16.245 12.635000000000002 25.270000000000003 0 0 0
2062 2 14.440000000000001 10.829999999999998 28.880000000000003 0 0 0
2063 2 14.440000000000001 12.635000000000002 30.685 0 0 0
2064 5 16.245 10.829999999999998 30.685 0 0 0
2065 4 16.245 12.635000000000002 28.880000000000003 0 0 0
2066 3 14.440000000000001 10.829999999999998 32.49 0 0 0
2067 4 14.440000000000001 12.635000000000002 34.295 0 0 0
2068 3 16.245 10.829999999999998 34.295 0 0 0
2069 5 16.245 12.635000000000002 32.49 0 0 0
2070 2 14.440000000000001 10.829999999999998 36.1 0 0 0
2071 1 14.440000000000001 12.635000000000002 37.905 0 0 0
2072 5 16.245 10.829999999999998 37.905 0 0 0
2073 1 16.245 12.635000000000002 36.1 0 0 0
2074 3 14.440000000000001 10.829999999999998 39.71 0 0 0
2075 4 14.440000000000001 12.635000000000002 41.515 0 0 0
2076 5 16.245 10.829999999999998 41.515 0 0 0
2077 4 16.245 12.635000000000002 39.71 0 0 0
2113 3 14.440000000000001 14.440000000000001 10.829999999999998 0 0 0
2114 4 14.440000000000001 16.245 12.635000000000002 0 0 0
2115 2 16.245 14.440000000000001 12.635000000000002 0 0 0
2116 5 16.245 16.245 10.829999999999998 0 0 0
2117 3 14.440000000000001 14.440000000000001 14.440000000000001 0 0 0
2118 3 14.440000000000001 16.245 16.245 0 0 0
2119 4 16.245 14.440000000000001 16.245 0 0 0
2120 4 16.245 16.245 14.440000000000001 0 0 0
2121 5 14.440000000000001 14.440000000000001 18.05 0 0 0
2122 5 14.440000000000001 16.245 19.855 0 0 0
2123 1 16.245 14.440000000000001 19.855 0 0 0
2124 1 16.245 16.245 18.05 0 0 0
2125 4 14.440000000000001 14.440000000000001 21.66 0 0 0
2126 2 14.440000000000001 16.245 23.465 0 0 0
2127 5 16.245 14.440000000000001 23.465 0 0 0
2128 5 16.245 16.245 21.66 0 0 0
2129 3 14.440000000000001 14.440000000000001 25.270000000000003 0 0 0
2130 4 14.440000000000001 16.245 27.075 0 0 0
2131 5 16.245 14.440000000000001 27.075 0 0 0
2132 1 16.245 16.245 25.270000000000003 0 0 0
2133 4 14.440000000000001 14.440000000000001 28.880000000000003 0 0 0
2134 1 14.440000000000001 16.245 30.685 0 0 0
2135 2 16.245 14.440000000000001 30.685 0 0 0
2136 3 16.245 16.245 28.880000000000003 0 0 0
2137 5 14.440000000000001 14.440000000000001 32.49 0 0 0
2138 4 14.440000000000001 16.245 34.295 0 0 0
2139 2 16.245 14.440000000000001 34.295 0 0 0
2140 2 16.245 16.245 32.49 0 0 0
2141 3 14.440000000000001 14.440000000000001 36.1 0 0 0
2142 3 14.440000000000001 16.245 37.905 0 0 0
2143 4 16.245 14.440000000000001 37.905 0 0 0
2144 3 16.245 16.245 36.1 0 0 0
2145 5 14.440000000000001 14.440000000000001 39.71 0 0 0
2146 4 14.440000000000001 16.245 41.515 0 0 0
2147 3 16.245 14.440000000000001 41.515 0 0 0
2148 2 16.245 16.245 39.71 0 0 0
2187 3 14.440000000000001 18.05 10.829999999999998 0 0 0
2188 2 14.440000000000001 19.855 12.635000000000002 0 0 0
2189 5 16.245 18.05 12.635000000000002 0 0 0
2190 5 16.245 19.855 10.829999999999998 0 0 0
2191 3 14.440000000000001 18.05 14.440000000000001 0 0 0
2192 2 14.440000000000001 19.855 16.245 0 0 0
2193 2 16.245 18.05 16.245 0 0 0
2194 2 16.245 19.855 14.440000000000001 0 0 0
2195 2 14.440000000000001 18.05 18.05 0 0 0
2196 2 14.440000000000001 19.855 19.855 0 0 0
2197 5 16.245 18.05 19.855 0 0 0
2198 4 16.245 19.855 18.05 0 0 0
2199 3 14.440000000000001 18.05 21.66 0 0 0
2200 2 14.440000000000001 19.855 23.465 0 0 0
2201 4 16.245 18.05 23.465 0 0 0
2202 1 16.245 19.855 21.66 0 0 0
2203 4 14.440000000000001 18.05 25.270000000000003 0 0 0
2204 1 14.440000000000001 19.855 27.075 0 0 0
2205 1 16.245 18.05 27.075 0 0 0
2206 5 16.245 19.855 25.270000000000003 0 0 0
2207 4 14.440000000000001 18.05 28.880000000000003 0 0 0
2208 3 14.440000000000001 19.855 30.685 0 0 0
2209 4 16.245 18.05 30.685 0 0 0
2210 4 16.245 19.855 28.880000000000003 0 0 0
2211 2 14.440000000000001 18.05 32.49 0 0 0
2212 1 14.440000000000001 19.855 34.295 0 0 0
2213 2 16.245 18.05 34.295 0 0 0
2214 2 16.245 19.855 32.49 0 0 0
2215 3 14.440000000000001 18.05 36.1 0 0 0
2216 3 14.440000000000001 19.855 37.905 0 0 0
2217 5 16.245 18.05 37.905 0 0 0
2218 4 16.245 19.855 36.1 0 0 0
2219 4 14.440000000000001 18.05 39.71 0 0 0
2220 4 14.440000000000001 19.855 41.515 0 0 0
2221 4 16.245 18.05 41.515 0 0 0
2222 1 16.245 19.855 39.71 0 0 0
2261 2 14.440000000000001 21.66 10.829999999999998 0 0 0
2262 4 14.440000000000001 23.465 12.635000000000002 0 0 0
2263 1 16.245 21.66 12.635000000000002 0 0 0
2264 3 16.245 23.465 10.829999999999998 0 0 0
2265 5 14.440000000000001 21.66 14.440000000000001 0 0 0
2266 4 14.440000000000001 23.465 16.245 0 0 0
2267 5 16.245 21.66 16.245 0 0 0
2268 5 16.245 23.465 14.440000000000001 0 0 0
2269 2 14.440000000000001 21.66 18.05 0 0 0
2270 5 14.440000000000001 23.465 19.855 0 0 0
2271 2 16.245 21.66 19.855 0 0 0
2272 4 16.245 23.465 18.05 0 0 0
2273 1 14.440000000000001 21.66 21.66 0 0 0
2274 4 14.440000000000001 23.465 23.465 0 0 0
2275 1 16.245 21.66 23.465 0 0 0
2276 2 16.245 23.465 21.66 0 0 0
2277 1 14.440000000000001 21.66 25.270000000000003 0 0 0
2278 3 14.440000000000001 23.465 27.075 0 0 0
2279 4 16.245 21.66 27.075 0 0 0
2280 2 16.245 23.465 25.270000000000003 0 0 0
2281 4 14.440000000000001 21.66 28.880000000000003 0 0 0
2282 2 14.440000000000001 23.465 30.685 0 0 0
2283 4 16.245 21.66 30.685 0 0 0
2284 2 16.245 23.465 28.880000000000003 0 0 0
2285 1 14.440000000000001 21.66 32.49 0 0 0
2286 2 14.440000000000001 23.465 34.295 0 0 0
2287 1 16.245 21.66 34.295 0 0 0
2288 4 16.245 23.465 32.49 0 0 0
2289 4 14.440000000000001 21.66 36.1 0 0 0
2290 4 14.440000000000001 23.465 37.905 0 0 0
2291 3 16.245 21.66 37.905 0 0 0
2292 5 16.245 23.465 36.1 0 0 0
2293 5 14.440000000000001 21.66 39.71 0 0 0
2294 4 14.440000000000001 23.465 41.515 0 0 0
2295 2 16.245 21.66 41.515 0 0 0
2296 5 16.245 23.465 39.71 0 0 0
2335 4 14.440000000000001 25.270000000000003 10.829999999999998 0 0 0
2336 1 14.440000000000001 27.075 12.635000000000002 0 0 0
2337 5 16.245 25.270000000000003 12.635000000000002 0 0 0
2338 1 16.245 27.075 10.829999999999998 0 0 0