model_files/PtCo/PtCo_30000/PtCo_543/PtCo_543_fcc_30079_temp.data (written by ASE) 

30079 	 atoms 
2  atom types
0.0                     115  xlo xhi
0.0                     115  ylo yhi
0.0                     115  zlo zhi


Atoms 

     1   1                       0                   54.75      56.574999999999996
     2   1                       0      56.574999999999996                   54.75
     3   1                       0      56.574999999999996      58.400000000000006
     4   1                       0      58.400000000000006      56.574999999999996
     5   1      3.6499999999999986      51.100000000000001      56.574999999999996
     6   1      1.8249999999999957                   54.75                   54.75
     7   1      3.6499999999999986      52.924999999999997                   54.75
     8   1      3.6499999999999986                   54.75      52.924999999999997
     9   1      1.8249999999999957      52.924999999999997      56.574999999999996
    10   1      1.8249999999999957                   54.75      58.400000000000006
    11   1      3.6499999999999986      52.924999999999997      58.400000000000006
    12   1      3.6499999999999986                   54.75      56.574999999999996
    13   1      3.6499999999999986                   54.75      60.224999999999994
    14   1      3.6499999999999986      56.574999999999996      51.100000000000001
    15   1      1.8249999999999957      56.574999999999996      52.924999999999997
    16   1      1.8249999999999957      58.400000000000006                   54.75
    17   1      3.6499999999999986      56.574999999999996                   54.75
    18   1      3.6499999999999986      58.400000000000006      52.924999999999997
    19   1      1.8249999999999957      56.574999999999996      56.574999999999996
    20   1      1.8249999999999957      58.400000000000006      58.400000000000006
    21   1      3.6499999999999986      56.574999999999996      58.400000000000006
    22   1      3.6499999999999986      58.400000000000006      56.574999999999996
    23   1      1.8249999999999957      56.574999999999996      60.224999999999994
    24   1      3.6499999999999986      56.574999999999996      62.050000000000004
    25   1      3.6499999999999986      58.400000000000006      60.224999999999994
    26   1      3.6499999999999986      60.224999999999994                   54.75
    27   1      1.8249999999999957      60.224999999999994      56.574999999999996
    28   1      3.6499999999999986      60.224999999999994      58.400000000000006
    29   1      3.6499999999999986      62.050000000000004      56.574999999999996
    30   1      7.2999999999999972      47.449999999999996      56.574999999999996
    31   1      5.4749999999999943      51.100000000000001                   54.75
    32   1      7.2999999999999972      49.274999999999999                   54.75
    33   1      7.2999999999999972      51.100000000000001      52.924999999999997
    34   1      5.4749999999999943      49.274999999999999      56.574999999999996
    35   1      5.4749999999999943      51.100000000000001      58.400000000000006
    36   1      7.2999999999999972      49.274999999999999      58.400000000000006
    37   1      7.2999999999999972      51.100000000000001      56.574999999999996
    38   1      7.2999999999999972      51.100000000000001      60.224999999999994
    39   1      5.4749999999999943                   54.75      51.100000000000001
    40   1      7.2999999999999972      52.924999999999997      51.100000000000001
    41   1      7.2999999999999972                   54.75      49.274999999999999
    42   1      5.4749999999999943      52.924999999999997      52.924999999999997
    43   1      5.4749999999999943                   54.75                   54.75
    44   1      7.2999999999999972      52.924999999999997                   54.75
    45   1      7.2999999999999972                   54.75      52.924999999999997
    46   1      5.4749999999999943      52.924999999999997      56.574999999999996
    47   1      5.4749999999999943                   54.75      58.400000000000006
    48   1      7.2999999999999972      52.924999999999997      58.400000000000006
    49   1      7.2999999999999972                   54.75      56.574999999999996
    50   1      5.4749999999999943      52.924999999999997      60.224999999999994
    51   1      5.4749999999999943                   54.75      62.050000000000004
    52   1      7.2999999999999972      52.924999999999997      62.050000000000004
    53   1      7.2999999999999972                   54.75      60.224999999999994
    54   1      7.2999999999999972                   54.75      63.874999999999993
    55   1      7.2999999999999972      56.574999999999996      47.449999999999996
    56   1      5.4749999999999943      56.574999999999996      49.274999999999999
    57   1      5.4749999999999943      58.400000000000006      51.100000000000001
    58   1      7.2999999999999972      56.574999999999996      51.100000000000001
    59   1      7.2999999999999972      58.400000000000006      49.274999999999999
    60   1      5.4749999999999943      56.574999999999996      52.924999999999997
    61   1      5.4749999999999943      58.400000000000006                   54.75
    62   1      7.2999999999999972      56.574999999999996                   54.75
    63   1      7.2999999999999972      58.400000000000006      52.924999999999997
    64   1      5.4749999999999943      56.574999999999996      56.574999999999996
    65   1      5.4749999999999943      58.400000000000006      58.400000000000006
    66   1      7.2999999999999972      56.574999999999996      58.400000000000006
    67   1      7.2999999999999972      58.400000000000006      56.574999999999996
    68   1      5.4749999999999943      56.574999999999996      60.224999999999994
    69   1      5.4749999999999943      58.400000000000006      62.050000000000004
    70   1      7.2999999999999972      56.574999999999996      62.050000000000004
    71   1      7.2999999999999972      58.400000000000006      60.224999999999994
    72   1      5.4749999999999943      56.574999999999996      63.874999999999993
    73   1      7.2999999999999972      56.574999999999996      65.700000000000003
    74   1      7.2999999999999972      58.400000000000006      63.874999999999993
    75   1      7.2999999999999972      60.224999999999994      51.100000000000001
    76   1      5.4749999999999943      60.224999999999994      52.924999999999997
    77   1      5.4749999999999943      62.050000000000004                   54.75
    78   1      7.2999999999999972      60.224999999999994                   54.75
    79   1      7.2999999999999972      62.050000000000004      52.924999999999997
    80   1      5.4749999999999943      60.224999999999994      56.574999999999996
    81   1      5.4749999999999943      62.050000000000004      58.400000000000006
    82   1      7.2999999999999972      60.224999999999994      58.400000000000006
    83   1      7.2999999999999972      62.050000000000004      56.574999999999996
    84   1      5.4749999999999943      60.224999999999994      60.224999999999994
    85   1      7.2999999999999972      60.224999999999994      62.050000000000004
    86   1      7.2999999999999972      62.050000000000004      60.224999999999994
    87   1      7.2999999999999972      63.874999999999993                   54.75
    88   1      5.4749999999999943      63.874999999999993      56.574999999999996
    89   1      7.2999999999999972      63.874999999999993      58.400000000000006
    90   1      7.2999999999999972      65.700000000000003      56.574999999999996
    91   1      10.949999999999996      43.799999999999997      52.924999999999997
    92   1      10.949999999999996      43.799999999999997      56.574999999999996
    93   1      10.949999999999996      43.799999999999997      60.224999999999994
    94   1      9.1249999999999929      47.449999999999996      51.100000000000001
    95   1      10.949999999999996      45.624999999999993      51.100000000000001
    96   1      10.949999999999996      47.449999999999996      49.274999999999999
    97   1      9.1249999999999929      47.449999999999996                   54.75
    98   1      10.949999999999996      45.624999999999993                   54.75
    99   1      10.949999999999996      47.449999999999996      52.924999999999997
   100   1      9.1249999999999929      45.624999999999993      56.574999999999996
   101   1      9.1249999999999929      47.449999999999996      58.400000000000006
   102   1      10.949999999999996      45.624999999999993      58.400000000000006
   103   1      10.949999999999996      47.449999999999996      56.574999999999996
   104   1      9.1249999999999929      47.449999999999996      62.050000000000004
   105   1      10.949999999999996      45.624999999999993      62.050000000000004
   106   1      10.949999999999996      47.449999999999996      60.224999999999994
   107   1      10.949999999999996      47.449999999999996      63.874999999999993
   108   1      9.1249999999999929      51.100000000000001      47.449999999999996
   109   1      10.949999999999996      49.274999999999999      47.449999999999996
   110   1      10.949999999999996      51.100000000000001      45.624999999999993
   111   1      9.1249999999999929      49.274999999999999      49.274999999999999
   112   1      9.1249999999999929      51.100000000000001      51.100000000000001
   113   1      10.949999999999996      49.274999999999999      51.100000000000001
   114   1      10.949999999999996      51.100000000000001      49.274999999999999
   115   1      9.1249999999999929      49.274999999999999      52.924999999999997
   116   1      9.1249999999999929      51.100000000000001                   54.75
   117   1      10.949999999999996      49.274999999999999                   54.75
   118   1      10.949999999999996      51.100000000000001      52.924999999999997
   119   1      9.1249999999999929      49.274999999999999      56.574999999999996
   120   1      9.1249999999999929      51.100000000000001      58.400000000000006
   121   1      10.949999999999996      49.274999999999999      58.400000000000006
   122   1      10.949999999999996      51.100000000000001      56.574999999999996
   123   1      9.1249999999999929      49.274999999999999      60.224999999999994
   124   1      9.1249999999999929      51.100000000000001      62.050000000000004
   125   1      10.949999999999996      49.274999999999999      62.050000000000004
   126   1      10.949999999999996      51.100000000000001      60.224999999999994
   127   1      9.1249999999999929      49.274999999999999      63.874999999999993
   128   1      9.1249999999999929      51.100000000000001      65.700000000000003
   129   1      10.949999999999996      49.274999999999999      65.700000000000003
   130   1      10.949999999999996      51.100000000000001      63.874999999999993
   131   1      10.949999999999996      51.100000000000001      67.524999999999991
   132   1      10.949999999999996      52.924999999999997      43.799999999999997
   133   1      9.1249999999999929                   54.75      47.449999999999996
   134   1      10.949999999999996      52.924999999999997      47.449999999999996
   135   1      10.949999999999996                   54.75      45.624999999999993
   136   1      9.1249999999999929      52.924999999999997      49.274999999999999
   137   1      9.1249999999999929                   54.75      51.100000000000001
   138   1      10.949999999999996      52.924999999999997      51.100000000000001
   139   1      10.949999999999996                   54.75      49.274999999999999
   140   1      9.1249999999999929      52.924999999999997      52.924999999999997
   141   1      9.1249999999999929                   54.75                   54.75
   142   1      10.949999999999996      52.924999999999997                   54.75
   143   1      10.949999999999996                   54.75      52.924999999999997
   144   1      9.1249999999999929      52.924999999999997      56.574999999999996
   145   1      9.1249999999999929                   54.75      58.400000000000006
   146   1      10.949999999999996      52.924999999999997      58.400000000000006
   147   1      10.949999999999996                   54.75      56.574999999999996
   148   1      9.1249999999999929      52.924999999999997      60.224999999999994
   149   1      9.1249999999999929                   54.75      62.050000000000004
   150   1      10.949999999999996      52.924999999999997      62.050000000000004
   151   1      10.949999999999996                   54.75      60.224999999999994
   152   1      9.1249999999999929      52.924999999999997      63.874999999999993
   153   1      9.1249999999999929                   54.75      65.700000000000003
   154   1      10.949999999999996      52.924999999999997      65.700000000000003
   155   1      10.949999999999996                   54.75      63.874999999999993
   156   1      10.949999999999996      52.924999999999997      69.349999999999994
   157   1      10.949999999999996                   54.75      67.524999999999991
   158   1      10.949999999999996      56.574999999999996      43.799999999999997
   159   1      9.1249999999999929      56.574999999999996      45.624999999999993
   160   1      9.1249999999999929      58.400000000000006      47.449999999999996
   161   1      10.949999999999996      56.574999999999996      47.449999999999996
   162   1      10.949999999999996      58.400000000000006      45.624999999999993
   163   1      9.1249999999999929      56.574999999999996      49.274999999999999
   164   1      9.1249999999999929      58.400000000000006      51.100000000000001
   165   1      10.949999999999996      56.574999999999996      51.100000000000001
   166   1      10.949999999999996      58.400000000000006      49.274999999999999
   167   1      9.1249999999999929      56.574999999999996      52.924999999999997
   168   1      9.1249999999999929      58.400000000000006                   54.75
   169   1      10.949999999999996      56.574999999999996                   54.75
   170   1      10.949999999999996      58.400000000000006      52.924999999999997
   171   1      9.1249999999999929      56.574999999999996      56.574999999999996
   172   1      9.1249999999999929      58.400000000000006      58.400000000000006
   173   1      10.949999999999996      56.574999999999996      58.400000000000006
   174   1      10.949999999999996      58.400000000000006      56.574999999999996
   175   1      9.1249999999999929      56.574999999999996      60.224999999999994
   176   1      9.1249999999999929      58.400000000000006      62.050000000000004
   177   1      10.949999999999996      56.574999999999996      62.050000000000004
   178   1      10.949999999999996      58.400000000000006      60.224999999999994
   179   1      9.1249999999999929      56.574999999999996      63.874999999999993
   180   1      9.1249999999999929      58.400000000000006      65.700000000000003
   181   1      10.949999999999996      56.574999999999996      65.700000000000003
   182   1      10.949999999999996      58.400000000000006      63.874999999999993
   183   1      9.1249999999999929      56.574999999999996      67.524999999999991
   184   1      10.949999999999996      56.574999999999996      69.349999999999994
   185   1      10.949999999999996      58.400000000000006      67.524999999999991
   186   1      10.949999999999996      60.224999999999994      43.799999999999997
   187   1      9.1249999999999929      62.050000000000004      47.449999999999996
   188   1      10.949999999999996      60.224999999999994      47.449999999999996
   189   1      10.949999999999996      62.050000000000004      45.624999999999993
   190   1      9.1249999999999929      60.224999999999994      49.274999999999999
   191   1      9.1249999999999929      62.050000000000004      51.100000000000001
   192   1      10.949999999999996      60.224999999999994      51.100000000000001
   193   1      10.949999999999996      62.050000000000004      49.274999999999999
   194   1      9.1249999999999929      60.224999999999994      52.924999999999997
   195   1      9.1249999999999929      62.050000000000004                   54.75
   196   1      10.949999999999996      60.224999999999994                   54.75
   197   1      10.949999999999996      62.050000000000004      52.924999999999997
   198   1      9.1249999999999929      60.224999999999994      56.574999999999996
   199   1      9.1249999999999929      62.050000000000004      58.400000000000006
   200   1      10.949999999999996      60.224999999999994      58.400000000000006
   201   1      10.949999999999996      62.050000000000004      56.574999999999996
   202   1      9.1249999999999929      60.224999999999994      60.224999999999994
   203   1      9.1249999999999929      62.050000000000004      62.050000000000004
   204   1      10.949999999999996      60.224999999999994      62.050000000000004
   205   1      10.949999999999996      62.050000000000004      60.224999999999994
   206   1      9.1249999999999929      60.224999999999994      63.874999999999993
   207   1      9.1249999999999929      62.050000000000004      65.700000000000003
   208   1      10.949999999999996      60.224999999999994      65.700000000000003
   209   1      10.949999999999996      62.050000000000004      63.874999999999993
   210   1      10.949999999999996      60.224999999999994      69.349999999999994
   211   1      10.949999999999996      62.050000000000004      67.524999999999991
   212   1      10.949999999999996      63.874999999999993      47.449999999999996
   213   1      9.1249999999999929      63.874999999999993      49.274999999999999
   214   1      9.1249999999999929      65.700000000000003      51.100000000000001
   215   1      10.949999999999996      63.874999999999993      51.100000000000001
   216   1      10.949999999999996      65.700000000000003      49.274999999999999
   217   1      9.1249999999999929      63.874999999999993      52.924999999999997
   218   1      9.1249999999999929      65.700000000000003                   54.75
   219   1      10.949999999999996      63.874999999999993                   54.75
   220   1      10.949999999999996      65.700000000000003      52.924999999999997
   221   1      9.1249999999999929      63.874999999999993      56.574999999999996
   222   1      9.1249999999999929      65.700000000000003      58.400000000000006
   223   1      10.949999999999996      63.874999999999993      58.400000000000006
   224   1      10.949999999999996      65.700000000000003      56.574999999999996
   225   1      9.1249999999999929      63.874999999999993      60.224999999999994
   226   1      9.1249999999999929      65.700000000000003      62.050000000000004
   227   1      10.949999999999996      63.874999999999993      62.050000000000004
   228   1      10.949999999999996      65.700000000000003      60.224999999999994
   229   1      9.1249999999999929      63.874999999999993      63.874999999999993
   230   1      10.949999999999996      63.874999999999993      65.700000000000003
   231   1      10.949999999999996      65.700000000000003      63.874999999999993
   232   1      10.949999999999996      67.524999999999991      51.100000000000001
   233   1      10.949999999999996      67.524999999999991                   54.75
   234   1      10.949999999999996      69.349999999999994      52.924999999999997
   235   1      9.1249999999999929      67.524999999999991      56.574999999999996
   236   1      10.949999999999996      67.524999999999991      58.400000000000006
   237   1      10.949999999999996      69.349999999999994      56.574999999999996
   238   1      10.949999999999996      67.524999999999991      62.050000000000004
   239   1      10.949999999999996      69.349999999999994      60.224999999999994
   240   1      14.600000000000001                    36.5      56.574999999999996
   241   1      12.774999999999999      40.149999999999999                   54.75
   242   1      14.600000000000001      38.324999999999996                   54.75
   243   1      14.600000000000001      40.149999999999999      52.924999999999997
   244   1      12.774999999999999      40.149999999999999      58.400000000000006
   245   1      14.600000000000001      38.324999999999996      58.400000000000006
   246   1      14.600000000000001      40.149999999999999      56.574999999999996
   247   1      14.600000000000001      40.149999999999999      60.224999999999994
   248   1      12.774999999999999      43.799999999999997      51.100000000000001
   249   1      14.600000000000001      41.974999999999994      51.100000000000001
   250   1      14.600000000000001      43.799999999999997      49.274999999999999
   251   1      12.774999999999999      41.974999999999994      52.924999999999997
   252   1      12.774999999999999      43.799999999999997                   54.75
   253   1      14.600000000000001      41.974999999999994                   54.75
   254   1      14.600000000000001      43.799999999999997      52.924999999999997
   255   1      12.774999999999999      41.974999999999994      56.574999999999996
   256   1      12.774999999999999      43.799999999999997      58.400000000000006
   257   1      14.600000000000001      41.974999999999994      58.400000000000006
   258   1      14.600000000000001      43.799999999999997      56.574999999999996
   259   1      12.774999999999999      41.974999999999994      60.224999999999994
   260   1      12.774999999999999      43.799999999999997      62.050000000000004
   261   1      14.600000000000001      41.974999999999994      62.050000000000004
   262   1      14.600000000000001      43.799999999999997      60.224999999999994
   263   1      14.600000000000001      43.799999999999997      63.874999999999993
   264   1      12.774999999999999      47.449999999999996      47.449999999999996
   265   1      14.600000000000001      45.624999999999993      47.449999999999996
   266   1      14.600000000000001      47.449999999999996      45.624999999999993
   267   1      12.774999999999999      45.624999999999993      49.274999999999999
   268   1      12.774999999999999      47.449999999999996      51.100000000000001
   269   1      14.600000000000001      45.624999999999993      51.100000000000001
   270   1      14.600000000000001      47.449999999999996      49.274999999999999
   271   1      12.774999999999999      45.624999999999993      52.924999999999997
   272   1      12.774999999999999      47.449999999999996                   54.75
   273   1      14.600000000000001      45.624999999999993                   54.75
   274   1      14.600000000000001      47.449999999999996      52.924999999999997
   275   1      12.774999999999999      45.624999999999993      56.574999999999996
   276   1      12.774999999999999      47.449999999999996      58.400000000000006
   277   1      14.600000000000001      45.624999999999993      58.400000000000006
   278   1      14.600000000000001      47.449999999999996      56.574999999999996
   279   1      12.774999999999999      45.624999999999993      60.224999999999994
   280   1      12.774999999999999      47.449999999999996      62.050000000000004
   281   1      14.600000000000001      45.624999999999993      62.050000000000004
   282   1      14.600000000000001      47.449999999999996      60.224999999999994
   283   1      12.774999999999999      45.624999999999993      63.874999999999993
   284   1      12.774999999999999      47.449999999999996      65.700000000000003
   285   1      14.600000000000001      45.624999999999993      65.700000000000003
   286   1      14.600000000000001      47.449999999999996      63.874999999999993
   287   1      14.600000000000001      47.449999999999996      67.524999999999991
   288   1      12.774999999999999      51.100000000000001      43.799999999999997
   289   1      14.600000000000001      49.274999999999999      43.799999999999997
   290   1      14.600000000000001      51.100000000000001      41.974999999999994
   291   1      12.774999999999999      49.274999999999999      45.624999999999993
   292   1      12.774999999999999      51.100000000000001      47.449999999999996
   293   1      14.600000000000001      49.274999999999999      47.449999999999996
   294   1      14.600000000000001      51.100000000000001      45.624999999999993
   295   1      12.774999999999999      49.274999999999999      49.274999999999999
   296   1      12.774999999999999      51.100000000000001      51.100000000000001
   297   1      14.600000000000001      49.274999999999999      51.100000000000001
   298   1      14.600000000000001      51.100000000000001      49.274999999999999
   299   1      12.774999999999999      49.274999999999999      52.924999999999997
   300   1      12.774999999999999      51.100000000000001                   54.75
   301   1      14.600000000000001      49.274999999999999                   54.75
   302   1      14.600000000000001      51.100000000000001      52.924999999999997
   303   1      12.774999999999999      49.274999999999999      56.574999999999996
   304   1      12.774999999999999      51.100000000000001      58.400000000000006
   305   1      14.600000000000001      49.274999999999999      58.400000000000006
   306   1      14.600000000000001      51.100000000000001      56.574999999999996
   307   1      12.774999999999999      49.274999999999999      60.224999999999994
   308   1      12.774999999999999      51.100000000000001      62.050000000000004
   309   1      14.600000000000001      49.274999999999999      62.050000000000004
   310   1      14.600000000000001      51.100000000000001      60.224999999999994
   311   1      12.774999999999999      49.274999999999999      63.874999999999993
   312   1      12.774999999999999      51.100000000000001      65.700000000000003
   313   1      14.600000000000001      49.274999999999999      65.700000000000003
   314   1      14.600000000000001      51.100000000000001      63.874999999999993
   315   1      12.774999999999999      49.274999999999999      67.524999999999991
   316   1      12.774999999999999      51.100000000000001      69.349999999999994
   317   1      14.600000000000001      49.274999999999999      69.349999999999994
   318   1      14.600000000000001      51.100000000000001      67.524999999999991
   319   1      14.600000000000001      51.100000000000001      71.174999999999997
   320   1      12.774999999999999                   54.75      40.149999999999999
   321   1      14.600000000000001      52.924999999999997      40.149999999999999
   322   1      14.600000000000001                   54.75      38.324999999999996
   323   1      12.774999999999999      52.924999999999997      41.974999999999994
   324   1      12.774999999999999                   54.75      43.799999999999997
   325   1      14.600000000000001      52.924999999999997      43.799999999999997
   326   1      14.600000000000001                   54.75      41.974999999999994
   327   1      12.774999999999999      52.924999999999997      45.624999999999993
   328   1      12.774999999999999                   54.75      47.449999999999996
   329   1      14.600000000000001      52.924999999999997      47.449999999999996
   330   1      14.600000000000001                   54.75      45.624999999999993
   331   1      12.774999999999999      52.924999999999997      49.274999999999999
   332   1      12.774999999999999                   54.75      51.100000000000001
   333   1      14.600000000000001      52.924999999999997      51.100000000000001
   334   1      14.600000000000001                   54.75      49.274999999999999
   335   1      12.774999999999999      52.924999999999997      52.924999999999997
   336   1      12.774999999999999                   54.75                   54.75
   337   1      14.600000000000001      52.924999999999997                   54.75
   338   1      14.600000000000001                   54.75      52.924999999999997
   339   1      12.774999999999999      52.924999999999997      56.574999999999996
   340   1      12.774999999999999                   54.75      58.400000000000006
   341   1      14.600000000000001      52.924999999999997      58.400000000000006
   342   1      14.600000000000001                   54.75      56.574999999999996
   343   1      12.774999999999999      52.924999999999997      60.224999999999994
   344   1      12.774999999999999                   54.75      62.050000000000004
   345   1      14.600000000000001      52.924999999999997      62.050000000000004
   346   1      14.600000000000001                   54.75      60.224999999999994
   347   1      12.774999999999999      52.924999999999997      63.874999999999993
   348   1      12.774999999999999                   54.75      65.700000000000003
   349   1      14.600000000000001      52.924999999999997      65.700000000000003
   350   1      14.600000000000001                   54.75      63.874999999999993
   351   1      12.774999999999999      52.924999999999997      67.524999999999991
   352   1      12.774999999999999                   54.75      69.349999999999994
   353   1      14.600000000000001      52.924999999999997      69.349999999999994
   354   1      14.600000000000001                   54.75      67.524999999999991
   355   1      12.774999999999999      52.924999999999997      71.174999999999997
   356   1      12.774999999999999                   54.75                      73
   357   1      14.600000000000001      52.924999999999997                      73
   358   1      14.600000000000001                   54.75      71.174999999999997