model_files/CuFeNi/CuFeNi_30000/CuFeNi_221/CuFeNi_221_fcc_29329_temp.data (written by ASE) 

29329 	 atoms 
3  atom types
0.0                     114  xlo xhi
0.0                     114  ylo yhi
0.0                     114  zlo zhi


Atoms 

     1   1      1.7899999999999991      55.490000000000002      57.279999999999994
     2   1      1.7899999999999991      57.279999999999994      55.490000000000002
     3   1                       0      57.279999999999994      57.279999999999994
     4   1      1.7899999999999991      57.279999999999994      59.069999999999993
     5   1      1.7899999999999991      59.069999999999993      57.279999999999994
     6   1      5.3700000000000045      51.909999999999997      53.700000000000003
     7   1      5.3700000000000045      51.909999999999997      57.279999999999994
     8   1      5.3700000000000045      51.909999999999997      60.859999999999999
     9   1      5.3700000000000045      53.700000000000003      51.909999999999997
    10   1      3.5799999999999983      53.700000000000003      53.700000000000003
    11   1      3.5799999999999983      55.490000000000002      55.490000000000002
    12   1      5.3700000000000045      53.700000000000003      55.490000000000002
    13   1      5.3700000000000045      55.490000000000002      53.700000000000003
    14   1      3.5799999999999983      53.700000000000003      57.279999999999994
    15   1      3.5799999999999983      55.490000000000002      59.069999999999993
    16   1      5.3700000000000045      53.700000000000003      59.069999999999993
    17   1      5.3700000000000045      55.490000000000002      57.279999999999994
    18   1      3.5799999999999983      53.700000000000003      60.859999999999999
    19   1      5.3700000000000045      53.700000000000003      62.649999999999999
    20   1      5.3700000000000045      55.490000000000002      60.859999999999999
    21   1      5.3700000000000045      57.279999999999994      51.909999999999997
    22   1      3.5799999999999983      57.279999999999994      53.700000000000003
    23   1      3.5799999999999983      59.069999999999993      55.490000000000002
    24   1      5.3700000000000045      57.279999999999994      55.490000000000002
    25   1      5.3700000000000045      59.069999999999993      53.700000000000003
    26   1      3.5799999999999983      57.279999999999994      57.279999999999994
    27   1      3.5799999999999983      59.069999999999993      59.069999999999993
    28   1      5.3700000000000045      57.279999999999994      59.069999999999993
    29   1      5.3700000000000045      59.069999999999993      57.279999999999994
    30   1      3.5799999999999983      57.279999999999994      60.859999999999999
    31   1      5.3700000000000045      57.279999999999994      62.649999999999999
    32   1      5.3700000000000045      59.069999999999993      60.859999999999999
    33   1      5.3700000000000045      60.859999999999999      51.909999999999997
    34   1      3.5799999999999983      60.859999999999999      53.700000000000003
    35   1      5.3700000000000045      60.859999999999999      55.490000000000002
    36   1      5.3700000000000045      62.649999999999999      53.700000000000003
    37   1      3.5799999999999983      60.859999999999999      57.279999999999994
    38   1      5.3700000000000045      60.859999999999999      59.069999999999993
    39   1      5.3700000000000045      62.649999999999999      57.279999999999994
    40   1      3.5799999999999983      60.859999999999999      60.859999999999999
    41   1      5.3700000000000045      60.859999999999999      62.649999999999999
    42   1      5.3700000000000045      62.649999999999999      60.859999999999999
    43   1      8.9500000000000028      48.329999999999998      53.700000000000003
    44   1      8.9500000000000028      48.329999999999998      57.279999999999994
    45   1      8.9500000000000028      48.329999999999998      60.859999999999999
    46   1      7.1600000000000028      51.909999999999997      51.909999999999997
    47   1      8.9500000000000028      50.120000000000005      51.909999999999997
    48   1      8.9500000000000028      51.909999999999997      50.120000000000005
    49   1      7.1600000000000028      50.120000000000005      53.700000000000003
    50   1      7.1600000000000028      51.909999999999997      55.490000000000002
    51   1      8.9500000000000028      50.120000000000005      55.490000000000002
    52   1      8.9500000000000028      51.909999999999997      53.700000000000003
    53   1      7.1600000000000028      50.120000000000005      57.279999999999994
    54   1      7.1600000000000028      51.909999999999997      59.069999999999993
    55   1      8.9500000000000028      50.120000000000005      59.069999999999993
    56   1      8.9500000000000028      51.909999999999997      57.279999999999994
    57   1      7.1600000000000028      50.120000000000005      60.859999999999999
    58   1      7.1600000000000028      51.909999999999997      62.649999999999999
    59   1      8.9500000000000028      50.120000000000005      62.649999999999999
    60   1      8.9500000000000028      51.909999999999997      60.859999999999999
    61   1      8.9500000000000028      51.909999999999997      64.439999999999998
    62   1      8.9500000000000028      53.700000000000003      48.329999999999998
    63   1      7.1600000000000028      53.700000000000003      50.120000000000005
    64   1      7.1600000000000028      55.490000000000002      51.909999999999997
    65   1      8.9500000000000028      53.700000000000003      51.909999999999997
    66   1      8.9500000000000028      55.490000000000002      50.120000000000005
    67   1      7.1600000000000028      53.700000000000003      53.700000000000003
    68   1      7.1600000000000028      55.490000000000002      55.490000000000002
    69   1      8.9500000000000028      53.700000000000003      55.490000000000002
    70   1      8.9500000000000028      55.490000000000002      53.700000000000003
    71   1      7.1600000000000028      53.700000000000003      57.279999999999994
    72   1      7.1600000000000028      55.490000000000002      59.069999999999993
    73   1      8.9500000000000028      53.700000000000003      59.069999999999993
    74   1      8.9500000000000028      55.490000000000002      57.279999999999994
    75   1      7.1600000000000028      53.700000000000003      60.859999999999999
    76   1      7.1600000000000028      55.490000000000002      62.649999999999999
    77   1      8.9500000000000028      53.700000000000003      62.649999999999999
    78   1      8.9500000000000028      55.490000000000002      60.859999999999999
    79   1      7.1600000000000028      53.700000000000003      64.439999999999998
    80   1      8.9500000000000028      53.700000000000003      66.230000000000004
    81   1      8.9500000000000028      55.490000000000002      64.439999999999998
    82   1      8.9500000000000028      57.279999999999994      48.329999999999998
    83   1      7.1600000000000028      57.279999999999994      50.120000000000005
    84   1      7.1600000000000028      59.069999999999993      51.909999999999997
    85   1      8.9500000000000028      57.279999999999994      51.909999999999997
    86   1      8.9500000000000028      59.069999999999993      50.120000000000005
    87   1      7.1600000000000028      57.279999999999994      53.700000000000003
    88   1      7.1600000000000028      59.069999999999993      55.490000000000002
    89   1      8.9500000000000028      57.279999999999994      55.490000000000002
    90   1      8.9500000000000028      59.069999999999993      53.700000000000003
    91   1      7.1600000000000028      57.279999999999994      57.279999999999994
    92   1      7.1600000000000028      59.069999999999993      59.069999999999993
    93   1      8.9500000000000028      57.279999999999994      59.069999999999993
    94   1      8.9500000000000028      59.069999999999993      57.279999999999994
    95   1      7.1600000000000028      57.279999999999994      60.859999999999999
    96   1      7.1600000000000028      59.069999999999993      62.649999999999999
    97   1      8.9500000000000028      57.279999999999994      62.649999999999999
    98   1      8.9500000000000028      59.069999999999993      60.859999999999999
    99   1      7.1600000000000028      57.279999999999994      64.439999999999998
   100   1      8.9500000000000028      57.279999999999994      66.230000000000004
   101   1      8.9500000000000028      59.069999999999993      64.439999999999998
   102   1      8.9500000000000028      60.859999999999999      48.329999999999998
   103   1      7.1600000000000028      60.859999999999999      50.120000000000005
   104   1      7.1600000000000028      62.649999999999999      51.909999999999997
   105   1      8.9500000000000028      60.859999999999999      51.909999999999997
   106   1      8.9500000000000028      62.649999999999999      50.120000000000005
   107   1      7.1600000000000028      60.859999999999999      53.700000000000003
   108   1      7.1600000000000028      62.649999999999999      55.490000000000002
   109   1      8.9500000000000028      60.859999999999999      55.490000000000002
   110   1      8.9500000000000028      62.649999999999999      53.700000000000003
   111   1      7.1600000000000028      60.859999999999999      57.279999999999994
   112   1      7.1600000000000028      62.649999999999999      59.069999999999993
   113   1      8.9500000000000028      60.859999999999999      59.069999999999993
   114   1      8.9500000000000028      62.649999999999999      57.279999999999994
   115   1      7.1600000000000028      60.859999999999999      60.859999999999999
   116   1      7.1600000000000028      62.649999999999999      62.649999999999999
   117   1      8.9500000000000028      60.859999999999999      62.649999999999999
   118   1      8.9500000000000028      62.649999999999999      60.859999999999999
   119   1      7.1600000000000028      60.859999999999999      64.439999999999998
   120   1      8.9500000000000028      60.859999999999999      66.230000000000004
   121   1      8.9500000000000028      62.649999999999999      64.439999999999998
   122   1      8.9500000000000028      64.439999999999998      51.909999999999997
   123   1      7.1600000000000028      64.439999999999998      53.700000000000003
   124   1      8.9500000000000028      64.439999999999998      55.490000000000002
   125   1      8.9500000000000028      66.230000000000004      53.700000000000003
   126   1      7.1600000000000028      64.439999999999998      57.279999999999994
   127   1      8.9500000000000028      64.439999999999998      59.069999999999993
   128   1      8.9500000000000028      66.230000000000004      57.279999999999994
   129   1      7.1600000000000028      64.439999999999998      60.859999999999999
   130   1      8.9500000000000028      64.439999999999998      62.649999999999999
   131   1      8.9500000000000028      66.230000000000004      60.859999999999999
   132   1      12.530000000000001                   44.75      53.700000000000003
   133   1      12.530000000000001                   44.75      57.279999999999994
   134   1      12.530000000000001                   44.75      60.859999999999999
   135   1                   10.74      48.329999999999998      51.909999999999997
   136   1      12.530000000000001      46.540000000000006      51.909999999999997
   137   1      12.530000000000001      48.329999999999998      50.120000000000005
   138   1                   10.74      46.540000000000006      53.700000000000003
   139   1                   10.74      48.329999999999998      55.490000000000002
   140   1      12.530000000000001      46.540000000000006      55.490000000000002
   141   1      12.530000000000001      48.329999999999998      53.700000000000003
   142   1                   10.74      46.540000000000006      57.279999999999994
   143   1                   10.74      48.329999999999998      59.069999999999993
   144   1      12.530000000000001      46.540000000000006      59.069999999999993
   145   1      12.530000000000001      48.329999999999998      57.279999999999994
   146   1                   10.74      46.540000000000006      60.859999999999999
   147   1                   10.74      48.329999999999998      62.649999999999999
   148   1      12.530000000000001      46.540000000000006      62.649999999999999
   149   1      12.530000000000001      48.329999999999998      60.859999999999999
   150   1      12.530000000000001      48.329999999999998      64.439999999999998
   151   1                   10.74      51.909999999999997      48.329999999999998
   152   1      12.530000000000001      50.120000000000005      48.329999999999998
   153   1      12.530000000000001      51.909999999999997      46.540000000000006
   154   1                   10.74      50.120000000000005      50.120000000000005
   155   1                   10.74      51.909999999999997      51.909999999999997
   156   1      12.530000000000001      50.120000000000005      51.909999999999997
   157   1      12.530000000000001      51.909999999999997      50.120000000000005
   158   1                   10.74      50.120000000000005      53.700000000000003
   159   1                   10.74      51.909999999999997      55.490000000000002
   160   1      12.530000000000001      50.120000000000005      55.490000000000002
   161   1      12.530000000000001      51.909999999999997      53.700000000000003
   162   1                   10.74      50.120000000000005      57.279999999999994
   163   1                   10.74      51.909999999999997      59.069999999999993
   164   1      12.530000000000001      50.120000000000005      59.069999999999993
   165   1      12.530000000000001      51.909999999999997      57.279999999999994
   166   1                   10.74      50.120000000000005      60.859999999999999
   167   1                   10.74      51.909999999999997      62.649999999999999
   168   1      12.530000000000001      50.120000000000005      62.649999999999999
   169   1      12.530000000000001      51.909999999999997      60.859999999999999
   170   1                   10.74      50.120000000000005      64.439999999999998
   171   1                   10.74      51.909999999999997      66.230000000000004
   172   1      12.530000000000001      50.120000000000005      66.230000000000004
   173   1      12.530000000000001      51.909999999999997      64.439999999999998
   174   1      12.530000000000001      51.909999999999997      68.019999999999982
   175   1      12.530000000000001      53.700000000000003                   44.75
   176   1                   10.74      53.700000000000003      46.540000000000006
   177   1                   10.74      55.490000000000002      48.329999999999998
   178   1      12.530000000000001      53.700000000000003      48.329999999999998
   179   1      12.530000000000001      55.490000000000002      46.540000000000006
   180   1                   10.74      53.700000000000003      50.120000000000005
   181   1                   10.74      55.490000000000002      51.909999999999997
   182   1      12.530000000000001      53.700000000000003      51.909999999999997
   183   1      12.530000000000001      55.490000000000002      50.120000000000005
   184   1                   10.74      53.700000000000003      53.700000000000003
   185   1                   10.74      55.490000000000002      55.490000000000002
   186   1      12.530000000000001      53.700000000000003      55.490000000000002
   187   1      12.530000000000001      55.490000000000002      53.700000000000003
   188   1                   10.74      53.700000000000003      57.279999999999994
   189   1                   10.74      55.490000000000002      59.069999999999993
   190   1      12.530000000000001      53.700000000000003      59.069999999999993
   191   1      12.530000000000001      55.490000000000002      57.279999999999994
   192   1                   10.74      53.700000000000003      60.859999999999999
   193   1                   10.74      55.490000000000002      62.649999999999999
   194   1      12.530000000000001      53.700000000000003      62.649999999999999
   195   1      12.530000000000001      55.490000000000002      60.859999999999999
   196   1                   10.74      53.700000000000003      64.439999999999998
   197   1                   10.74      55.490000000000002      66.230000000000004
   198   1      12.530000000000001      53.700000000000003      66.230000000000004
   199   1      12.530000000000001      55.490000000000002      64.439999999999998
   200   1                   10.74      53.700000000000003      68.019999999999982
   201   1      12.530000000000001      53.700000000000003      69.810000000000002
   202   1      12.530000000000001      55.490000000000002      68.019999999999982
   203   1      12.530000000000001      57.279999999999994                   44.75
   204   1                   10.74      57.279999999999994      46.540000000000006
   205   1                   10.74      59.069999999999993      48.329999999999998
   206   1      12.530000000000001      57.279999999999994      48.329999999999998
   207   1      12.530000000000001      59.069999999999993      46.540000000000006
   208   1                   10.74      57.279999999999994      50.120000000000005
   209   1                   10.74      59.069999999999993      51.909999999999997
   210   1      12.530000000000001      57.279999999999994      51.909999999999997
   211   1      12.530000000000001      59.069999999999993      50.120000000000005
   212   1                   10.74      57.279999999999994      53.700000000000003
   213   1                   10.74      59.069999999999993      55.490000000000002
   214   1      12.530000000000001      57.279999999999994      55.490000000000002
   215   1      12.530000000000001      59.069999999999993      53.700000000000003
   216   1                   10.74      57.279999999999994      57.279999999999994
   217   1                   10.74      59.069999999999993      59.069999999999993
   218   1      12.530000000000001      57.279999999999994      59.069999999999993
   219   1      12.530000000000001      59.069999999999993      57.279999999999994
   220   1                   10.74      57.279999999999994      60.859999999999999
   221   1                   10.74      59.069999999999993      62.649999999999999
   222   1      12.530000000000001      57.279999999999994      62.649999999999999
   223   1      12.530000000000001      59.069999999999993      60.859999999999999
   224   1                   10.74      57.279999999999994      64.439999999999998
   225   1                   10.74      59.069999999999993      66.230000000000004
   226   1      12.530000000000001      57.279999999999994      66.230000000000004
   227   1      12.530000000000001      59.069999999999993      64.439999999999998
   228   1                   10.74      57.279999999999994      68.019999999999982
   229   1      12.530000000000001      57.279999999999994      69.810000000000002
   230   1      12.530000000000001      59.069999999999993      68.019999999999982
   231   1      12.530000000000001      60.859999999999999                   44.75
   232   1                   10.74      60.859999999999999      46.540000000000006
   233   1                   10.74      62.649999999999999      48.329999999999998
   234   1      12.530000000000001      60.859999999999999      48.329999999999998
   235   1      12.530000000000001      62.649999999999999      46.540000000000006
   236   1                   10.74      60.859999999999999      50.120000000000005
   237   1                   10.74      62.649999999999999      51.909999999999997
   238   1      12.530000000000001      60.859999999999999      51.909999999999997
   239   1      12.530000000000001      62.649999999999999      50.120000000000005
   240   1                   10.74      60.859999999999999      53.700000000000003
   241   1                   10.74      62.649999999999999      55.490000000000002
   242   1      12.530000000000001      60.859999999999999      55.490000000000002
   243   1      12.530000000000001      62.649999999999999      53.700000000000003
   244   1                   10.74      60.859999999999999      57.279999999999994
   245   1                   10.74      62.649999999999999      59.069999999999993
   246   1      12.530000000000001      60.859999999999999      59.069999999999993
   247   1      12.530000000000001      62.649999999999999      57.279999999999994
   248   1                   10.74      60.859999999999999      60.859999999999999
   249   1                   10.74      62.649999999999999      62.649999999999999
   250   1      12.530000000000001      60.859999999999999      62.649999999999999
   251   1      12.530000000000001      62.649999999999999      60.859999999999999
   252   1                   10.74      60.859999999999999      64.439999999999998
   253   1                   10.74      62.649999999999999      66.230000000000004
   254   1      12.530000000000001      60.859999999999999      66.230000000000004
   255   1      12.530000000000001      62.649999999999999      64.439999999999998
   256   1                   10.74      60.859999999999999      68.019999999999982
   257   1      12.530000000000001      60.859999999999999      69.810000000000002
   258   1      12.530000000000001      62.649999999999999      68.019999999999982
   259   1      12.530000000000001      64.439999999999998      48.329999999999998
   260   1                   10.74      64.439999999999998      50.120000000000005
   261   1                   10.74      66.230000000000004      51.909999999999997
   262   1      12.530000000000001      64.439999999999998      51.909999999999997
   263   1      12.530000000000001      66.230000000000004      50.120000000000005
   264   1                   10.74      64.439999999999998      53.700000000000003
   265   1                   10.74      66.230000000000004      55.490000000000002
   266   1      12.530000000000001      64.439999999999998      55.490000000000002
   267   1      12.530000000000001      66.230000000000004      53.700000000000003
   268   1                   10.74      64.439999999999998      57.279999999999994
   269   1                   10.74      66.230000000000004      59.069999999999993
   270   1      12.530000000000001      64.439999999999998      59.069999999999993
   271   1      12.530000000000001      66.230000000000004      57.279999999999994
   272   1                   10.74      64.439999999999998      60.859999999999999
   273   1                   10.74      66.230000000000004      62.649999999999999
   274   1      12.530000000000001      64.439999999999998      62.649999999999999
   275   1      12.530000000000001      66.230000000000004      60.859999999999999
   276   1                   10.74      64.439999999999998      64.439999999999998
   277   1      12.530000000000001      64.439999999999998      66.230000000000004
   278   1      12.530000000000001      66.230000000000004      64.439999999999998
   279   1      12.530000000000001      68.019999999999982      51.909999999999997
   280   1                   10.74      68.019999999999982      53.700000000000003
   281   1      12.530000000000001      68.019999999999982      55.490000000000002
   282   1      12.530000000000001      69.810000000000002      53.700000000000003
   283   1                   10.74      68.019999999999982      57.279999999999994
   284   1      12.530000000000001      68.019999999999982      59.069999999999993
   285   1      12.530000000000001      69.810000000000002      57.279999999999994
   286   1                   10.74      68.019999999999982      60.859999999999999
   287   1      12.530000000000001      68.019999999999982      62.649999999999999
   288   1      12.530000000000001      69.810000000000002      60.859999999999999
   289   1      16.109999999999999      41.170000000000002      53.700000000000003
   290   1      16.109999999999999      41.170000000000002      57.279999999999994
   291   1      16.109999999999999      41.170000000000002      60.859999999999999
   292   1      16.109999999999999                   44.75      46.540000000000006
   293   1      14.319999999999999                   44.75      51.909999999999997
   294   1      16.109999999999999      42.959999999999994      51.909999999999997
   295   1      16.109999999999999                   44.75      50.120000000000005
   296   1      14.319999999999999      42.959999999999994      53.700000000000003
   297   1      14.319999999999999                   44.75      55.490000000000002
   298   1      16.109999999999999      42.959999999999994      55.490000000000002
   299   1      16.109999999999999                   44.75      53.700000000000003
   300   1      14.319999999999999      42.959999999999994      57.279999999999994
   301   1      14.319999999999999                   44.75      59.069999999999993
   302   1      16.109999999999999      42.959999999999994      59.069999999999993
   303   1      16.109999999999999                   44.75      57.279999999999994
   304   1      14.319999999999999      42.959999999999994      60.859999999999999
   305   1      14.319999999999999                   44.75      62.649999999999999
   306   1      16.109999999999999      42.959999999999994      62.649999999999999
   307   1      16.109999999999999                   44.75      60.859999999999999
   308   1      16.109999999999999                   44.75      64.439999999999998
   309   1      16.109999999999999                   44.75      68.019999999999982
   310   1      16.109999999999999      46.540000000000006                   44.75
   311   1      14.319999999999999      46.540000000000006      46.540000000000006
   312   1      14.319999999999999      48.329999999999998      48.329999999999998
   313   1      16.109999999999999      46.540000000000006      48.329999999999998
   314   1      16.109999999999999      48.329999999999998      46.540000000000006
   315   1      14.319999999999999      46.540000000000006      50.120000000000005
   316   1      14.319999999999999      48.329999999999998      51.909999999999997
   317   1      16.109999999999999      46.540000000000006      51.909999999999997
   318   1      16.109999999999999      48.329999999999998      50.120000000000005
   319   1      14.319999999999999      46.540000000000006      53.700000000000003
   320   1      14.319999999999999      48.329999999999998      55.490000000000002
   321   1      16.109999999999999      46.540000000000006      55.490000000000002
   322   1      16.109999999999999      48.329999999999998      53.700000000000003
   323   1      14.319999999999999      46.540000000000006      57.279999999999994
   324   1      14.319999999999999      48.329999999999998      59.069999999999993
   325   1      16.109999999999999      46.540000000000006      59.069999999999993
   326   1      16.109999999999999      48.329999999999998      57.279999999999994
   327   1      14.319999999999999      46.540000000000006      60.859999999999999
   328   1      14.319999999999999      48.329999999999998      62.649999999999999
   329   1      16.109999999999999      46.540000000000006      62.649999999999999
   330   1      16.109999999999999      48.329999999999998      60.859999999999999
   331   1      14.319999999999999      46.540000000000006      64.439999999999998
   332   1      14.319999999999999      48.329999999999998      66.230000000000004
   333   1      16.109999999999999      46.540000000000006      66.230000000000004
   334   1      16.109999999999999      48.329999999999998      64.439999999999998
   335   1      14.319999999999999      46.540000000000006      68.019999999999982
   336   1      16.109999999999999      46.540000000000006      69.810000000000002
   337   1      16.109999999999999      48.329999999999998      68.019999999999982
   338   1      14.319999999999999      51.909999999999997                   44.75
   339   1      16.109999999999999      50.120000000000005                   44.75
   340   1      16.109999999999999      51.909999999999997      42.959999999999994
   341   1      14.319999999999999      50.120000000000005      46.540000000000006
   342   1      14.319999999999999      51.909999999999997      48.329999999999998
   343   1      16.109999999999999      50.120000000000005      48.329999999999998
   344   1      16.109999999999999      51.909999999999997      46.540000000000006
   345   1      14.319999999999999      50.120000000000005      50.120000000000005
   346   1      14.319999999999999      51.909999999999997      51.909999999999997
   347   1      16.109999999999999      50.120000000000005      51.909999999999997
   348   1      16.109999999999999      51.909999999999997      50.120000000000005
   349   1      14.319999999999999      50.120000000000005      53.700000000000003
   350   1      14.319999999999999      51.909999999999997      55.490000000000002
   351   1      16.109999999999999      50.120000000000005      55.490000000000002
   352   1      16.109999999999999      51.909999999999997      53.700000000000003
   353   1      14.319999999999999      50.120000000000005      57.279999999999994
   354   1      14.319999999999999      51.909999999999997      59.069999999999993
   355   1      16.109999999999999      50.120000000000005      59.069999999999993
   356   1      16.109999999999999      51.909999999999997      57.279999999999994
   357   1      14.319999999999999      50.120000000000005      60.859999999999999
   358   1      14.319999999999999      51.909999999999997      62.649999999999999