model_files/Co/Co_30000/Co_510/data.Co_510_hcp_29899 (written by ASE) 

29899 	 atoms 
1  atom types
0.0                      57  xlo xhi
0.0                      57  ylo yhi
0.0                      57  zlo zhi


Atoms 

     1   1      1.2550000000000023      21.334999999999997      22.589999999999996
     2   1      1.2550000000000023      21.334999999999997      25.099999999999998
     3   1      1.2550000000000023      21.334999999999997      27.609999999999996
     4   1      1.2550000000000023      21.334999999999997      30.119999999999997
     5   1      1.2550000000000023      21.334999999999997      32.630000000000003
     6   1      1.2550000000000023      22.589999999999996      21.334999999999997
     7   1      1.2550000000000023      22.589999999999996      23.844999999999995
     8   1      1.2550000000000023      23.844999999999995      22.589999999999996
     9   1      1.2550000000000023      22.589999999999996      26.354999999999997
    10   1      1.2550000000000023      23.844999999999995      25.099999999999998
    11   1      1.2550000000000023      22.589999999999996      28.864999999999995
    12   1      1.2550000000000023      23.844999999999995      27.609999999999996
    13   1      1.2550000000000023      22.589999999999996                  31.375
    14   1      1.2550000000000023      23.844999999999995      30.119999999999997
    15   1      1.2550000000000023      22.589999999999996      33.885000000000005
    16   1      1.2550000000000023      23.844999999999995      32.630000000000003
    17   1      1.2550000000000023      25.099999999999998      21.334999999999997
    18   1      1.2550000000000023      25.099999999999998      23.844999999999995
    19   1      1.2550000000000023      26.354999999999997      22.589999999999996
    20   1      1.2550000000000023      25.099999999999998      26.354999999999997
    21   1      1.2550000000000023      26.354999999999997      25.099999999999998
    22   1      1.2550000000000023      25.099999999999998      28.864999999999995
    23   1      1.2550000000000023      26.354999999999997      27.609999999999996
    24   1      1.2550000000000023      25.099999999999998                  31.375
    25   1      1.2550000000000023      26.354999999999997      30.119999999999997
    26   1      1.2550000000000023      25.099999999999998      33.885000000000005
    27   1      1.2550000000000023      26.354999999999997      32.630000000000003
    28   1      1.2550000000000023      27.609999999999996      21.334999999999997
    29   1      1.2550000000000023      27.609999999999996      23.844999999999995
    30   1      1.2550000000000023      28.864999999999995      22.589999999999996
    31   1      1.2550000000000023      27.609999999999996      26.354999999999997
    32   1      1.2550000000000023      28.864999999999995      25.099999999999998
    33   1                       0      27.609999999999996      27.609999999999996
    34   1      1.2550000000000023      27.609999999999996      28.864999999999995
    35   1      1.2550000000000023      28.864999999999995      27.609999999999996
    36   1      1.2550000000000023      27.609999999999996                  31.375
    37   1      1.2550000000000023      28.864999999999995      30.119999999999997
    38   1      1.2550000000000023      27.609999999999996      33.885000000000005
    39   1      1.2550000000000023      28.864999999999995      32.630000000000003
    40   1      1.2550000000000023      30.119999999999997      21.334999999999997
    41   1      1.2550000000000023      30.119999999999997      23.844999999999995
    42   1      1.2550000000000023                  31.375      22.589999999999996
    43   1      1.2550000000000023      30.119999999999997      26.354999999999997
    44   1      1.2550000000000023                  31.375      25.099999999999998
    45   1      1.2550000000000023      30.119999999999997      28.864999999999995
    46   1      1.2550000000000023                  31.375      27.609999999999996
    47   1      1.2550000000000023      30.119999999999997                  31.375
    48   1      1.2550000000000023                  31.375      30.119999999999997
    49   1      1.2550000000000023      30.119999999999997      33.885000000000005
    50   1      1.2550000000000023                  31.375      32.630000000000003
    51   1      1.2550000000000023      32.630000000000003      21.334999999999997
    52   1      1.2550000000000023      32.630000000000003      23.844999999999995
    53   1      1.2550000000000023      33.885000000000005      22.589999999999996
    54   1      1.2550000000000023      32.630000000000003      26.354999999999997
    55   1      1.2550000000000023      33.885000000000005      25.099999999999998
    56   1      1.2550000000000023      32.630000000000003      28.864999999999995
    57   1      1.2550000000000023      33.885000000000005      27.609999999999996
    58   1      1.2550000000000023      32.630000000000003                  31.375
    59   1      1.2550000000000023      33.885000000000005      30.119999999999997
    60   1      1.2550000000000023      32.630000000000003      33.885000000000005
    61   1      1.2550000000000023      33.885000000000005      32.630000000000003
    62   1      3.7650000000000006      8.7850000000000001      10.039999999999999
    63   1      3.7650000000000006      8.7850000000000001      12.549999999999999
    64   1      3.7650000000000006      8.7850000000000001      15.060000000000002
    65   1      3.7650000000000006      8.7850000000000001                   17.57
    66   1      3.7650000000000006      8.7850000000000001      20.079999999999998
    67   1      3.7650000000000006      8.7850000000000001      22.589999999999996
    68   1      3.7650000000000006      8.7850000000000001      25.099999999999998
    69   1      3.7650000000000006      8.7850000000000001      27.609999999999996
    70   1      3.7650000000000006      8.7850000000000001      30.119999999999997
    71   1      3.7650000000000006      8.7850000000000001      32.630000000000003
    72   1      3.7650000000000006      8.7850000000000001      35.140000000000001
    73   1      3.7650000000000006      8.7850000000000001      37.649999999999999
    74   1      3.7650000000000006      8.7850000000000001      40.159999999999997
    75   1      3.7650000000000006      8.7850000000000001      42.669999999999995
    76   1      3.7650000000000006      8.7850000000000001      45.179999999999993
    77   1      3.7650000000000006      10.039999999999999      8.7850000000000001
    78   1      3.7650000000000006      10.039999999999999                  11.295
    79   1      3.7650000000000006                  11.295      10.039999999999999
    80   1      3.7650000000000006      10.039999999999999      13.804999999999998
    81   1      3.7650000000000006                  11.295      12.549999999999999
    82   1      3.7650000000000006      10.039999999999999      16.315000000000001
    83   1      3.7650000000000006                  11.295      15.060000000000002
    84   1      3.7650000000000006      10.039999999999999      18.824999999999999
    85   1      3.7650000000000006                  11.295                   17.57
    86   1      3.7650000000000006      10.039999999999999      21.334999999999997
    87   1      3.7650000000000006                  11.295      20.079999999999998
    88   1      3.7650000000000006      10.039999999999999      23.844999999999995
    89   1      3.7650000000000006                  11.295      22.589999999999996
    90   1      3.7650000000000006      10.039999999999999      26.354999999999997
    91   1      3.7650000000000006                  11.295      25.099999999999998
    92   1      3.7650000000000006      10.039999999999999      28.864999999999995
    93   1      3.7650000000000006                  11.295      27.609999999999996
    94   1      3.7650000000000006      10.039999999999999                  31.375
    95   1      3.7650000000000006                  11.295      30.119999999999997
    96   1      3.7650000000000006      10.039999999999999      33.885000000000005
    97   1      3.7650000000000006                  11.295      32.630000000000003
    98   1      3.7650000000000006      10.039999999999999      36.395000000000003
    99   1      3.7650000000000006                  11.295      35.140000000000001
   100   1      3.7650000000000006      10.039999999999999      38.905000000000001
   101   1      3.7650000000000006                  11.295      37.649999999999999
   102   1      3.7650000000000006      10.039999999999999      41.414999999999999
   103   1      3.7650000000000006                  11.295      40.159999999999997
   104   1      3.7650000000000006      10.039999999999999      43.924999999999997
   105   1      3.7650000000000006                  11.295      42.669999999999995
   106   1      3.7650000000000006      10.039999999999999      46.434999999999995
   107   1      3.7650000000000006                  11.295      45.179999999999993
   108   1      3.7650000000000006      12.549999999999999      8.7850000000000001
   109   1      3.7650000000000006      12.549999999999999                  11.295
   110   1      3.7650000000000006      13.804999999999998      10.039999999999999
   111   1      3.7650000000000006      12.549999999999999      13.804999999999998
   112   1      3.7650000000000006      13.804999999999998      12.549999999999999
   113   1      3.7650000000000006      12.549999999999999      16.315000000000001
   114   1      3.7650000000000006      13.804999999999998      15.060000000000002
   115   1      3.7650000000000006      12.549999999999999      18.824999999999999
   116   1      3.7650000000000006      13.804999999999998                   17.57
   117   1      3.7650000000000006      12.549999999999999      21.334999999999997
   118   1      3.7650000000000006      13.804999999999998      20.079999999999998
   119   1      3.7650000000000006      12.549999999999999      23.844999999999995
   120   1      3.7650000000000006      13.804999999999998      22.589999999999996
   121   1      3.7650000000000006      12.549999999999999      26.354999999999997
   122   1      3.7650000000000006      13.804999999999998      25.099999999999998
   123   1      3.7650000000000006      12.549999999999999      28.864999999999995
   124   1      3.7650000000000006      13.804999999999998      27.609999999999996
   125   1      3.7650000000000006      12.549999999999999                  31.375
   126   1      3.7650000000000006      13.804999999999998      30.119999999999997
   127   1      3.7650000000000006      12.549999999999999      33.885000000000005
   128   1      3.7650000000000006      13.804999999999998      32.630000000000003
   129   1      3.7650000000000006      12.549999999999999      36.395000000000003
   130   1      3.7650000000000006      13.804999999999998      35.140000000000001
   131   1      3.7650000000000006      12.549999999999999      38.905000000000001
   132   1      3.7650000000000006      13.804999999999998      37.649999999999999
   133   1      3.7650000000000006      12.549999999999999      41.414999999999999
   134   1      3.7650000000000006      13.804999999999998      40.159999999999997
   135   1      3.7650000000000006      12.549999999999999      43.924999999999997
   136   1      3.7650000000000006      13.804999999999998      42.669999999999995
   137   1      3.7650000000000006      12.549999999999999      46.434999999999995
   138   1      3.7650000000000006      13.804999999999998      45.179999999999993
   139   1      3.7650000000000006      15.060000000000002      8.7850000000000001
   140   1      3.7650000000000006      15.060000000000002                  11.295
   141   1      3.7650000000000006      16.315000000000001      10.039999999999999
   142   1      3.7650000000000006      15.060000000000002      13.804999999999998
   143   1      3.7650000000000006      16.315000000000001      12.549999999999999
   144   1      2.5100000000000011      15.060000000000002      15.060000000000002
   145   1      2.5100000000000011      16.315000000000001      16.315000000000001
   146   1      3.7650000000000006      15.060000000000002      16.315000000000001
   147   1      3.7650000000000006      16.315000000000001      15.060000000000002
   148   1      2.5100000000000011      15.060000000000002                   17.57
   149   1      2.5100000000000011      16.315000000000001      18.824999999999999
   150   1      3.7650000000000006      15.060000000000002      18.824999999999999
   151   1      3.7650000000000006      16.315000000000001                   17.57
   152   1      2.5100000000000011      15.060000000000002      20.079999999999998
   153   1      2.5100000000000011      16.315000000000001      21.334999999999997
   154   1      3.7650000000000006      15.060000000000002      21.334999999999997
   155   1      3.7650000000000006      16.315000000000001      20.079999999999998
   156   1      2.5100000000000011      15.060000000000002      22.589999999999996
   157   1      2.5100000000000011      16.315000000000001      23.844999999999995
   158   1      3.7650000000000006      15.060000000000002      23.844999999999995
   159   1      3.7650000000000006      16.315000000000001      22.589999999999996
   160   1      2.5100000000000011      15.060000000000002      25.099999999999998
   161   1      2.5100000000000011      16.315000000000001      26.354999999999997
   162   1      3.7650000000000006      15.060000000000002      26.354999999999997
   163   1      3.7650000000000006      16.315000000000001      25.099999999999998
   164   1      2.5100000000000011      15.060000000000002      27.609999999999996
   165   1      2.5100000000000011      16.315000000000001      28.864999999999995
   166   1      3.7650000000000006      15.060000000000002      28.864999999999995
   167   1      3.7650000000000006      16.315000000000001      27.609999999999996
   168   1      2.5100000000000011      15.060000000000002      30.119999999999997
   169   1      2.5100000000000011      16.315000000000001                  31.375
   170   1      3.7650000000000006      15.060000000000002                  31.375
   171   1      3.7650000000000006      16.315000000000001      30.119999999999997
   172   1      2.5100000000000011      15.060000000000002      32.630000000000003
   173   1      2.5100000000000011      16.315000000000001      33.885000000000005
   174   1      3.7650000000000006      15.060000000000002      33.885000000000005
   175   1      3.7650000000000006      16.315000000000001      32.630000000000003
   176   1      2.5100000000000011      15.060000000000002      35.140000000000001
   177   1      2.5100000000000011      16.315000000000001      36.395000000000003
   178   1      3.7650000000000006      15.060000000000002      36.395000000000003
   179   1      3.7650000000000006      16.315000000000001      35.140000000000001
   180   1      2.5100000000000011      15.060000000000002      37.649999999999999
   181   1      2.5100000000000011      16.315000000000001      38.905000000000001
   182   1      3.7650000000000006      15.060000000000002      38.905000000000001
   183   1      3.7650000000000006      16.315000000000001      37.649999999999999
   184   1      2.5100000000000011      15.060000000000002      40.159999999999997
   185   1      3.7650000000000006      15.060000000000002      41.414999999999999
   186   1      3.7650000000000006      16.315000000000001      40.159999999999997
   187   1      3.7650000000000006      15.060000000000002      43.924999999999997
   188   1      3.7650000000000006      16.315000000000001      42.669999999999995
   189   1      3.7650000000000006      15.060000000000002      46.434999999999995
   190   1      3.7650000000000006      16.315000000000001      45.179999999999993
   191   1      3.7650000000000006                   17.57      8.7850000000000001
   192   1      3.7650000000000006                   17.57                  11.295
   193   1      3.7650000000000006      18.824999999999999      10.039999999999999
   194   1      3.7650000000000006                   17.57      13.804999999999998
   195   1      3.7650000000000006      18.824999999999999      12.549999999999999
   196   1      2.5100000000000011                   17.57      15.060000000000002
   197   1      2.5100000000000011      18.824999999999999      16.315000000000001
   198   1      3.7650000000000006                   17.57      16.315000000000001
   199   1      3.7650000000000006      18.824999999999999      15.060000000000002
   200   1      2.5100000000000011                   17.57                   17.57
   201   1      2.5100000000000011      18.824999999999999      18.824999999999999
   202   1      3.7650000000000006                   17.57      18.824999999999999
   203   1      3.7650000000000006      18.824999999999999                   17.57
   204   1      2.5100000000000011                   17.57      20.079999999999998
   205   1      2.5100000000000011      18.824999999999999      21.334999999999997
   206   1      3.7650000000000006                   17.57      21.334999999999997
   207   1      3.7650000000000006      18.824999999999999      20.079999999999998
   208   1      2.5100000000000011                   17.57      22.589999999999996
   209   1      2.5100000000000011      18.824999999999999      23.844999999999995
   210   1      3.7650000000000006                   17.57      23.844999999999995
   211   1      3.7650000000000006      18.824999999999999      22.589999999999996
   212   1      2.5100000000000011                   17.57      25.099999999999998
   213   1      2.5100000000000011      18.824999999999999      26.354999999999997
   214   1      3.7650000000000006                   17.57      26.354999999999997
   215   1      3.7650000000000006      18.824999999999999      25.099999999999998
   216   1      2.5100000000000011                   17.57      27.609999999999996
   217   1      2.5100000000000011      18.824999999999999      28.864999999999995
   218   1      3.7650000000000006                   17.57      28.864999999999995
   219   1      3.7650000000000006      18.824999999999999      27.609999999999996
   220   1      2.5100000000000011                   17.57      30.119999999999997
   221   1      2.5100000000000011      18.824999999999999                  31.375
   222   1      3.7650000000000006                   17.57                  31.375
   223   1      3.7650000000000006      18.824999999999999      30.119999999999997
   224   1      2.5100000000000011                   17.57      32.630000000000003
   225   1      2.5100000000000011      18.824999999999999      33.885000000000005
   226   1      3.7650000000000006                   17.57      33.885000000000005
   227   1      3.7650000000000006      18.824999999999999      32.630000000000003
   228   1      2.5100000000000011                   17.57      35.140000000000001
   229   1      2.5100000000000011      18.824999999999999      36.395000000000003
   230   1      3.7650000000000006                   17.57      36.395000000000003
   231   1      3.7650000000000006      18.824999999999999      35.140000000000001
   232   1      2.5100000000000011                   17.57      37.649999999999999
   233   1      2.5100000000000011      18.824999999999999      38.905000000000001
   234   1      3.7650000000000006                   17.57      38.905000000000001
   235   1      3.7650000000000006      18.824999999999999      37.649999999999999
   236   1      2.5100000000000011                   17.57      40.159999999999997
   237   1      3.7650000000000006                   17.57      41.414999999999999
   238   1      3.7650000000000006      18.824999999999999      40.159999999999997
   239   1      3.7650000000000006                   17.57      43.924999999999997
   240   1      3.7650000000000006      18.824999999999999      42.669999999999995
   241   1      3.7650000000000006                   17.57      46.434999999999995
   242   1      3.7650000000000006      18.824999999999999      45.179999999999993
   243   1      3.7650000000000006      20.079999999999998      8.7850000000000001
   244   1      3.7650000000000006      20.079999999999998                  11.295
   245   1      3.7650000000000006      21.334999999999997      10.039999999999999
   246   1      3.7650000000000006      20.079999999999998      13.804999999999998
   247   1      3.7650000000000006      21.334999999999997      12.549999999999999
   248   1      2.5100000000000011      20.079999999999998      15.060000000000002
   249   1      2.5100000000000011      21.334999999999997      16.315000000000001
   250   1      3.7650000000000006      20.079999999999998      16.315000000000001
   251   1      3.7650000000000006      21.334999999999997      15.060000000000002
   252   1      2.5100000000000011      20.079999999999998                   17.57
   253   1      2.5100000000000011      21.334999999999997      18.824999999999999
   254   1      3.7650000000000006      20.079999999999998      18.824999999999999
   255   1      3.7650000000000006      21.334999999999997                   17.57
   256   1      2.5100000000000011      20.079999999999998      20.079999999999998
   257   1      2.5100000000000011      21.334999999999997      21.334999999999997
   258   1      3.7650000000000006      20.079999999999998      21.334999999999997
   259   1      3.7650000000000006      21.334999999999997      20.079999999999998
   260   1      2.5100000000000011      20.079999999999998      22.589999999999996
   261   1      2.5100000000000011      21.334999999999997      23.844999999999995
   262   1      3.7650000000000006      20.079999999999998      23.844999999999995
   263   1      3.7650000000000006      21.334999999999997      22.589999999999996
   264   1      2.5100000000000011      20.079999999999998      25.099999999999998
   265   1      2.5100000000000011      21.334999999999997      26.354999999999997
   266   1      3.7650000000000006      20.079999999999998      26.354999999999997
   267   1      3.7650000000000006      21.334999999999997      25.099999999999998
   268   1      2.5100000000000011      20.079999999999998      27.609999999999996
   269   1      2.5100000000000011      21.334999999999997      28.864999999999995
   270   1      3.7650000000000006      20.079999999999998      28.864999999999995
   271   1      3.7650000000000006      21.334999999999997      27.609999999999996
   272   1      2.5100000000000011      20.079999999999998      30.119999999999997
   273   1      2.5100000000000011      21.334999999999997                  31.375
   274   1      3.7650000000000006      20.079999999999998                  31.375
   275   1      3.7650000000000006      21.334999999999997      30.119999999999997
   276   1      2.5100000000000011      20.079999999999998      32.630000000000003
   277   1      2.5100000000000011      21.334999999999997      33.885000000000005
   278   1      3.7650000000000006      20.079999999999998      33.885000000000005
   279   1      3.7650000000000006      21.334999999999997      32.630000000000003
   280   1      2.5100000000000011      20.079999999999998      35.140000000000001
   281   1      2.5100000000000011      21.334999999999997      36.395000000000003
   282   1      3.7650000000000006      20.079999999999998      36.395000000000003
   283   1      3.7650000000000006      21.334999999999997      35.140000000000001
   284   1      2.5100000000000011      20.079999999999998      37.649999999999999
   285   1      2.5100000000000011      21.334999999999997      38.905000000000001
   286   1      3.7650000000000006      20.079999999999998      38.905000000000001
   287   1      3.7650000000000006      21.334999999999997      37.649999999999999
   288   1      2.5100000000000011      20.079999999999998      40.159999999999997
   289   1      3.7650000000000006      20.079999999999998      41.414999999999999
   290   1      3.7650000000000006      21.334999999999997      40.159999999999997
   291   1      3.7650000000000006      20.079999999999998      43.924999999999997
   292   1      3.7650000000000006      21.334999999999997      42.669999999999995
   293   1      3.7650000000000006      20.079999999999998      46.434999999999995
   294   1      3.7650000000000006      21.334999999999997      45.179999999999993
   295   1      3.7650000000000006      22.589999999999996      8.7850000000000001
   296   1      3.7650000000000006      22.589999999999996                  11.295
   297   1      3.7650000000000006      23.844999999999995      10.039999999999999
   298   1      3.7650000000000006      22.589999999999996      13.804999999999998
   299   1      3.7650000000000006      23.844999999999995      12.549999999999999
   300   1      2.5100000000000011      22.589999999999996      15.060000000000002
   301   1      2.5100000000000011      23.844999999999995      16.315000000000001
   302   1      3.7650000000000006      22.589999999999996      16.315000000000001
   303   1      3.7650000000000006      23.844999999999995      15.060000000000002
   304   1      2.5100000000000011      22.589999999999996                   17.57
   305   1      2.5100000000000011      23.844999999999995      18.824999999999999
   306   1      3.7650000000000006      22.589999999999996      18.824999999999999
   307   1      3.7650000000000006      23.844999999999995                   17.57
   308   1      2.5100000000000011      22.589999999999996      20.079999999999998
   309   1      2.5100000000000011      23.844999999999995      21.334999999999997
   310   1      3.7650000000000006      22.589999999999996      21.334999999999997
   311   1      3.7650000000000006      23.844999999999995      20.079999999999998
   312   1      2.5100000000000011      22.589999999999996      22.589999999999996
   313   1      2.5100000000000011      23.844999999999995      23.844999999999995
   314   1      3.7650000000000006      22.589999999999996      23.844999999999995
   315   1      3.7650000000000006      23.844999999999995      22.589999999999996
   316   1      2.5100000000000011      22.589999999999996      25.099999999999998
   317   1      2.5100000000000011      23.844999999999995      26.354999999999997
   318   1      3.7650000000000006      22.589999999999996      26.354999999999997
   319   1      3.7650000000000006      23.844999999999995      25.099999999999998
   320   1      2.5100000000000011      22.589999999999996      27.609999999999996
   321   1      2.5100000000000011      23.844999999999995      28.864999999999995
   322   1      3.7650000000000006      22.589999999999996      28.864999999999995
   323   1      3.7650000000000006      23.844999999999995      27.609999999999996
   324   1      2.5100000000000011      22.589999999999996      30.119999999999997
   325   1      2.5100000000000011      23.844999999999995                  31.375
   326   1      3.7650000000000006      22.589999999999996                  31.375
   327   1      3.7650000000000006      23.844999999999995      30.119999999999997
   328   1      2.5100000000000011      22.589999999999996      32.630000000000003
   329   1      2.5100000000000011      23.844999999999995      33.885000000000005
   330   1      3.7650000000000006      22.589999999999996      33.885000000000005
   331   1      3.7650000000000006      23.844999999999995      32.630000000000003
   332   1      2.5100000000000011      22.589999999999996      35.140000000000001
   333   1      2.5100000000000011      23.844999999999995      36.395000000000003
   334   1      3.7650000000000006      22.589999999999996      36.395000000000003
   335   1      3.7650000000000006      23.844999999999995      35.140000000000001
   336   1      2.5100000000000011      22.589999999999996      37.649999999999999
   337   1      2.5100000000000011      23.844999999999995      38.905000000000001
   338   1      3.7650000000000006      22.589999999999996      38.905000000000001
   339   1      3.7650000000000006      23.844999999999995      37.649999999999999
   340   1      2.5100000000000011      22.589999999999996      40.159999999999997
   341   1      3.7650000000000006      22.589999999999996      41.414999999999999
   342   1      3.7650000000000006      23.844999999999995      40.159999999999997
   343   1      3.7650000000000006      22.589999999999996      43.924999999999997
   344   1      3.7650000000000006      23.844999999999995      42.669999999999995
   345   1      3.7650000000000006      22.589999999999996      46.434999999999995
   346   1      3.7650000000000006      23.844999999999995      45.179999999999993
   347   1      3.7650000000000006      25.099999999999998      8.7850000000000001
   348   1      3.7650000000000006      25.099999999999998                  11.295
   349   1      3.7650000000000006      26.354999999999997      10.039999999999999
   350   1      3.7650000000000006      25.099999999999998      13.804999999999998
   351   1      3.7650000000000006      26.354999999999997      12.549999999999999
   352   1      2.5100000000000011      25.099999999999998      15.060000000000002
   353   1      2.5100000000000011      26.354999999999997      16.315000000000001
   354   1      3.7650000000000006      25.099999999999998      16.315000000000001
   355   1      3.7650000000000006      26.354999999999997      15.060000000000002
   356   1      2.5100000000000011      25.099999999999998                   17.57
   357   1      2.5100000000000011      26.354999999999997      18.824999999999999
   358   1      3.7650000000000006      25.099999999999998      18.824999999999999