model_files/PdNi/PdNi_30000/PdNi_530/PdNi_530_fcc_29831_temp.data (written by ASE) 

29831 	 atoms 
2  atom types
0.0                      96  xlo xhi
0.0                      96  ylo yhi
0.0                      96  zlo zhi


Atoms 

     1   1  7.1054273576010019e-15      46.562500000000007      46.562500000000007
     2   1       1.862500000000004      44.700000000000003      46.562500000000007
     3   1       1.862500000000004      46.562500000000007      44.700000000000003
     4   1  7.1054273576010019e-15      46.562500000000007      50.287499999999994
     5   1       1.862500000000004      44.700000000000003      50.287499999999994
     6   1       1.862500000000004      46.562500000000007      48.424999999999997
     7   1       1.862500000000004      46.562500000000007      52.149999999999999
     8   1  7.1054273576010019e-15      50.287499999999994      46.562500000000007
     9   1       1.862500000000004      48.424999999999997      46.562500000000007
    10   1       1.862500000000004      50.287499999999994      44.700000000000003
    11   1  7.1054273576010019e-15      48.424999999999997      48.424999999999997
    12   1  7.1054273576010019e-15      50.287499999999994      50.287499999999994
    13   1       1.862500000000004      48.424999999999997      50.287499999999994
    14   1       1.862500000000004      50.287499999999994      48.424999999999997
    15   1       1.862500000000004      50.287499999999994      52.149999999999999
    16   1       1.862500000000004      52.149999999999999      46.562500000000007
    17   1       1.862500000000004      52.149999999999999      50.287499999999994
    18   1      5.5875000000000057                   37.25      39.112500000000004
    19   1      5.5875000000000057      39.112500000000004                   37.25
    20   1      5.5875000000000057                   37.25      42.837500000000006
    21   1      5.5875000000000057      39.112500000000004      40.975000000000009
    22   1      5.5875000000000057                   37.25      46.562500000000007
    23   1      5.5875000000000057      39.112500000000004      44.700000000000003
    24   1      5.5875000000000057                   37.25      50.287499999999994
    25   1      5.5875000000000057      39.112500000000004      48.424999999999997
    26   1      5.5875000000000057                   37.25      54.012500000000003
    27   1      5.5875000000000057      39.112500000000004      52.149999999999999
    28   1      5.5875000000000057                   37.25      57.737499999999997
    29   1      5.5875000000000057      39.112500000000004                  55.875
    30   1      5.5875000000000057      39.112500000000004      59.600000000000001
    31   1      5.5875000000000057      40.975000000000009      39.112500000000004
    32   1      5.5875000000000057      42.837500000000006                   37.25
    33   1      3.7250000000000081      40.975000000000009      40.975000000000009
    34   1      3.7250000000000081      42.837500000000006      42.837500000000006
    35   1      5.5875000000000057      40.975000000000009      42.837500000000006
    36   1      5.5875000000000057      42.837500000000006      40.975000000000009
    37   1      3.7250000000000081      40.975000000000009      44.700000000000003
    38   1      3.7250000000000081      42.837500000000006      46.562500000000007
    39   1      5.5875000000000057      40.975000000000009      46.562500000000007
    40   1      5.5875000000000057      42.837500000000006      44.700000000000003
    41   1      3.7250000000000081      40.975000000000009      48.424999999999997
    42   1      3.7250000000000081      42.837500000000006      50.287499999999994
    43   1      5.5875000000000057      40.975000000000009      50.287499999999994
    44   1      5.5875000000000057      42.837500000000006      48.424999999999997
    45   1      3.7250000000000081      40.975000000000009      52.149999999999999
    46   1      3.7250000000000081      42.837500000000006      54.012500000000003
    47   1      5.5875000000000057      40.975000000000009      54.012500000000003
    48   1      5.5875000000000057      42.837500000000006      52.149999999999999
    49   1      3.7250000000000081      40.975000000000009                  55.875
    50   1      5.5875000000000057      40.975000000000009      57.737499999999997
    51   1      5.5875000000000057      42.837500000000006                  55.875
    52   1      5.5875000000000057      42.837500000000006      59.600000000000001
    53   1      5.5875000000000057      44.700000000000003      39.112500000000004
    54   1      5.5875000000000057      46.562500000000007                   37.25
    55   1      3.7250000000000081      44.700000000000003      40.975000000000009
    56   1      3.7250000000000081      46.562500000000007      42.837500000000006
    57   1      5.5875000000000057      44.700000000000003      42.837500000000006
    58   1      5.5875000000000057      46.562500000000007      40.975000000000009
    59   1      3.7250000000000081      44.700000000000003      44.700000000000003
    60   1      3.7250000000000081      46.562500000000007      46.562500000000007
    61   1      5.5875000000000057      44.700000000000003      46.562500000000007
    62   1      5.5875000000000057      46.562500000000007      44.700000000000003
    63   1      3.7250000000000081      44.700000000000003      48.424999999999997
    64   1      3.7250000000000081      46.562500000000007      50.287499999999994
    65   1      5.5875000000000057      44.700000000000003      50.287499999999994
    66   1      5.5875000000000057      46.562500000000007      48.424999999999997
    67   1      3.7250000000000081      44.700000000000003      52.149999999999999
    68   1      3.7250000000000081      46.562500000000007      54.012500000000003
    69   1      5.5875000000000057      44.700000000000003      54.012500000000003
    70   1      5.5875000000000057      46.562500000000007      52.149999999999999
    71   1      3.7250000000000081      44.700000000000003                  55.875
    72   1      5.5875000000000057      44.700000000000003      57.737499999999997
    73   1      5.5875000000000057      46.562500000000007                  55.875
    74   1      5.5875000000000057      46.562500000000007      59.600000000000001
    75   1      5.5875000000000057      48.424999999999997      39.112500000000004
    76   1      5.5875000000000057      50.287499999999994                   37.25
    77   1      3.7250000000000081      48.424999999999997      40.975000000000009
    78   1      3.7250000000000081      50.287499999999994      42.837500000000006
    79   1      5.5875000000000057      48.424999999999997      42.837500000000006
    80   1      5.5875000000000057      50.287499999999994      40.975000000000009
    81   1      3.7250000000000081      48.424999999999997      44.700000000000003
    82   1      3.7250000000000081      50.287499999999994      46.562500000000007
    83   1      5.5875000000000057      48.424999999999997      46.562500000000007
    84   1      5.5875000000000057      50.287499999999994      44.700000000000003
    85   1      3.7250000000000081      48.424999999999997      48.424999999999997
    86   1      3.7250000000000081      50.287499999999994      50.287499999999994
    87   1      5.5875000000000057      48.424999999999997      50.287499999999994
    88   1      5.5875000000000057      50.287499999999994      48.424999999999997
    89   1      3.7250000000000081      48.424999999999997      52.149999999999999
    90   1      3.7250000000000081      50.287499999999994      54.012500000000003
    91   1      5.5875000000000057      48.424999999999997      54.012500000000003
    92   1      5.5875000000000057      50.287499999999994      52.149999999999999
    93   1      3.7250000000000081      48.424999999999997                  55.875
    94   1      5.5875000000000057      48.424999999999997      57.737499999999997
    95   1      5.5875000000000057      50.287499999999994                  55.875
    96   1      5.5875000000000057      50.287499999999994      59.600000000000001
    97   1      5.5875000000000057      52.149999999999999      39.112500000000004
    98   1      5.5875000000000057      54.012500000000003                   37.25
    99   1      3.7250000000000081      52.149999999999999      40.975000000000009
   100   1      3.7250000000000081      54.012500000000003      42.837500000000006
   101   1      5.5875000000000057      52.149999999999999      42.837500000000006
   102   1      5.5875000000000057      54.012500000000003      40.975000000000009
   103   1      3.7250000000000081      52.149999999999999      44.700000000000003
   104   1      3.7250000000000081      54.012500000000003      46.562500000000007
   105   1      5.5875000000000057      52.149999999999999      46.562500000000007
   106   1      5.5875000000000057      54.012500000000003      44.700000000000003
   107   1      3.7250000000000081      52.149999999999999      48.424999999999997
   108   1      3.7250000000000081      54.012500000000003      50.287499999999994
   109   1      5.5875000000000057      52.149999999999999      50.287499999999994
   110   1      5.5875000000000057      54.012500000000003      48.424999999999997
   111   1      3.7250000000000081      52.149999999999999      52.149999999999999
   112   1      3.7250000000000081      54.012500000000003      54.012500000000003
   113   1      5.5875000000000057      52.149999999999999      54.012500000000003
   114   1      5.5875000000000057      54.012500000000003      52.149999999999999
   115   1      3.7250000000000081      52.149999999999999                  55.875
   116   1      5.5875000000000057      52.149999999999999      57.737499999999997
   117   1      5.5875000000000057      54.012500000000003                  55.875
   118   1      5.5875000000000057      54.012500000000003      59.600000000000001
   119   1      5.5875000000000057                  55.875      39.112500000000004
   120   1      5.5875000000000057      57.737499999999997                   37.25
   121   1      3.7250000000000081                  55.875      40.975000000000009
   122   1      5.5875000000000057                  55.875      42.837500000000006
   123   1      5.5875000000000057      57.737499999999997      40.975000000000009
   124   1      3.7250000000000081                  55.875      44.700000000000003
   125   1      5.5875000000000057                  55.875      46.562500000000007
   126   1      5.5875000000000057      57.737499999999997      44.700000000000003
   127   1      3.7250000000000081                  55.875      48.424999999999997
   128   1      5.5875000000000057                  55.875      50.287499999999994
   129   1      5.5875000000000057      57.737499999999997      48.424999999999997
   130   1      3.7250000000000081                  55.875      52.149999999999999
   131   1      5.5875000000000057                  55.875      54.012500000000003
   132   1      5.5875000000000057      57.737499999999997      52.149999999999999
   133   1      3.7250000000000081                  55.875                  55.875
   134   1      5.5875000000000057                  55.875      57.737499999999997
   135   1      5.5875000000000057      57.737499999999997                  55.875
   136   1      5.5875000000000057      57.737499999999997      59.600000000000001
   137   1      5.5875000000000057      59.600000000000001      39.112500000000004
   138   1      5.5875000000000057      59.600000000000001      42.837500000000006
   139   1      5.5875000000000057      59.600000000000001      46.562500000000007
   140   1      5.5875000000000057      59.600000000000001      50.287499999999994
   141   1      5.5875000000000057      59.600000000000001      54.012500000000003
   142   1      5.5875000000000057      59.600000000000001      57.737499999999997
   143   1      9.3125000000000071      31.662500000000001      33.525000000000006
   144   1      9.3125000000000071      31.662500000000001                   37.25
   145   1      9.3125000000000071      31.662500000000001      40.975000000000009
   146   1      9.3125000000000071      31.662500000000001      44.700000000000003
   147   1      9.3125000000000071      31.662500000000001      48.424999999999997
   148   1      9.3125000000000071      31.662500000000001      52.149999999999999
   149   1      9.3125000000000071      31.662500000000001                  55.875
   150   1      9.3125000000000071      31.662500000000001      59.600000000000001
   151   1      9.3125000000000071      31.662500000000001      63.325000000000003
   152   1      9.3125000000000071      33.525000000000006      31.662500000000001
   153   1      7.4500000000000099      35.387500000000003      35.387500000000003
   154   1      9.3125000000000071      33.525000000000006      35.387500000000003
   155   1      9.3125000000000071      35.387500000000003      33.525000000000006
   156   1      7.4500000000000099      35.387500000000003      39.112500000000004
   157   1      9.3125000000000071      33.525000000000006      39.112500000000004
   158   1      9.3125000000000071      35.387500000000003                   37.25
   159   1      7.4500000000000099      35.387500000000003      42.837500000000006
   160   1      9.3125000000000071      33.525000000000006      42.837500000000006
   161   1      9.3125000000000071      35.387500000000003      40.975000000000009
   162   1      7.4500000000000099      35.387500000000003      46.562500000000007
   163   1      9.3125000000000071      33.525000000000006      46.562500000000007
   164   1      9.3125000000000071      35.387500000000003      44.700000000000003
   165   1      7.4500000000000099      35.387500000000003      50.287499999999994
   166   1      9.3125000000000071      33.525000000000006      50.287499999999994
   167   1      9.3125000000000071      35.387500000000003      48.424999999999997
   168   1      7.4500000000000099      35.387500000000003      54.012500000000003
   169   1      9.3125000000000071      33.525000000000006      54.012500000000003
   170   1      9.3125000000000071      35.387500000000003      52.149999999999999
   171   1      7.4500000000000099      35.387500000000003      57.737499999999997
   172   1      9.3125000000000071      33.525000000000006      57.737499999999997
   173   1      9.3125000000000071      35.387500000000003                  55.875
   174   1      7.4500000000000099      35.387500000000003      61.462500000000006
   175   1      9.3125000000000071      33.525000000000006      61.462500000000006
   176   1      9.3125000000000071      35.387500000000003      59.600000000000001
   177   1      9.3125000000000071      33.525000000000006                 65.1875
   178   1      9.3125000000000071      35.387500000000003      63.325000000000003
   179   1      9.3125000000000071                   37.25      31.662500000000001
   180   1      7.4500000000000099      39.112500000000004      35.387500000000003
   181   1      9.3125000000000071                   37.25      35.387500000000003
   182   1      9.3125000000000071      39.112500000000004      33.525000000000006
   183   1      7.4500000000000099                   37.25                   37.25
   184   1      7.4500000000000099      39.112500000000004      39.112500000000004
   185   1      9.3125000000000071                   37.25      39.112500000000004
   186   1      9.3125000000000071      39.112500000000004                   37.25
   187   1      7.4500000000000099                   37.25      40.975000000000009
   188   1      7.4500000000000099      39.112500000000004      42.837500000000006
   189   1      9.3125000000000071                   37.25      42.837500000000006
   190   1      9.3125000000000071      39.112500000000004      40.975000000000009
   191   1      7.4500000000000099                   37.25      44.700000000000003
   192   1      7.4500000000000099      39.112500000000004      46.562500000000007
   193   1      9.3125000000000071                   37.25      46.562500000000007
   194   1      9.3125000000000071      39.112500000000004      44.700000000000003
   195   1      7.4500000000000099                   37.25      48.424999999999997
   196   1      7.4500000000000099      39.112500000000004      50.287499999999994
   197   1      9.3125000000000071                   37.25      50.287499999999994
   198   1      9.3125000000000071      39.112500000000004      48.424999999999997
   199   1      7.4500000000000099                   37.25      52.149999999999999
   200   1      7.4500000000000099      39.112500000000004      54.012500000000003
   201   1      9.3125000000000071                   37.25      54.012500000000003
   202   1      9.3125000000000071      39.112500000000004      52.149999999999999
   203   1      7.4500000000000099                   37.25                  55.875
   204   1      7.4500000000000099      39.112500000000004      57.737499999999997
   205   1      9.3125000000000071                   37.25      57.737499999999997
   206   1      9.3125000000000071      39.112500000000004                  55.875
   207   1      7.4500000000000099                   37.25      59.600000000000001
   208   1      7.4500000000000099      39.112500000000004      61.462500000000006
   209   1      9.3125000000000071                   37.25      61.462500000000006
   210   1      9.3125000000000071      39.112500000000004      59.600000000000001
   211   1      9.3125000000000071                   37.25                 65.1875
   212   1      9.3125000000000071      39.112500000000004      63.325000000000003
   213   1      9.3125000000000071      40.975000000000009      31.662500000000001
   214   1      7.4500000000000099      42.837500000000006      35.387500000000003
   215   1      9.3125000000000071      40.975000000000009      35.387500000000003
   216   1      9.3125000000000071      42.837500000000006      33.525000000000006
   217   1      7.4500000000000099      40.975000000000009                   37.25
   218   1      7.4500000000000099      42.837500000000006      39.112500000000004
   219   1      9.3125000000000071      40.975000000000009      39.112500000000004
   220   1      9.3125000000000071      42.837500000000006                   37.25
   221   1      7.4500000000000099      40.975000000000009      40.975000000000009
   222   1      7.4500000000000099      42.837500000000006      42.837500000000006
   223   1      9.3125000000000071      40.975000000000009      42.837500000000006
   224   1      9.3125000000000071      42.837500000000006      40.975000000000009
   225   1      7.4500000000000099      40.975000000000009      44.700000000000003
   226   1      7.4500000000000099      42.837500000000006      46.562500000000007
   227   1      9.3125000000000071      40.975000000000009      46.562500000000007
   228   1      9.3125000000000071      42.837500000000006      44.700000000000003
   229   1      7.4500000000000099      40.975000000000009      48.424999999999997
   230   1      7.4500000000000099      42.837500000000006      50.287499999999994
   231   1      9.3125000000000071      40.975000000000009      50.287499999999994
   232   1      9.3125000000000071      42.837500000000006      48.424999999999997
   233   1      7.4500000000000099      40.975000000000009      52.149999999999999
   234   1      7.4500000000000099      42.837500000000006      54.012500000000003
   235   1      9.3125000000000071      40.975000000000009      54.012500000000003
   236   1      9.3125000000000071      42.837500000000006      52.149999999999999
   237   1      7.4500000000000099      40.975000000000009                  55.875
   238   1      7.4500000000000099      42.837500000000006      57.737499999999997
   239   1      9.3125000000000071      40.975000000000009      57.737499999999997
   240   1      9.3125000000000071      42.837500000000006                  55.875
   241   1      7.4500000000000099      40.975000000000009      59.600000000000001
   242   1      7.4500000000000099      42.837500000000006      61.462500000000006
   243   1      9.3125000000000071      40.975000000000009      61.462500000000006
   244   1      9.3125000000000071      42.837500000000006      59.600000000000001
   245   1      9.3125000000000071      40.975000000000009                 65.1875
   246   1      9.3125000000000071      42.837500000000006      63.325000000000003
   247   1      9.3125000000000071      44.700000000000003      31.662500000000001
   248   1      7.4500000000000099      46.562500000000007      35.387500000000003
   249   1      9.3125000000000071      44.700000000000003      35.387500000000003
   250   1      9.3125000000000071      46.562500000000007      33.525000000000006
   251   1      7.4500000000000099      44.700000000000003                   37.25
   252   1      7.4500000000000099      46.562500000000007      39.112500000000004
   253   1      9.3125000000000071      44.700000000000003      39.112500000000004
   254   1      9.3125000000000071      46.562500000000007                   37.25
   255   1      7.4500000000000099      44.700000000000003      40.975000000000009
   256   1      7.4500000000000099      46.562500000000007      42.837500000000006
   257   1      9.3125000000000071      44.700000000000003      42.837500000000006
   258   1      9.3125000000000071      46.562500000000007      40.975000000000009
   259   1      7.4500000000000099      44.700000000000003      44.700000000000003
   260   1      7.4500000000000099      46.562500000000007      46.562500000000007
   261   1      9.3125000000000071      44.700000000000003      46.562500000000007
   262   1      9.3125000000000071      46.562500000000007      44.700000000000003
   263   1      7.4500000000000099      44.700000000000003      48.424999999999997
   264   1      7.4500000000000099      46.562500000000007      50.287499999999994
   265   1      9.3125000000000071      44.700000000000003      50.287499999999994
   266   1      9.3125000000000071      46.562500000000007      48.424999999999997
   267   1      7.4500000000000099      44.700000000000003      52.149999999999999
   268   1      7.4500000000000099      46.562500000000007      54.012500000000003
   269   1      9.3125000000000071      44.700000000000003      54.012500000000003
   270   1      9.3125000000000071      46.562500000000007      52.149999999999999
   271   1      7.4500000000000099      44.700000000000003                  55.875
   272   1      7.4500000000000099      46.562500000000007      57.737499999999997
   273   1      9.3125000000000071      44.700000000000003      57.737499999999997
   274   1      9.3125000000000071      46.562500000000007                  55.875
   275   1      7.4500000000000099      44.700000000000003      59.600000000000001
   276   1      7.4500000000000099      46.562500000000007      61.462500000000006
   277   1      9.3125000000000071      44.700000000000003      61.462500000000006
   278   1      9.3125000000000071      46.562500000000007      59.600000000000001
   279   1      9.3125000000000071      44.700000000000003                 65.1875
   280   1      9.3125000000000071      46.562500000000007      63.325000000000003
   281   1      9.3125000000000071      48.424999999999997      31.662500000000001
   282   1      7.4500000000000099      50.287499999999994      35.387500000000003
   283   1      9.3125000000000071      48.424999999999997      35.387500000000003
   284   1      9.3125000000000071      50.287499999999994      33.525000000000006
   285   1      7.4500000000000099      48.424999999999997                   37.25
   286   1      7.4500000000000099      50.287499999999994      39.112500000000004
   287   1      9.3125000000000071      48.424999999999997      39.112500000000004
   288   1      9.3125000000000071      50.287499999999994                   37.25
   289   1      7.4500000000000099      48.424999999999997      40.975000000000009
   290   1      7.4500000000000099      50.287499999999994      42.837500000000006
   291   1      9.3125000000000071      48.424999999999997      42.837500000000006
   292   1      9.3125000000000071      50.287499999999994      40.975000000000009
   293   1      7.4500000000000099      48.424999999999997      44.700000000000003
   294   1      7.4500000000000099      50.287499999999994      46.562500000000007
   295   1      9.3125000000000071      48.424999999999997      46.562500000000007
   296   1      9.3125000000000071      50.287499999999994      44.700000000000003
   297   1      7.4500000000000099      48.424999999999997      48.424999999999997
   298   1      7.4500000000000099      50.287499999999994      50.287499999999994
   299   1      9.3125000000000071      48.424999999999997      50.287499999999994
   300   1      9.3125000000000071      50.287499999999994      48.424999999999997
   301   1      7.4500000000000099      48.424999999999997      52.149999999999999
   302   1      7.4500000000000099      50.287499999999994      54.012500000000003
   303   1      9.3125000000000071      48.424999999999997      54.012500000000003
   304   1      9.3125000000000071      50.287499999999994      52.149999999999999
   305   1      7.4500000000000099      48.424999999999997                  55.875
   306   1      7.4500000000000099      50.287499999999994      57.737499999999997
   307   1      9.3125000000000071      48.424999999999997      57.737499999999997
   308   1      9.3125000000000071      50.287499999999994                  55.875
   309   1      7.4500000000000099      48.424999999999997      59.600000000000001
   310   1      7.4500000000000099      50.287499999999994      61.462500000000006
   311   1      9.3125000000000071      48.424999999999997      61.462500000000006
   312   1      9.3125000000000071      50.287499999999994      59.600000000000001
   313   1      9.3125000000000071      48.424999999999997                 65.1875
   314   1      9.3125000000000071      50.287499999999994      63.325000000000003
   315   1      9.3125000000000071      52.149999999999999      31.662500000000001
   316   1      7.4500000000000099      54.012500000000003      35.387500000000003
   317   1      9.3125000000000071      52.149999999999999      35.387500000000003
   318   1      9.3125000000000071      54.012500000000003      33.525000000000006
   319   1      7.4500000000000099      52.149999999999999                   37.25
   320   1      7.4500000000000099      54.012500000000003      39.112500000000004
   321   1      9.3125000000000071      52.149999999999999      39.112500000000004
   322   1      9.3125000000000071      54.012500000000003                   37.25
   323   1      7.4500000000000099      52.149999999999999      40.975000000000009
   324   1      7.4500000000000099      54.012500000000003      42.837500000000006
   325   1      9.3125000000000071      52.149999999999999      42.837500000000006
   326   1      9.3125000000000071      54.012500000000003      40.975000000000009
   327   1      7.4500000000000099      52.149999999999999      44.700000000000003
   328   1      7.4500000000000099      54.012500000000003      46.562500000000007
   329   1      9.3125000000000071      52.149999999999999      46.562500000000007
   330   1      9.3125000000000071      54.012500000000003      44.700000000000003
   331   1      7.4500000000000099      52.149999999999999      48.424999999999997
   332   1      7.4500000000000099      54.012500000000003      50.287499999999994
   333   1      9.3125000000000071      52.149999999999999      50.287499999999994
   334   1      9.3125000000000071      54.012500000000003      48.424999999999997
   335   1      7.4500000000000099      52.149999999999999      52.149999999999999
   336   1      7.4500000000000099      54.012500000000003      54.012500000000003
   337   1      9.3125000000000071      52.149999999999999      54.012500000000003
   338   1      9.3125000000000071      54.012500000000003      52.149999999999999
   339   1      7.4500000000000099      52.149999999999999                  55.875
   340   1      7.4500000000000099      54.012500000000003      57.737499999999997
   341   1      9.3125000000000071      52.149999999999999      57.737499999999997
   342   1      9.3125000000000071      54.012500000000003                  55.875
   343   1      7.4500000000000099      52.149999999999999      59.600000000000001
   344   1      7.4500000000000099      54.012500000000003      61.462500000000006
   345   1      9.3125000000000071      52.149999999999999      61.462500000000006
   346   1      9.3125000000000071      54.012500000000003      59.600000000000001
   347   1      9.3125000000000071      52.149999999999999                 65.1875
   348   1      9.3125000000000071      54.012500000000003      63.325000000000003
   349   1      9.3125000000000071                  55.875      31.662500000000001
   350   1      7.4500000000000099      57.737499999999997      35.387500000000003
   351   1      9.3125000000000071                  55.875      35.387500000000003
   352   1      9.3125000000000071      57.737499999999997      33.525000000000006
   353   1      7.4500000000000099                  55.875                   37.25
   354   1      7.4500000000000099      57.737499999999997      39.112500000000004
   355   1      9.3125000000000071                  55.875      39.112500000000004
   356   1      9.3125000000000071      57.737499999999997                   37.25
   357   1      7.4500000000000099                  55.875      40.975000000000009
   358   1      7.4500000000000099      57.737499999999997      42.837500000000006