model_files/Au/Au_30000/Au_430/data.Au_430_fcc_29909 (written by ASE) 

29909 	 atoms 
1  atom types
0.0                     114  xlo xhi
0.0                     114  ylo yhi
0.0                     114  zlo zhi


Atoms 

     1   1      2.0399999999999991      55.079999999999998      57.120000000000005
     2   1      2.0399999999999991      57.120000000000005      55.079999999999998
     3   1                       0      57.120000000000005      57.120000000000005
     4   1      2.0399999999999991      57.120000000000005      59.159999999999997
     5   1      2.0399999999999991      59.159999999999997      57.120000000000005
     6   1      4.0799999999999983      50.999999999999993      50.999999999999993
     7   1      6.1200000000000045      48.959999999999994      50.999999999999993
     8   1      6.1200000000000045      50.999999999999993      48.959999999999994
     9   1      4.0799999999999983      50.999999999999993      55.079999999999998
    10   1      6.1200000000000045      48.959999999999994      55.079999999999998
    11   1      6.1200000000000045      50.999999999999993      53.040000000000006
    12   1      4.0799999999999983      50.999999999999993      59.159999999999997
    13   1      6.1200000000000045      48.959999999999994      59.159999999999997
    14   1      6.1200000000000045      50.999999999999993      57.120000000000005
    15   1      4.0799999999999983      50.999999999999993      63.240000000000002
    16   1      6.1200000000000045      48.959999999999994      63.240000000000002
    17   1      6.1200000000000045      50.999999999999993      61.200000000000003
    18   1      6.1200000000000045      50.999999999999993      65.280000000000001
    19   1      4.0799999999999983      55.079999999999998      50.999999999999993
    20   1      6.1200000000000045      53.040000000000006      50.999999999999993
    21   1      6.1200000000000045      55.079999999999998      48.959999999999994
    22   1      4.0799999999999983      53.040000000000006      53.040000000000006
    23   1      4.0799999999999983      55.079999999999998      55.079999999999998
    24   1      6.1200000000000045      53.040000000000006      55.079999999999998
    25   1      6.1200000000000045      55.079999999999998      53.040000000000006
    26   1      4.0799999999999983      53.040000000000006      57.120000000000005
    27   1      4.0799999999999983      55.079999999999998      59.159999999999997
    28   1      6.1200000000000045      53.040000000000006      59.159999999999997
    29   1      6.1200000000000045      55.079999999999998      57.120000000000005
    30   1      4.0799999999999983      53.040000000000006      61.200000000000003
    31   1      4.0799999999999983      55.079999999999998      63.240000000000002
    32   1      6.1200000000000045      53.040000000000006      63.240000000000002
    33   1      6.1200000000000045      55.079999999999998      61.200000000000003
    34   1      6.1200000000000045      55.079999999999998      65.280000000000001
    35   1      4.0799999999999983      59.159999999999997      50.999999999999993
    36   1      6.1200000000000045      57.120000000000005      50.999999999999993
    37   1      6.1200000000000045      59.159999999999997      48.959999999999994
    38   1      4.0799999999999983      57.120000000000005      53.040000000000006
    39   1      4.0799999999999983      59.159999999999997      55.079999999999998
    40   1      6.1200000000000045      57.120000000000005      55.079999999999998
    41   1      6.1200000000000045      59.159999999999997      53.040000000000006
    42   1      4.0799999999999983      57.120000000000005      57.120000000000005
    43   1      4.0799999999999983      59.159999999999997      59.159999999999997
    44   1      6.1200000000000045      57.120000000000005      59.159999999999997
    45   1      6.1200000000000045      59.159999999999997      57.120000000000005
    46   1      4.0799999999999983      57.120000000000005      61.200000000000003
    47   1      4.0799999999999983      59.159999999999997      63.240000000000002
    48   1      6.1200000000000045      57.120000000000005      63.240000000000002
    49   1      6.1200000000000045      59.159999999999997      61.200000000000003
    50   1      6.1200000000000045      59.159999999999997      65.280000000000001
    51   1      4.0799999999999983      63.240000000000002      50.999999999999993
    52   1      6.1200000000000045      61.200000000000003      50.999999999999993
    53   1      6.1200000000000045      63.240000000000002      48.959999999999994
    54   1      4.0799999999999983      61.200000000000003      53.040000000000006
    55   1      4.0799999999999983      63.240000000000002      55.079999999999998
    56   1      6.1200000000000045      61.200000000000003      55.079999999999998
    57   1      6.1200000000000045      63.240000000000002      53.040000000000006
    58   1      4.0799999999999983      61.200000000000003      57.120000000000005
    59   1      4.0799999999999983      63.240000000000002      59.159999999999997
    60   1      6.1200000000000045      61.200000000000003      59.159999999999997
    61   1      6.1200000000000045      63.240000000000002      57.120000000000005
    62   1      4.0799999999999983      61.200000000000003      61.200000000000003
    63   1      4.0799999999999983      63.240000000000002      63.240000000000002
    64   1      6.1200000000000045      61.200000000000003      63.240000000000002
    65   1      6.1200000000000045      63.240000000000002      61.200000000000003
    66   1      6.1200000000000045      63.240000000000002      65.280000000000001
    67   1      6.1200000000000045      65.280000000000001      50.999999999999993
    68   1      6.1200000000000045      65.280000000000001      55.079999999999998
    69   1      6.1200000000000045      65.280000000000001      59.159999999999997
    70   1      6.1200000000000045      65.280000000000001      63.240000000000002
    71   1      10.200000000000001      42.840000000000003      44.880000000000003
    72   1      10.200000000000001      42.840000000000003      48.959999999999994
    73   1      10.200000000000001      42.840000000000003      53.040000000000006
    74   1      10.200000000000001      42.840000000000003      57.120000000000005
    75   1      10.200000000000001      42.840000000000003      61.200000000000003
    76   1      10.200000000000001      42.840000000000003      65.280000000000001
    77   1      10.200000000000001      42.840000000000003      69.359999999999985
    78   1      10.200000000000001      44.880000000000003      42.840000000000003
    79   1      8.1600000000000019      46.920000000000002      46.920000000000002
    80   1      10.200000000000001      44.880000000000003      46.920000000000002
    81   1      10.200000000000001      46.920000000000002      44.880000000000003
    82   1      8.1600000000000019      46.920000000000002      50.999999999999993
    83   1      10.200000000000001      44.880000000000003      50.999999999999993
    84   1      10.200000000000001      46.920000000000002      48.959999999999994
    85   1      8.1600000000000019      46.920000000000002      55.079999999999998
    86   1      10.200000000000001      44.880000000000003      55.079999999999998
    87   1      10.200000000000001      46.920000000000002      53.040000000000006
    88   1      8.1600000000000019      46.920000000000002      59.159999999999997
    89   1      10.200000000000001      44.880000000000003      59.159999999999997
    90   1      10.200000000000001      46.920000000000002      57.120000000000005
    91   1      8.1600000000000019      46.920000000000002      63.240000000000002
    92   1      10.200000000000001      44.880000000000003      63.240000000000002
    93   1      10.200000000000001      46.920000000000002      61.200000000000003
    94   1      8.1600000000000019      46.920000000000002      67.319999999999993
    95   1      10.200000000000001      44.880000000000003      67.319999999999993
    96   1      10.200000000000001      46.920000000000002      65.280000000000001
    97   1      10.200000000000001      44.880000000000003      71.400000000000006
    98   1      10.200000000000001      46.920000000000002      69.359999999999985
    99   1      10.200000000000001      48.959999999999994      42.840000000000003
   100   1      8.1600000000000019      50.999999999999993      46.920000000000002
   101   1      10.200000000000001      48.959999999999994      46.920000000000002
   102   1      10.200000000000001      50.999999999999993      44.880000000000003
   103   1      8.1600000000000019      48.959999999999994      48.959999999999994
   104   1      8.1600000000000019      50.999999999999993      50.999999999999993
   105   1      10.200000000000001      48.959999999999994      50.999999999999993
   106   1      10.200000000000001      50.999999999999993      48.959999999999994
   107   1      8.1600000000000019      48.959999999999994      53.040000000000006
   108   1      8.1600000000000019      50.999999999999993      55.079999999999998
   109   1      10.200000000000001      48.959999999999994      55.079999999999998
   110   1      10.200000000000001      50.999999999999993      53.040000000000006
   111   1      8.1600000000000019      48.959999999999994      57.120000000000005
   112   1      8.1600000000000019      50.999999999999993      59.159999999999997
   113   1      10.200000000000001      48.959999999999994      59.159999999999997
   114   1      10.200000000000001      50.999999999999993      57.120000000000005
   115   1      8.1600000000000019      48.959999999999994      61.200000000000003
   116   1      8.1600000000000019      50.999999999999993      63.240000000000002
   117   1      10.200000000000001      48.959999999999994      63.240000000000002
   118   1      10.200000000000001      50.999999999999993      61.200000000000003
   119   1      8.1600000000000019      48.959999999999994      65.280000000000001
   120   1      8.1600000000000019      50.999999999999993      67.319999999999993
   121   1      10.200000000000001      48.959999999999994      67.319999999999993
   122   1      10.200000000000001      50.999999999999993      65.280000000000001
   123   1      10.200000000000001      48.959999999999994      71.400000000000006
   124   1      10.200000000000001      50.999999999999993      69.359999999999985
   125   1      10.200000000000001      53.040000000000006      42.840000000000003
   126   1      8.1600000000000019      55.079999999999998      46.920000000000002
   127   1      10.200000000000001      53.040000000000006      46.920000000000002
   128   1      10.200000000000001      55.079999999999998      44.880000000000003
   129   1      8.1600000000000019      53.040000000000006      48.959999999999994
   130   1      8.1600000000000019      55.079999999999998      50.999999999999993
   131   1      10.200000000000001      53.040000000000006      50.999999999999993
   132   1      10.200000000000001      55.079999999999998      48.959999999999994
   133   1      8.1600000000000019      53.040000000000006      53.040000000000006
   134   1      8.1600000000000019      55.079999999999998      55.079999999999998
   135   1      10.200000000000001      53.040000000000006      55.079999999999998
   136   1      10.200000000000001      55.079999999999998      53.040000000000006
   137   1      8.1600000000000019      53.040000000000006      57.120000000000005
   138   1      8.1600000000000019      55.079999999999998      59.159999999999997
   139   1      10.200000000000001      53.040000000000006      59.159999999999997
   140   1      10.200000000000001      55.079999999999998      57.120000000000005
   141   1      8.1600000000000019      53.040000000000006      61.200000000000003
   142   1      8.1600000000000019      55.079999999999998      63.240000000000002
   143   1      10.200000000000001      53.040000000000006      63.240000000000002
   144   1      10.200000000000001      55.079999999999998      61.200000000000003
   145   1      8.1600000000000019      53.040000000000006      65.280000000000001
   146   1      8.1600000000000019      55.079999999999998      67.319999999999993
   147   1      10.200000000000001      53.040000000000006      67.319999999999993
   148   1      10.200000000000001      55.079999999999998      65.280000000000001
   149   1      10.200000000000001      53.040000000000006      71.400000000000006
   150   1      10.200000000000001      55.079999999999998      69.359999999999985
   151   1      10.200000000000001      57.120000000000005      42.840000000000003
   152   1      8.1600000000000019      59.159999999999997      46.920000000000002
   153   1      10.200000000000001      57.120000000000005      46.920000000000002
   154   1      10.200000000000001      59.159999999999997      44.880000000000003
   155   1      8.1600000000000019      57.120000000000005      48.959999999999994
   156   1      8.1600000000000019      59.159999999999997      50.999999999999993
   157   1      10.200000000000001      57.120000000000005      50.999999999999993
   158   1      10.200000000000001      59.159999999999997      48.959999999999994
   159   1      8.1600000000000019      57.120000000000005      53.040000000000006
   160   1      8.1600000000000019      59.159999999999997      55.079999999999998
   161   1      10.200000000000001      57.120000000000005      55.079999999999998
   162   1      10.200000000000001      59.159999999999997      53.040000000000006
   163   1      8.1600000000000019      57.120000000000005      57.120000000000005
   164   1      8.1600000000000019      59.159999999999997      59.159999999999997
   165   1      10.200000000000001      57.120000000000005      59.159999999999997
   166   1      10.200000000000001      59.159999999999997      57.120000000000005
   167   1      8.1600000000000019      57.120000000000005      61.200000000000003
   168   1      8.1600000000000019      59.159999999999997      63.240000000000002
   169   1      10.200000000000001      57.120000000000005      63.240000000000002
   170   1      10.200000000000001      59.159999999999997      61.200000000000003
   171   1      8.1600000000000019      57.120000000000005      65.280000000000001
   172   1      8.1600000000000019      59.159999999999997      67.319999999999993
   173   1      10.200000000000001      57.120000000000005      67.319999999999993
   174   1      10.200000000000001      59.159999999999997      65.280000000000001
   175   1      10.200000000000001      57.120000000000005      71.400000000000006
   176   1      10.200000000000001      59.159999999999997      69.359999999999985
   177   1      10.200000000000001      61.200000000000003      42.840000000000003
   178   1      8.1600000000000019      63.240000000000002      46.920000000000002
   179   1      10.200000000000001      61.200000000000003      46.920000000000002
   180   1      10.200000000000001      63.240000000000002      44.880000000000003
   181   1      8.1600000000000019      61.200000000000003      48.959999999999994
   182   1      8.1600000000000019      63.240000000000002      50.999999999999993
   183   1      10.200000000000001      61.200000000000003      50.999999999999993
   184   1      10.200000000000001      63.240000000000002      48.959999999999994
   185   1      8.1600000000000019      61.200000000000003      53.040000000000006
   186   1      8.1600000000000019      63.240000000000002      55.079999999999998
   187   1      10.200000000000001      61.200000000000003      55.079999999999998
   188   1      10.200000000000001      63.240000000000002      53.040000000000006
   189   1      8.1600000000000019      61.200000000000003      57.120000000000005
   190   1      8.1600000000000019      63.240000000000002      59.159999999999997
   191   1      10.200000000000001      61.200000000000003      59.159999999999997
   192   1      10.200000000000001      63.240000000000002      57.120000000000005
   193   1      8.1600000000000019      61.200000000000003      61.200000000000003
   194   1      8.1600000000000019      63.240000000000002      63.240000000000002
   195   1      10.200000000000001      61.200000000000003      63.240000000000002
   196   1      10.200000000000001      63.240000000000002      61.200000000000003
   197   1      8.1600000000000019      61.200000000000003      65.280000000000001
   198   1      8.1600000000000019      63.240000000000002      67.319999999999993
   199   1      10.200000000000001      61.200000000000003      67.319999999999993
   200   1      10.200000000000001      63.240000000000002      65.280000000000001
   201   1      10.200000000000001      61.200000000000003      71.400000000000006
   202   1      10.200000000000001      63.240000000000002      69.359999999999985
   203   1      10.200000000000001      65.280000000000001      42.840000000000003
   204   1      8.1600000000000019      67.319999999999993      46.920000000000002
   205   1      10.200000000000001      65.280000000000001      46.920000000000002
   206   1      10.200000000000001      67.319999999999993      44.880000000000003
   207   1      8.1600000000000019      65.280000000000001      48.959999999999994
   208   1      8.1600000000000019      67.319999999999993      50.999999999999993
   209   1      10.200000000000001      65.280000000000001      50.999999999999993
   210   1      10.200000000000001      67.319999999999993      48.959999999999994
   211   1      8.1600000000000019      65.280000000000001      53.040000000000006
   212   1      8.1600000000000019      67.319999999999993      55.079999999999998
   213   1      10.200000000000001      65.280000000000001      55.079999999999998
   214   1      10.200000000000001      67.319999999999993      53.040000000000006
   215   1      8.1600000000000019      65.280000000000001      57.120000000000005
   216   1      8.1600000000000019      67.319999999999993      59.159999999999997
   217   1      10.200000000000001      65.280000000000001      59.159999999999997
   218   1      10.200000000000001      67.319999999999993      57.120000000000005
   219   1      8.1600000000000019      65.280000000000001      61.200000000000003
   220   1      8.1600000000000019      67.319999999999993      63.240000000000002
   221   1      10.200000000000001      65.280000000000001      63.240000000000002
   222   1      10.200000000000001      67.319999999999993      61.200000000000003
   223   1      8.1600000000000019      65.280000000000001      65.280000000000001
   224   1      8.1600000000000019      67.319999999999993      67.319999999999993
   225   1      10.200000000000001      65.280000000000001      67.319999999999993
   226   1      10.200000000000001      67.319999999999993      65.280000000000001
   227   1      10.200000000000001      65.280000000000001      71.400000000000006
   228   1      10.200000000000001      67.319999999999993      69.359999999999985
   229   1      10.200000000000001      69.359999999999985      42.840000000000003
   230   1      10.200000000000001      69.359999999999985      46.920000000000002
   231   1      10.200000000000001      71.400000000000006      44.880000000000003
   232   1      10.200000000000001      69.359999999999985      50.999999999999993
   233   1      10.200000000000001      71.400000000000006      48.959999999999994
   234   1      10.200000000000001      69.359999999999985      55.079999999999998
   235   1      10.200000000000001      71.400000000000006      53.040000000000006
   236   1      10.200000000000001      69.359999999999985      59.159999999999997
   237   1      10.200000000000001      71.400000000000006      57.120000000000005
   238   1      10.200000000000001      69.359999999999985      63.240000000000002
   239   1      10.200000000000001      71.400000000000006      61.200000000000003
   240   1      10.200000000000001      69.359999999999985      67.319999999999993
   241   1      10.200000000000001      71.400000000000006      65.280000000000001
   242   1      10.200000000000001      69.359999999999985      71.400000000000006
   243   1      10.200000000000001      71.400000000000006      69.359999999999985
   244   1      14.280000000000001      38.759999999999998      40.799999999999997
   245   1      14.280000000000001      38.759999999999998      44.880000000000003
   246   1      14.280000000000001      38.759999999999998      48.959999999999994
   247   1      14.280000000000001      38.759999999999998      53.040000000000006
   248   1      14.280000000000001      38.759999999999998      57.120000000000005
   249   1      14.280000000000001      38.759999999999998      61.200000000000003
   250   1      14.280000000000001      38.759999999999998      65.280000000000001
   251   1      14.280000000000001      38.759999999999998      69.359999999999985
   252   1      14.280000000000001      38.759999999999998      73.439999999999998
   253   1      14.280000000000001      40.799999999999997      38.759999999999998
   254   1                   12.24      40.799999999999997      40.799999999999997
   255   1                   12.24      42.840000000000003      42.840000000000003
   256   1      14.280000000000001      40.799999999999997      42.840000000000003
   257   1      14.280000000000001      42.840000000000003      40.799999999999997
   258   1                   12.24      40.799999999999997      44.880000000000003
   259   1                   12.24      42.840000000000003      46.920000000000002
   260   1      14.280000000000001      40.799999999999997      46.920000000000002
   261   1      14.280000000000001      42.840000000000003      44.880000000000003
   262   1                   12.24      40.799999999999997      48.959999999999994
   263   1                   12.24      42.840000000000003      50.999999999999993
   264   1      14.280000000000001      40.799999999999997      50.999999999999993
   265   1      14.280000000000001      42.840000000000003      48.959999999999994
   266   1                   12.24      40.799999999999997      53.040000000000006
   267   1                   12.24      42.840000000000003      55.079999999999998
   268   1      14.280000000000001      40.799999999999997      55.079999999999998
   269   1      14.280000000000001      42.840000000000003      53.040000000000006
   270   1                   12.24      40.799999999999997      57.120000000000005
   271   1                   12.24      42.840000000000003      59.159999999999997
   272   1      14.280000000000001      40.799999999999997      59.159999999999997
   273   1      14.280000000000001      42.840000000000003      57.120000000000005
   274   1                   12.24      40.799999999999997      61.200000000000003
   275   1                   12.24      42.840000000000003      63.240000000000002
   276   1      14.280000000000001      40.799999999999997      63.240000000000002
   277   1      14.280000000000001      42.840000000000003      61.200000000000003
   278   1                   12.24      40.799999999999997      65.280000000000001
   279   1                   12.24      42.840000000000003      67.319999999999993
   280   1      14.280000000000001      40.799999999999997      67.319999999999993
   281   1      14.280000000000001      42.840000000000003      65.280000000000001
   282   1                   12.24      40.799999999999997      69.359999999999985
   283   1                   12.24      42.840000000000003      71.400000000000006
   284   1      14.280000000000001      40.799999999999997      71.400000000000006
   285   1      14.280000000000001      42.840000000000003      69.359999999999985
   286   1                   12.24      40.799999999999997      73.439999999999998
   287   1      14.280000000000001      40.799999999999997      75.480000000000004
   288   1      14.280000000000001      42.840000000000003      73.439999999999998
   289   1      14.280000000000001      44.880000000000003      38.759999999999998
   290   1                   12.24      44.880000000000003      40.799999999999997
   291   1                   12.24      46.920000000000002      42.840000000000003
   292   1      14.280000000000001      44.880000000000003      42.840000000000003
   293   1      14.280000000000001      46.920000000000002      40.799999999999997
   294   1                   12.24      44.880000000000003      44.880000000000003
   295   1                   12.24      46.920000000000002      46.920000000000002
   296   1      14.280000000000001      44.880000000000003      46.920000000000002
   297   1      14.280000000000001      46.920000000000002      44.880000000000003
   298   1                   12.24      44.880000000000003      48.959999999999994
   299   1                   12.24      46.920000000000002      50.999999999999993
   300   1      14.280000000000001      44.880000000000003      50.999999999999993
   301   1      14.280000000000001      46.920000000000002      48.959999999999994
   302   1                   12.24      44.880000000000003      53.040000000000006
   303   1                   12.24      46.920000000000002      55.079999999999998
   304   1      14.280000000000001      44.880000000000003      55.079999999999998
   305   1      14.280000000000001      46.920000000000002      53.040000000000006
   306   1                   12.24      44.880000000000003      57.120000000000005
   307   1                   12.24      46.920000000000002      59.159999999999997
   308   1      14.280000000000001      44.880000000000003      59.159999999999997
   309   1      14.280000000000001      46.920000000000002      57.120000000000005
   310   1                   12.24      44.880000000000003      61.200000000000003
   311   1                   12.24      46.920000000000002      63.240000000000002
   312   1      14.280000000000001      44.880000000000003      63.240000000000002
   313   1      14.280000000000001      46.920000000000002      61.200000000000003
   314   1                   12.24      44.880000000000003      65.280000000000001
   315   1                   12.24      46.920000000000002      67.319999999999993
   316   1      14.280000000000001      44.880000000000003      67.319999999999993
   317   1      14.280000000000001      46.920000000000002      65.280000000000001
   318   1                   12.24      44.880000000000003      69.359999999999985
   319   1                   12.24      46.920000000000002      71.400000000000006
   320   1      14.280000000000001      44.880000000000003      71.400000000000006
   321   1      14.280000000000001      46.920000000000002      69.359999999999985
   322   1                   12.24      44.880000000000003      73.439999999999998
   323   1      14.280000000000001      44.880000000000003      75.480000000000004
   324   1      14.280000000000001      46.920000000000002      73.439999999999998
   325   1      14.280000000000001      48.959999999999994      38.759999999999998
   326   1                   12.24      48.959999999999994      40.799999999999997
   327   1                   12.24      50.999999999999993      42.840000000000003
   328   1      14.280000000000001      48.959999999999994      42.840000000000003
   329   1      14.280000000000001      50.999999999999993      40.799999999999997
   330   1                   12.24      48.959999999999994      44.880000000000003
   331   1                   12.24      50.999999999999993      46.920000000000002
   332   1      14.280000000000001      48.959999999999994      46.920000000000002
   333   1      14.280000000000001      50.999999999999993      44.880000000000003
   334   1                   12.24      48.959999999999994      48.959999999999994
   335   1                   12.24      50.999999999999993      50.999999999999993
   336   1      14.280000000000001      48.959999999999994      50.999999999999993
   337   1      14.280000000000001      50.999999999999993      48.959999999999994
   338   1                   12.24      48.959999999999994      53.040000000000006
   339   1                   12.24      50.999999999999993      55.079999999999998
   340   1      14.280000000000001      48.959999999999994      55.079999999999998
   341   1      14.280000000000001      50.999999999999993      53.040000000000006
   342   1                   12.24      48.959999999999994      57.120000000000005
   343   1                   12.24      50.999999999999993      59.159999999999997
   344   1      14.280000000000001      48.959999999999994      59.159999999999997
   345   1      14.280000000000001      50.999999999999993      57.120000000000005
   346   1                   12.24      48.959999999999994      61.200000000000003
   347   1                   12.24      50.999999999999993      63.240000000000002
   348   1      14.280000000000001      48.959999999999994      63.240000000000002
   349   1      14.280000000000001      50.999999999999993      61.200000000000003
   350   1                   12.24      48.959999999999994      65.280000000000001
   351   1                   12.24      50.999999999999993      67.319999999999993
   352   1      14.280000000000001      48.959999999999994      67.319999999999993
   353   1      14.280000000000001      50.999999999999993      65.280000000000001
   354   1                   12.24      48.959999999999994      69.359999999999985
   355   1                   12.24      50.999999999999993      71.400000000000006
   356   1      14.280000000000001      48.959999999999994      71.400000000000006
   357   1      14.280000000000001      50.999999999999993      69.359999999999985
   358   1                   12.24      48.959999999999994      73.439999999999998