model_files/PtFe/PtFe_30000/PtFe_411/PtFe_411_fcc_29957_temp.data (written by ASE) 

29957 	 atoms 
2  atom types
0.0                      90  xlo xhi
0.0                      90  ylo yhi
0.0                      90  zlo zhi


Atoms 

     1   1      1.8800000000000099      39.480000000000011      45.120000000000005
     2   1      1.8800000000000099      41.360000000000007      43.240000000000009
     3   1      1.8800000000000099      43.240000000000009      41.360000000000007
     4   1      1.8800000000000099      41.360000000000007      47.000000000000014
     5   1      1.8800000000000099      43.240000000000009      45.120000000000005
     6   1      1.8800000000000099      43.240000000000009       48.88000000000001
     7   1      1.8800000000000099      45.120000000000005      39.480000000000011
     8   1      1.8800000000000099      45.120000000000005      43.240000000000009
     9   1      1.8800000000000099      47.000000000000014      41.360000000000007
    10   1  7.1054273576010019e-15      45.120000000000005      45.120000000000005
    11   1      1.8800000000000099      45.120000000000005      47.000000000000014
    12   1      1.8800000000000099      47.000000000000014      45.120000000000005
    13   1      1.8800000000000099      45.120000000000005      50.760000000000012
    14   1      1.8800000000000099      47.000000000000014       48.88000000000001
    15   1      1.8800000000000099       48.88000000000001      43.240000000000009
    16   1      1.8800000000000099       48.88000000000001      47.000000000000014
    17   1      1.8800000000000099      50.760000000000012      45.120000000000005
    18   1      5.6400000000000086      24.440000000000008      45.120000000000005
    19   1      5.6400000000000086      26.320000000000011      43.240000000000009
    20   1      5.6400000000000086      28.200000000000006      41.360000000000007
    21   1      5.6400000000000086      26.320000000000011      47.000000000000014
    22   1      5.6400000000000086      28.200000000000006      45.120000000000005
    23   1      5.6400000000000086      28.200000000000006       48.88000000000001
    24   1      5.6400000000000086      30.080000000000009      39.480000000000011
    25   1      5.6400000000000086      31.960000000000008      37.600000000000016
    26   1      3.7600000000000056      31.960000000000008      43.240000000000009
    27   1      5.6400000000000086      30.080000000000009      43.240000000000009
    28   1      5.6400000000000086      31.960000000000008      41.360000000000007
    29   1      3.7600000000000056      30.080000000000009      45.120000000000005
    30   1      3.7600000000000056      31.960000000000008      47.000000000000014
    31   1      5.6400000000000086      30.080000000000009      47.000000000000014
    32   1      5.6400000000000086      31.960000000000008      45.120000000000005
    33   1      5.6400000000000086      30.080000000000009      50.760000000000012
    34   1      5.6400000000000086      31.960000000000008       48.88000000000001
    35   1      5.6400000000000086      31.960000000000008      52.640000000000015
    36   1      5.6400000000000086      33.840000000000003      35.720000000000006
    37   1      5.6400000000000086      35.720000000000006      33.840000000000003
    38   1      3.7600000000000056      35.720000000000006      39.480000000000011
    39   1      5.6400000000000086      33.840000000000003      39.480000000000011
    40   1      5.6400000000000086      35.720000000000006      37.600000000000016
    41   1      3.7600000000000056      33.840000000000003      41.360000000000007
    42   1      3.7600000000000056      35.720000000000006      43.240000000000009
    43   1      5.6400000000000086      33.840000000000003      43.240000000000009
    44   1      5.6400000000000086      35.720000000000006      41.360000000000007
    45   1      3.7600000000000056      33.840000000000003      45.120000000000005
    46   1      3.7600000000000056      35.720000000000006      47.000000000000014
    47   1      5.6400000000000086      33.840000000000003      47.000000000000014
    48   1      5.6400000000000086      35.720000000000006      45.120000000000005
    49   1      3.7600000000000056      33.840000000000003       48.88000000000001
    50   1      3.7600000000000056      35.720000000000006      50.760000000000012
    51   1      5.6400000000000086      33.840000000000003      50.760000000000012
    52   1      5.6400000000000086      35.720000000000006       48.88000000000001
    53   1      5.6400000000000086      33.840000000000003       54.52000000000001
    54   1      5.6400000000000086      35.720000000000006      52.640000000000015
    55   1      5.6400000000000086      35.720000000000006      56.400000000000006
    56   1      5.6400000000000086      37.600000000000016      31.960000000000008
    57   1      5.6400000000000086      39.480000000000011      30.080000000000009
    58   1      3.7600000000000056      39.480000000000011      35.720000000000006
    59   1      5.6400000000000086      37.600000000000016      35.720000000000006
    60   1      5.6400000000000086      39.480000000000011      33.840000000000003
    61   1      3.7600000000000056      37.600000000000016      37.600000000000016
    62   1      3.7600000000000056      39.480000000000011      39.480000000000011
    63   1      5.6400000000000086      37.600000000000016      39.480000000000011
    64   1      5.6400000000000086      39.480000000000011      37.600000000000016
    65   1      3.7600000000000056      37.600000000000016      41.360000000000007
    66   1      3.7600000000000056      39.480000000000011      43.240000000000009
    67   1      5.6400000000000086      37.600000000000016      43.240000000000009
    68   1      5.6400000000000086      39.480000000000011      41.360000000000007
    69   1      3.7600000000000056      37.600000000000016      45.120000000000005
    70   1      3.7600000000000056      39.480000000000011      47.000000000000014
    71   1      5.6400000000000086      37.600000000000016      47.000000000000014
    72   1      5.6400000000000086      39.480000000000011      45.120000000000005
    73   1      3.7600000000000056      37.600000000000016       48.88000000000001
    74   1      3.7600000000000056      39.480000000000011      50.760000000000012
    75   1      5.6400000000000086      37.600000000000016      50.760000000000012
    76   1      5.6400000000000086      39.480000000000011       48.88000000000001
    77   1      3.7600000000000056      37.600000000000016      52.640000000000015
    78   1      3.7600000000000056      39.480000000000011       54.52000000000001
    79   1      5.6400000000000086      37.600000000000016       54.52000000000001
    80   1      5.6400000000000086      39.480000000000011      52.640000000000015
    81   1      5.6400000000000086      37.600000000000016      58.280000000000008
    82   1      5.6400000000000086      39.480000000000011      56.400000000000006
    83   1      5.6400000000000086      39.480000000000011      60.160000000000004
    84   1      5.6400000000000086      41.360000000000007      28.200000000000006
    85   1      5.6400000000000086      43.240000000000009      26.320000000000011
    86   1      3.7600000000000056      43.240000000000009      31.960000000000008
    87   1      5.6400000000000086      41.360000000000007      31.960000000000008
    88   1      5.6400000000000086      43.240000000000009      30.080000000000009
    89   1      3.7600000000000056      41.360000000000007      33.840000000000003
    90   1      3.7600000000000056      43.240000000000009      35.720000000000006
    91   1      5.6400000000000086      41.360000000000007      35.720000000000006
    92   1      5.6400000000000086      43.240000000000009      33.840000000000003
    93   1      3.7600000000000056      41.360000000000007      37.600000000000016
    94   1      3.7600000000000056      43.240000000000009      39.480000000000011
    95   1      5.6400000000000086      41.360000000000007      39.480000000000011
    96   1      5.6400000000000086      43.240000000000009      37.600000000000016
    97   1      3.7600000000000056      41.360000000000007      41.360000000000007
    98   1      3.7600000000000056      43.240000000000009      43.240000000000009
    99   1      5.6400000000000086      41.360000000000007      43.240000000000009
   100   1      5.6400000000000086      43.240000000000009      41.360000000000007
   101   1      3.7600000000000056      41.360000000000007      45.120000000000005
   102   1      3.7600000000000056      43.240000000000009      47.000000000000014
   103   1      5.6400000000000086      41.360000000000007      47.000000000000014
   104   1      5.6400000000000086      43.240000000000009      45.120000000000005
   105   1      3.7600000000000056      41.360000000000007       48.88000000000001
   106   1      3.7600000000000056      43.240000000000009      50.760000000000012
   107   1      5.6400000000000086      41.360000000000007      50.760000000000012
   108   1      5.6400000000000086      43.240000000000009       48.88000000000001
   109   1      3.7600000000000056      41.360000000000007      52.640000000000015
   110   1      3.7600000000000056      43.240000000000009       54.52000000000001
   111   1      5.6400000000000086      41.360000000000007       54.52000000000001
   112   1      5.6400000000000086      43.240000000000009      52.640000000000015
   113   1      3.7600000000000056      41.360000000000007      56.400000000000006
   114   1      3.7600000000000056      43.240000000000009      58.280000000000008
   115   1      5.6400000000000086      41.360000000000007      58.280000000000008
   116   1      5.6400000000000086      43.240000000000009      56.400000000000006
   117   1      5.6400000000000086      41.360000000000007      62.040000000000013
   118   1      5.6400000000000086      43.240000000000009      60.160000000000004
   119   1      5.6400000000000086      43.240000000000009      63.920000000000009
   120   1      5.6400000000000086      45.120000000000005      24.440000000000008
   121   1      5.6400000000000086      45.120000000000005      28.200000000000006
   122   1      5.6400000000000086      47.000000000000014      26.320000000000011
   123   1      3.7600000000000056      45.120000000000005      30.080000000000009
   124   1      3.7600000000000056      47.000000000000014      31.960000000000008
   125   1      5.6400000000000086      45.120000000000005      31.960000000000008
   126   1      5.6400000000000086      47.000000000000014      30.080000000000009
   127   1      3.7600000000000056      45.120000000000005      33.840000000000003
   128   1      3.7600000000000056      47.000000000000014      35.720000000000006
   129   1      5.6400000000000086      45.120000000000005      35.720000000000006
   130   1      5.6400000000000086      47.000000000000014      33.840000000000003
   131   1      3.7600000000000056      45.120000000000005      37.600000000000016
   132   1      3.7600000000000056      47.000000000000014      39.480000000000011
   133   1      5.6400000000000086      45.120000000000005      39.480000000000011
   134   1      5.6400000000000086      47.000000000000014      37.600000000000016
   135   1      3.7600000000000056      45.120000000000005      41.360000000000007
   136   1      3.7600000000000056      47.000000000000014      43.240000000000009
   137   1      5.6400000000000086      45.120000000000005      43.240000000000009
   138   1      5.6400000000000086      47.000000000000014      41.360000000000007
   139   1      3.7600000000000056      45.120000000000005      45.120000000000005
   140   1      3.7600000000000056      47.000000000000014      47.000000000000014
   141   1      5.6400000000000086      45.120000000000005      47.000000000000014
   142   1      5.6400000000000086      47.000000000000014      45.120000000000005
   143   1      3.7600000000000056      45.120000000000005       48.88000000000001
   144   1      3.7600000000000056      47.000000000000014      50.760000000000012
   145   1      5.6400000000000086      45.120000000000005      50.760000000000012
   146   1      5.6400000000000086      47.000000000000014       48.88000000000001
   147   1      3.7600000000000056      45.120000000000005      52.640000000000015
   148   1      3.7600000000000056      47.000000000000014       54.52000000000001
   149   1      5.6400000000000086      45.120000000000005       54.52000000000001
   150   1      5.6400000000000086      47.000000000000014      52.640000000000015
   151   1      3.7600000000000056      45.120000000000005      56.400000000000006
   152   1      3.7600000000000056      47.000000000000014      58.280000000000008
   153   1      5.6400000000000086      45.120000000000005      58.280000000000008
   154   1      5.6400000000000086      47.000000000000014      56.400000000000006
   155   1      3.7600000000000056      45.120000000000005      60.160000000000004
   156   1      5.6400000000000086      45.120000000000005      62.040000000000013
   157   1      5.6400000000000086      47.000000000000014      60.160000000000004
   158   1      5.6400000000000086      45.120000000000005      65.799999999999997
   159   1      5.6400000000000086      47.000000000000014      63.920000000000009
   160   1      5.6400000000000086       48.88000000000001      28.200000000000006
   161   1      5.6400000000000086       48.88000000000001      31.960000000000008
   162   1      5.6400000000000086      50.760000000000012      30.080000000000009
   163   1      3.7600000000000056       48.88000000000001      33.840000000000003
   164   1      3.7600000000000056      50.760000000000012      35.720000000000006
   165   1      5.6400000000000086       48.88000000000001      35.720000000000006
   166   1      5.6400000000000086      50.760000000000012      33.840000000000003
   167   1      3.7600000000000056       48.88000000000001      37.600000000000016
   168   1      3.7600000000000056      50.760000000000012      39.480000000000011
   169   1      5.6400000000000086       48.88000000000001      39.480000000000011
   170   1      5.6400000000000086      50.760000000000012      37.600000000000016
   171   1      3.7600000000000056       48.88000000000001      41.360000000000007
   172   1      3.7600000000000056      50.760000000000012      43.240000000000009
   173   1      5.6400000000000086       48.88000000000001      43.240000000000009
   174   1      5.6400000000000086      50.760000000000012      41.360000000000007
   175   1      3.7600000000000056       48.88000000000001      45.120000000000005
   176   1      3.7600000000000056      50.760000000000012      47.000000000000014
   177   1      5.6400000000000086       48.88000000000001      47.000000000000014
   178   1      5.6400000000000086      50.760000000000012      45.120000000000005
   179   1      3.7600000000000056       48.88000000000001       48.88000000000001
   180   1      3.7600000000000056      50.760000000000012      50.760000000000012
   181   1      5.6400000000000086       48.88000000000001      50.760000000000012
   182   1      5.6400000000000086      50.760000000000012       48.88000000000001
   183   1      3.7600000000000056       48.88000000000001      52.640000000000015
   184   1      3.7600000000000056      50.760000000000012       54.52000000000001
   185   1      5.6400000000000086       48.88000000000001       54.52000000000001
   186   1      5.6400000000000086      50.760000000000012      52.640000000000015
   187   1      3.7600000000000056       48.88000000000001      56.400000000000006
   188   1      5.6400000000000086       48.88000000000001      58.280000000000008
   189   1      5.6400000000000086      50.760000000000012      56.400000000000006
   190   1      5.6400000000000086       48.88000000000001      62.040000000000013
   191   1      5.6400000000000086      50.760000000000012      60.160000000000004
   192   1      5.6400000000000086      52.640000000000015      31.960000000000008
   193   1      5.6400000000000086      52.640000000000015      35.720000000000006
   194   1      5.6400000000000086       54.52000000000001      33.840000000000003
   195   1      3.7600000000000056      52.640000000000015      37.600000000000016
   196   1      3.7600000000000056       54.52000000000001      39.480000000000011
   197   1      5.6400000000000086      52.640000000000015      39.480000000000011
   198   1      5.6400000000000086       54.52000000000001      37.600000000000016
   199   1      3.7600000000000056      52.640000000000015      41.360000000000007
   200   1      3.7600000000000056       54.52000000000001      43.240000000000009
   201   1      5.6400000000000086      52.640000000000015      43.240000000000009
   202   1      5.6400000000000086       54.52000000000001      41.360000000000007
   203   1      3.7600000000000056      52.640000000000015      45.120000000000005
   204   1      3.7600000000000056       54.52000000000001      47.000000000000014
   205   1      5.6400000000000086      52.640000000000015      47.000000000000014
   206   1      5.6400000000000086       54.52000000000001      45.120000000000005
   207   1      3.7600000000000056      52.640000000000015       48.88000000000001
   208   1      3.7600000000000056       54.52000000000001      50.760000000000012
   209   1      5.6400000000000086      52.640000000000015      50.760000000000012
   210   1      5.6400000000000086       54.52000000000001       48.88000000000001
   211   1      3.7600000000000056      52.640000000000015      52.640000000000015
   212   1      5.6400000000000086      52.640000000000015       54.52000000000001
   213   1      5.6400000000000086       54.52000000000001      52.640000000000015
   214   1      5.6400000000000086      52.640000000000015      58.280000000000008
   215   1      5.6400000000000086       54.52000000000001      56.400000000000006
   216   1      5.6400000000000086      56.400000000000006      35.720000000000006
   217   1      5.6400000000000086      56.400000000000006      39.480000000000011
   218   1      5.6400000000000086      58.280000000000008      37.600000000000016
   219   1      3.7600000000000056      56.400000000000006      41.360000000000007
   220   1      3.7600000000000056      58.280000000000008      43.240000000000009
   221   1      5.6400000000000086      56.400000000000006      43.240000000000009
   222   1      5.6400000000000086      58.280000000000008      41.360000000000007
   223   1      3.7600000000000056      56.400000000000006      45.120000000000005
   224   1      3.7600000000000056      58.280000000000008      47.000000000000014
   225   1      5.6400000000000086      56.400000000000006      47.000000000000014
   226   1      5.6400000000000086      58.280000000000008      45.120000000000005
   227   1      3.7600000000000056      56.400000000000006       48.88000000000001
   228   1      5.6400000000000086      56.400000000000006      50.760000000000012
   229   1      5.6400000000000086      58.280000000000008       48.88000000000001
   230   1      5.6400000000000086      56.400000000000006       54.52000000000001
   231   1      5.6400000000000086      58.280000000000008      52.640000000000015
   232   1      5.6400000000000086      60.160000000000004      39.480000000000011
   233   1      5.6400000000000086      60.160000000000004      43.240000000000009
   234   1      5.6400000000000086      62.040000000000013      41.360000000000007
   235   1      3.7600000000000056      60.160000000000004      45.120000000000005
   236   1      5.6400000000000086      60.160000000000004      47.000000000000014
   237   1      5.6400000000000086      62.040000000000013      45.120000000000005
   238   1      5.6400000000000086      60.160000000000004      50.760000000000012
   239   1      5.6400000000000086      62.040000000000013       48.88000000000001
   240   1      5.6400000000000086      63.920000000000009      43.240000000000009
   241   1      5.6400000000000086      63.920000000000009      47.000000000000014
   242   1      5.6400000000000086      65.799999999999997      45.120000000000005
   243   1      9.4000000000000057      9.4000000000000057      45.120000000000005
   244   1      9.4000000000000057       11.28000000000001      43.240000000000009
   245   1      9.4000000000000057      13.160000000000007      41.360000000000007
   246   1      9.4000000000000057       11.28000000000001      47.000000000000014
   247   1      9.4000000000000057      13.160000000000007      45.120000000000005
   248   1      9.4000000000000057      13.160000000000007       48.88000000000001
   249   1      9.4000000000000057      15.040000000000006      39.480000000000011
   250   1      9.4000000000000057      16.920000000000005      37.600000000000016
   251   1      7.5200000000000111      16.920000000000005      43.240000000000009
   252   1      9.4000000000000057      15.040000000000006      43.240000000000009
   253   1      9.4000000000000057      16.920000000000005      41.360000000000007
   254   1      7.5200000000000111      15.040000000000006      45.120000000000005
   255   1      7.5200000000000111      16.920000000000005      47.000000000000014
   256   1      9.4000000000000057      15.040000000000006      47.000000000000014
   257   1      9.4000000000000057      16.920000000000005      45.120000000000005
   258   1      9.4000000000000057      15.040000000000006      50.760000000000012
   259   1      9.4000000000000057      16.920000000000005       48.88000000000001
   260   1      9.4000000000000057      16.920000000000005      52.640000000000015
   261   1      9.4000000000000057      18.800000000000008      35.720000000000006
   262   1      9.4000000000000057      20.680000000000007      33.840000000000003
   263   1      7.5200000000000111      20.680000000000007      39.480000000000011
   264   1      9.4000000000000057      18.800000000000008      39.480000000000011
   265   1      9.4000000000000057      20.680000000000007      37.600000000000016
   266   1      7.5200000000000111      18.800000000000008      41.360000000000007
   267   1      7.5200000000000111      20.680000000000007      43.240000000000009
   268   1      9.4000000000000057      18.800000000000008      43.240000000000009
   269   1      9.4000000000000057      20.680000000000007      41.360000000000007
   270   1      7.5200000000000111      18.800000000000008      45.120000000000005
   271   1      7.5200000000000111      20.680000000000007      47.000000000000014
   272   1      9.4000000000000057      18.800000000000008      47.000000000000014
   273   1      9.4000000000000057      20.680000000000007      45.120000000000005
   274   1      7.5200000000000111      18.800000000000008       48.88000000000001
   275   1      7.5200000000000111      20.680000000000007      50.760000000000012
   276   1      9.4000000000000057      18.800000000000008      50.760000000000012
   277   1      9.4000000000000057      20.680000000000007       48.88000000000001
   278   1      9.4000000000000057      18.800000000000008       54.52000000000001
   279   1      9.4000000000000057      20.680000000000007      52.640000000000015
   280   1      9.4000000000000057      20.680000000000007      56.400000000000006
   281   1      9.4000000000000057      22.560000000000009      31.960000000000008
   282   1      9.4000000000000057      24.440000000000008      30.080000000000009
   283   1      7.5200000000000111      24.440000000000008      35.720000000000006
   284   1      9.4000000000000057      22.560000000000009      35.720000000000006
   285   1      9.4000000000000057      24.440000000000008      33.840000000000003
   286   1      7.5200000000000111      22.560000000000009      37.600000000000016
   287   1      7.5200000000000111      24.440000000000008      39.480000000000011
   288   1      9.4000000000000057      22.560000000000009      39.480000000000011
   289   1      9.4000000000000057      24.440000000000008      37.600000000000016
   290   1      7.5200000000000111      22.560000000000009      41.360000000000007
   291   1      7.5200000000000111      24.440000000000008      43.240000000000009
   292   1      9.4000000000000057      22.560000000000009      43.240000000000009
   293   1      9.4000000000000057      24.440000000000008      41.360000000000007
   294   1      7.5200000000000111      22.560000000000009      45.120000000000005
   295   1      7.5200000000000111      24.440000000000008      47.000000000000014
   296   1      9.4000000000000057      22.560000000000009      47.000000000000014
   297   1      9.4000000000000057      24.440000000000008      45.120000000000005
   298   1      7.5200000000000111      22.560000000000009       48.88000000000001
   299   1      7.5200000000000111      24.440000000000008      50.760000000000012
   300   1      9.4000000000000057      22.560000000000009      50.760000000000012
   301   1      9.4000000000000057      24.440000000000008       48.88000000000001
   302   1      7.5200000000000111      22.560000000000009      52.640000000000015
   303   1      7.5200000000000111      24.440000000000008       54.52000000000001
   304   1      9.4000000000000057      22.560000000000009       54.52000000000001
   305   1      9.4000000000000057      24.440000000000008      52.640000000000015
   306   1      9.4000000000000057      22.560000000000009      58.280000000000008
   307   1      9.4000000000000057      24.440000000000008      56.400000000000006
   308   1      9.4000000000000057      24.440000000000008      60.160000000000004
   309   1      9.4000000000000057      26.320000000000011      28.200000000000006
   310   1      9.4000000000000057      28.200000000000006      26.320000000000011
   311   1      7.5200000000000111      28.200000000000006      31.960000000000008
   312   1      9.4000000000000057      26.320000000000011      31.960000000000008
   313   1      9.4000000000000057      28.200000000000006      30.080000000000009
   314   1      7.5200000000000111      26.320000000000011      33.840000000000003
   315   1      7.5200000000000111      28.200000000000006      35.720000000000006
   316   1      9.4000000000000057      26.320000000000011      35.720000000000006
   317   1      9.4000000000000057      28.200000000000006      33.840000000000003
   318   1      7.5200000000000111      26.320000000000011      37.600000000000016
   319   1      7.5200000000000111      28.200000000000006      39.480000000000011
   320   1      9.4000000000000057      26.320000000000011      39.480000000000011
   321   1      9.4000000000000057      28.200000000000006      37.600000000000016
   322   1      7.5200000000000111      26.320000000000011      41.360000000000007
   323   1      7.5200000000000111      28.200000000000006      43.240000000000009
   324   1      9.4000000000000057      26.320000000000011      43.240000000000009
   325   1      9.4000000000000057      28.200000000000006      41.360000000000007
   326   1      7.5200000000000111      26.320000000000011      45.120000000000005
   327   1      7.5200000000000111      28.200000000000006      47.000000000000014
   328   1      9.4000000000000057      26.320000000000011      47.000000000000014
   329   1      9.4000000000000057      28.200000000000006      45.120000000000005
   330   1      7.5200000000000111      26.320000000000011       48.88000000000001
   331   1      7.5200000000000111      28.200000000000006      50.760000000000012
   332   1      9.4000000000000057      26.320000000000011      50.760000000000012
   333   1      9.4000000000000057      28.200000000000006       48.88000000000001
   334   1      7.5200000000000111      26.320000000000011      52.640000000000015
   335   1      7.5200000000000111      28.200000000000006       54.52000000000001
   336   1      9.4000000000000057      26.320000000000011       54.52000000000001
   337   1      9.4000000000000057      28.200000000000006      52.640000000000015
   338   1      7.5200000000000111      26.320000000000011      56.400000000000006
   339   1      7.5200000000000111      28.200000000000006      58.280000000000008
   340   1      9.4000000000000057      26.320000000000011      58.280000000000008
   341   1      9.4000000000000057      28.200000000000006      56.400000000000006
   342   1      9.4000000000000057      26.320000000000011      62.040000000000013
   343   1      9.4000000000000057      28.200000000000006      60.160000000000004
   344   1      9.4000000000000057      28.200000000000006      63.920000000000009
   345   1      9.4000000000000057      30.080000000000009      24.440000000000008
   346   1      9.4000000000000057      31.960000000000008      22.560000000000009
   347   1      7.5200000000000111      31.960000000000008      28.200000000000006
   348   1      9.4000000000000057      30.080000000000009      28.200000000000006
   349   1      9.4000000000000057      31.960000000000008      26.320000000000011
   350   1      7.5200000000000111      30.080000000000009      30.080000000000009
   351   1      7.5200000000000111      31.960000000000008      31.960000000000008
   352   1      9.4000000000000057      30.080000000000009      31.960000000000008
   353   1      9.4000000000000057      31.960000000000008      30.080000000000009
   354   1      7.5200000000000111      30.080000000000009      33.840000000000003
   355   1      7.5200000000000111      31.960000000000008      35.720000000000006
   356   1      9.4000000000000057      30.080000000000009      35.720000000000006
   357   1      9.4000000000000057      31.960000000000008      33.840000000000003
   358   1      7.5200000000000111      30.080000000000009      37.600000000000016