model_files/CuFeNi/CuFeNi_30000/CuFeNi_321/CuFeNi_321_fcc_29817_temp.data (written by ASE) 

29817 	 atoms 
3  atom types
0.0                     100  xlo xhi
0.0                     100  ylo yhi
0.0                     100  zlo zhi


Atoms 

     1   1      1.7899999999999991                   44.75      50.120000000000012
     2   1                       0      48.330000000000005      48.330000000000005
     3   1      1.7899999999999991      46.540000000000006      48.330000000000005
     4   1      1.7899999999999991      48.330000000000005      46.540000000000006
     5   1                       0      48.330000000000005      51.910000000000004
     6   1      1.7899999999999991      46.540000000000006      51.910000000000004
     7   1      1.7899999999999991      48.330000000000005      50.120000000000012
     8   1      1.7899999999999991      48.330000000000005      53.700000000000003
     9   1      1.7899999999999991      50.120000000000012                   44.75
    10   1                       0      51.910000000000004      48.330000000000005
    11   1      1.7899999999999991      50.120000000000012      48.330000000000005
    12   1      1.7899999999999991      51.910000000000004      46.540000000000006
    13   1                       0      50.120000000000012      50.120000000000012
    14   1                       0      51.910000000000004      51.910000000000004
    15   1      1.7899999999999991      50.120000000000012      51.910000000000004
    16   1      1.7899999999999991      51.910000000000004      50.120000000000012
    17   1      1.7899999999999991      50.120000000000012      55.490000000000009
    18   1      1.7899999999999991      51.910000000000004      53.700000000000003
    19   1      1.7899999999999991      53.700000000000003      48.330000000000005
    20   1      1.7899999999999991      53.700000000000003      51.910000000000004
    21   1      1.7899999999999991      55.490000000000009      50.120000000000012
    22   1      5.3700000000000045      41.170000000000002      46.540000000000006
    23   1      5.3700000000000045      41.170000000000002      50.120000000000012
    24   1      5.3700000000000045      41.170000000000002      53.700000000000003
    25   1      3.5799999999999983                   44.75                   44.75
    26   1      5.3700000000000045      42.960000000000001                   44.75
    27   1      5.3700000000000045                   44.75      42.960000000000001
    28   1      3.5799999999999983                   44.75      48.330000000000005
    29   1      5.3700000000000045      42.960000000000001      48.330000000000005
    30   1      5.3700000000000045                   44.75      46.540000000000006
    31   1      3.5799999999999983      42.960000000000001      50.120000000000012
    32   1      3.5799999999999983                   44.75      51.910000000000004
    33   1      5.3700000000000045      42.960000000000001      51.910000000000004
    34   1      5.3700000000000045                   44.75      50.120000000000012
    35   1      3.5799999999999983                   44.75      55.490000000000009
    36   1      5.3700000000000045      42.960000000000001      55.490000000000009
    37   1      5.3700000000000045                   44.75      53.700000000000003
    38   1      5.3700000000000045                   44.75      57.280000000000001
    39   1      5.3700000000000045      46.540000000000006      41.170000000000002
    40   1      3.5799999999999983      48.330000000000005                   44.75
    41   1      5.3700000000000045      46.540000000000006                   44.75
    42   1      5.3700000000000045      48.330000000000005      42.960000000000001
    43   1      3.5799999999999983      46.540000000000006      46.540000000000006
    44   1      3.5799999999999983      48.330000000000005      48.330000000000005
    45   1      5.3700000000000045      46.540000000000006      48.330000000000005
    46   1      5.3700000000000045      48.330000000000005      46.540000000000006
    47   1      3.5799999999999983      46.540000000000006      50.120000000000012
    48   1      3.5799999999999983      48.330000000000005      51.910000000000004
    49   1      5.3700000000000045      46.540000000000006      51.910000000000004
    50   1      5.3700000000000045      48.330000000000005      50.120000000000012
    51   1      3.5799999999999983      46.540000000000006      53.700000000000003
    52   1      3.5799999999999983      48.330000000000005      55.490000000000009
    53   1      5.3700000000000045      46.540000000000006      55.490000000000009
    54   1      5.3700000000000045      48.330000000000005      53.700000000000003
    55   1      5.3700000000000045      46.540000000000006                   59.07
    56   1      5.3700000000000045      48.330000000000005      57.280000000000001
    57   1      5.3700000000000045      50.120000000000012      41.170000000000002
    58   1      3.5799999999999983      50.120000000000012      42.960000000000001
    59   1      3.5799999999999983      51.910000000000004                   44.75
    60   1      5.3700000000000045      50.120000000000012                   44.75
    61   1      5.3700000000000045      51.910000000000004      42.960000000000001
    62   1      3.5799999999999983      50.120000000000012      46.540000000000006
    63   1      3.5799999999999983      51.910000000000004      48.330000000000005
    64   1      5.3700000000000045      50.120000000000012      48.330000000000005
    65   1      5.3700000000000045      51.910000000000004      46.540000000000006
    66   1      3.5799999999999983      50.120000000000012      50.120000000000012
    67   1      3.5799999999999983      51.910000000000004      51.910000000000004
    68   1      5.3700000000000045      50.120000000000012      51.910000000000004
    69   1      5.3700000000000045      51.910000000000004      50.120000000000012
    70   1      3.5799999999999983      50.120000000000012      53.700000000000003
    71   1      3.5799999999999983      51.910000000000004      55.490000000000009
    72   1      5.3700000000000045      50.120000000000012      55.490000000000009
    73   1      5.3700000000000045      51.910000000000004      53.700000000000003
    74   1      3.5799999999999983      50.120000000000012      57.280000000000001
    75   1      5.3700000000000045      50.120000000000012                   59.07
    76   1      5.3700000000000045      51.910000000000004      57.280000000000001
    77   1      5.3700000000000045      53.700000000000003      41.170000000000002
    78   1      3.5799999999999983      55.490000000000009                   44.75
    79   1      5.3700000000000045      53.700000000000003                   44.75
    80   1      5.3700000000000045      55.490000000000009      42.960000000000001
    81   1      3.5799999999999983      53.700000000000003      46.540000000000006
    82   1      3.5799999999999983      55.490000000000009      48.330000000000005
    83   1      5.3700000000000045      53.700000000000003      48.330000000000005
    84   1      5.3700000000000045      55.490000000000009      46.540000000000006
    85   1      3.5799999999999983      53.700000000000003      50.120000000000012
    86   1      3.5799999999999983      55.490000000000009      51.910000000000004
    87   1      5.3700000000000045      53.700000000000003      51.910000000000004
    88   1      5.3700000000000045      55.490000000000009      50.120000000000012
    89   1      3.5799999999999983      53.700000000000003      53.700000000000003
    90   1      3.5799999999999983      55.490000000000009      55.490000000000009
    91   1      5.3700000000000045      53.700000000000003      55.490000000000009
    92   1      5.3700000000000045      55.490000000000009      53.700000000000003
    93   1      5.3700000000000045      53.700000000000003                   59.07
    94   1      5.3700000000000045      55.490000000000009      57.280000000000001
    95   1      5.3700000000000045      57.280000000000001                   44.75
    96   1      5.3700000000000045      57.280000000000001      48.330000000000005
    97   1      5.3700000000000045                   59.07      46.540000000000006
    98   1      3.5799999999999983      57.280000000000001      50.120000000000012
    99   1      5.3700000000000045      57.280000000000001      51.910000000000004
   100   1      5.3700000000000045                   59.07      50.120000000000012
   101   1      5.3700000000000045      57.280000000000001      55.490000000000009
   102   1      5.3700000000000045                   59.07      53.700000000000003
   103   1      8.9500000000000028      34.009999999999998      50.120000000000012
   104   1      8.9500000000000028      37.590000000000003      42.960000000000001
   105   1      7.1600000000000037      37.590000000000003      48.330000000000005
   106   1      8.9500000000000028      35.800000000000004      48.330000000000005
   107   1      8.9500000000000028      37.590000000000003      46.540000000000006
   108   1      7.1600000000000037      37.590000000000003      51.910000000000004
   109   1      8.9500000000000028      35.800000000000004      51.910000000000004
   110   1      8.9500000000000028      37.590000000000003      50.120000000000012
   111   1      8.9500000000000028      37.590000000000003      53.700000000000003
   112   1      8.9500000000000028      37.590000000000003      57.280000000000001
   113   1      7.1600000000000037      41.170000000000002      41.170000000000002
   114   1      8.9500000000000028      39.380000000000003      41.170000000000002
   115   1      8.9500000000000028      41.170000000000002      39.380000000000003
   116   1      7.1600000000000037      41.170000000000002                   44.75
   117   1      8.9500000000000028      39.380000000000003                   44.75
   118   1      8.9500000000000028      41.170000000000002      42.960000000000001
   119   1      7.1600000000000037      39.380000000000003      46.540000000000006
   120   1      7.1600000000000037      41.170000000000002      48.330000000000005
   121   1      8.9500000000000028      39.380000000000003      48.330000000000005
   122   1      8.9500000000000028      41.170000000000002      46.540000000000006
   123   1      7.1600000000000037      39.380000000000003      50.120000000000012
   124   1      7.1600000000000037      41.170000000000002      51.910000000000004
   125   1      8.9500000000000028      39.380000000000003      51.910000000000004
   126   1      8.9500000000000028      41.170000000000002      50.120000000000012
   127   1      7.1600000000000037      39.380000000000003      53.700000000000003
   128   1      7.1600000000000037      41.170000000000002      55.490000000000009
   129   1      8.9500000000000028      39.380000000000003      55.490000000000009
   130   1      8.9500000000000028      41.170000000000002      53.700000000000003
   131   1      7.1600000000000037      41.170000000000002                   59.07
   132   1      8.9500000000000028      39.380000000000003                   59.07
   133   1      8.9500000000000028      41.170000000000002      57.280000000000001
   134   1      8.9500000000000028      41.170000000000002      60.859999999999999
   135   1      8.9500000000000028      42.960000000000001      37.590000000000003
   136   1      7.1600000000000037                   44.75      41.170000000000002
   137   1      8.9500000000000028      42.960000000000001      41.170000000000002
   138   1      8.9500000000000028                   44.75      39.380000000000003
   139   1      7.1600000000000037      42.960000000000001      42.960000000000001
   140   1      7.1600000000000037                   44.75                   44.75
   141   1      8.9500000000000028      42.960000000000001                   44.75
   142   1      8.9500000000000028                   44.75      42.960000000000001
   143   1      7.1600000000000037      42.960000000000001      46.540000000000006
   144   1      7.1600000000000037                   44.75      48.330000000000005
   145   1      8.9500000000000028      42.960000000000001      48.330000000000005
   146   1      8.9500000000000028                   44.75      46.540000000000006
   147   1      7.1600000000000037      42.960000000000001      50.120000000000012
   148   1      7.1600000000000037                   44.75      51.910000000000004
   149   1      8.9500000000000028      42.960000000000001      51.910000000000004
   150   1      8.9500000000000028                   44.75      50.120000000000012
   151   1      7.1600000000000037      42.960000000000001      53.700000000000003
   152   1      7.1600000000000037                   44.75      55.490000000000009
   153   1      8.9500000000000028      42.960000000000001      55.490000000000009
   154   1      8.9500000000000028                   44.75      53.700000000000003
   155   1      7.1600000000000037      42.960000000000001      57.280000000000001
   156   1      7.1600000000000037                   44.75                   59.07
   157   1      8.9500000000000028      42.960000000000001                   59.07
   158   1      8.9500000000000028                   44.75      57.280000000000001
   159   1      8.9500000000000028      42.960000000000001      62.650000000000006
   160   1      8.9500000000000028                   44.75      60.859999999999999
   161   1      7.1600000000000037      48.330000000000005      37.590000000000003
   162   1      8.9500000000000028      46.540000000000006      37.590000000000003
   163   1      8.9500000000000028      48.330000000000005      35.800000000000004
   164   1      7.1600000000000037      46.540000000000006      39.380000000000003
   165   1      7.1600000000000037      48.330000000000005      41.170000000000002
   166   1      8.9500000000000028      46.540000000000006      41.170000000000002
   167   1      8.9500000000000028      48.330000000000005      39.380000000000003
   168   1      7.1600000000000037      46.540000000000006      42.960000000000001
   169   1      7.1600000000000037      48.330000000000005                   44.75
   170   1      8.9500000000000028      46.540000000000006                   44.75
   171   1      8.9500000000000028      48.330000000000005      42.960000000000001
   172   1      7.1600000000000037      46.540000000000006      46.540000000000006
   173   1      7.1600000000000037      48.330000000000005      48.330000000000005
   174   1      8.9500000000000028      46.540000000000006      48.330000000000005
   175   1      8.9500000000000028      48.330000000000005      46.540000000000006
   176   1      7.1600000000000037      46.540000000000006      50.120000000000012
   177   1      7.1600000000000037      48.330000000000005      51.910000000000004
   178   1      8.9500000000000028      46.540000000000006      51.910000000000004
   179   1      8.9500000000000028      48.330000000000005      50.120000000000012
   180   1      7.1600000000000037      46.540000000000006      53.700000000000003
   181   1      7.1600000000000037      48.330000000000005      55.490000000000009
   182   1      8.9500000000000028      46.540000000000006      55.490000000000009
   183   1      8.9500000000000028      48.330000000000005      53.700000000000003
   184   1      7.1600000000000037      46.540000000000006      57.280000000000001
   185   1      7.1600000000000037      48.330000000000005                   59.07
   186   1      8.9500000000000028      46.540000000000006                   59.07
   187   1      8.9500000000000028      48.330000000000005      57.280000000000001
   188   1      7.1600000000000037      46.540000000000006      60.859999999999999
   189   1      7.1600000000000037      48.330000000000005      62.650000000000006
   190   1      8.9500000000000028      46.540000000000006      62.650000000000006
   191   1      8.9500000000000028      48.330000000000005      60.859999999999999
   192   1      8.9500000000000028      48.330000000000005      64.439999999999998
   193   1      8.9500000000000028      50.120000000000012      34.009999999999998
   194   1      7.1600000000000037      51.910000000000004      37.590000000000003
   195   1      8.9500000000000028      50.120000000000012      37.590000000000003
   196   1      8.9500000000000028      51.910000000000004      35.800000000000004
   197   1      7.1600000000000037      50.120000000000012      39.380000000000003
   198   1      7.1600000000000037      51.910000000000004      41.170000000000002
   199   1      8.9500000000000028      50.120000000000012      41.170000000000002
   200   1      8.9500000000000028      51.910000000000004      39.380000000000003
   201   1      7.1600000000000037      50.120000000000012      42.960000000000001
   202   1      7.1600000000000037      51.910000000000004                   44.75
   203   1      8.9500000000000028      50.120000000000012                   44.75
   204   1      8.9500000000000028      51.910000000000004      42.960000000000001
   205   1      7.1600000000000037      50.120000000000012      46.540000000000006
   206   1      7.1600000000000037      51.910000000000004      48.330000000000005
   207   1      8.9500000000000028      50.120000000000012      48.330000000000005
   208   1      8.9500000000000028      51.910000000000004      46.540000000000006
   209   1      7.1600000000000037      50.120000000000012      50.120000000000012
   210   1      7.1600000000000037      51.910000000000004      51.910000000000004
   211   1      8.9500000000000028      50.120000000000012      51.910000000000004
   212   1      8.9500000000000028      51.910000000000004      50.120000000000012
   213   1      7.1600000000000037      50.120000000000012      53.700000000000003
   214   1      7.1600000000000037      51.910000000000004      55.490000000000009
   215   1      8.9500000000000028      50.120000000000012      55.490000000000009
   216   1      8.9500000000000028      51.910000000000004      53.700000000000003
   217   1      7.1600000000000037      50.120000000000012      57.280000000000001
   218   1      7.1600000000000037      51.910000000000004                   59.07
   219   1      8.9500000000000028      50.120000000000012                   59.07
   220   1      8.9500000000000028      51.910000000000004      57.280000000000001
   221   1      7.1600000000000037      50.120000000000012      60.859999999999999
   222   1      7.1600000000000037      51.910000000000004      62.650000000000006
   223   1      8.9500000000000028      50.120000000000012      62.650000000000006
   224   1      8.9500000000000028      51.910000000000004      60.859999999999999
   225   1      8.9500000000000028      50.120000000000012      66.230000000000004
   226   1      8.9500000000000028      51.910000000000004      64.439999999999998
   227   1      8.9500000000000028      53.700000000000003      37.590000000000003
   228   1      7.1600000000000037      53.700000000000003      39.380000000000003
   229   1      7.1600000000000037      55.490000000000009      41.170000000000002
   230   1      8.9500000000000028      53.700000000000003      41.170000000000002
   231   1      8.9500000000000028      55.490000000000009      39.380000000000003
   232   1      7.1600000000000037      53.700000000000003      42.960000000000001
   233   1      7.1600000000000037      55.490000000000009                   44.75
   234   1      8.9500000000000028      53.700000000000003                   44.75
   235   1      8.9500000000000028      55.490000000000009      42.960000000000001
   236   1      7.1600000000000037      53.700000000000003      46.540000000000006
   237   1      7.1600000000000037      55.490000000000009      48.330000000000005
   238   1      8.9500000000000028      53.700000000000003      48.330000000000005
   239   1      8.9500000000000028      55.490000000000009      46.540000000000006
   240   1      7.1600000000000037      53.700000000000003      50.120000000000012
   241   1      7.1600000000000037      55.490000000000009      51.910000000000004
   242   1      8.9500000000000028      53.700000000000003      51.910000000000004
   243   1      8.9500000000000028      55.490000000000009      50.120000000000012
   244   1      7.1600000000000037      53.700000000000003      53.700000000000003
   245   1      7.1600000000000037      55.490000000000009      55.490000000000009
   246   1      8.9500000000000028      53.700000000000003      55.490000000000009
   247   1      8.9500000000000028      55.490000000000009      53.700000000000003
   248   1      7.1600000000000037      53.700000000000003      57.280000000000001
   249   1      7.1600000000000037      55.490000000000009                   59.07
   250   1      8.9500000000000028      53.700000000000003                   59.07
   251   1      8.9500000000000028      55.490000000000009      57.280000000000001
   252   1      7.1600000000000037      53.700000000000003      60.859999999999999
   253   1      8.9500000000000028      53.700000000000003      62.650000000000006
   254   1      8.9500000000000028      55.490000000000009      60.859999999999999
   255   1      8.9500000000000028      57.280000000000001      37.590000000000003
   256   1      7.1600000000000037                   59.07      41.170000000000002
   257   1      8.9500000000000028      57.280000000000001      41.170000000000002
   258   1      8.9500000000000028                   59.07      39.380000000000003
   259   1      7.1600000000000037      57.280000000000001      42.960000000000001
   260   1      7.1600000000000037                   59.07                   44.75
   261   1      8.9500000000000028      57.280000000000001                   44.75
   262   1      8.9500000000000028                   59.07      42.960000000000001
   263   1      7.1600000000000037      57.280000000000001      46.540000000000006
   264   1      7.1600000000000037                   59.07      48.330000000000005
   265   1      8.9500000000000028      57.280000000000001      48.330000000000005
   266   1      8.9500000000000028                   59.07      46.540000000000006
   267   1      7.1600000000000037      57.280000000000001      50.120000000000012
   268   1      7.1600000000000037                   59.07      51.910000000000004
   269   1      8.9500000000000028      57.280000000000001      51.910000000000004
   270   1      8.9500000000000028                   59.07      50.120000000000012
   271   1      7.1600000000000037      57.280000000000001      53.700000000000003
   272   1      7.1600000000000037                   59.07      55.490000000000009
   273   1      8.9500000000000028      57.280000000000001      55.490000000000009
   274   1      8.9500000000000028                   59.07      53.700000000000003
   275   1      7.1600000000000037      57.280000000000001      57.280000000000001
   276   1      7.1600000000000037                   59.07                   59.07
   277   1      8.9500000000000028      57.280000000000001                   59.07
   278   1      8.9500000000000028                   59.07      57.280000000000001
   279   1      8.9500000000000028      57.280000000000001      62.650000000000006
   280   1      8.9500000000000028                   59.07      60.859999999999999
   281   1      8.9500000000000028      60.859999999999999      41.170000000000002
   282   1      8.9500000000000028      60.859999999999999                   44.75
   283   1      8.9500000000000028      62.650000000000006      42.960000000000001
   284   1      7.1600000000000037      60.859999999999999      46.540000000000006
   285   1      7.1600000000000037      62.650000000000006      48.330000000000005
   286   1      8.9500000000000028      60.859999999999999      48.330000000000005
   287   1      8.9500000000000028      62.650000000000006      46.540000000000006
   288   1      7.1600000000000037      60.859999999999999      50.120000000000012
   289   1      7.1600000000000037      62.650000000000006      51.910000000000004
   290   1      8.9500000000000028      60.859999999999999      51.910000000000004
   291   1      8.9500000000000028      62.650000000000006      50.120000000000012
   292   1      7.1600000000000037      60.859999999999999      53.700000000000003
   293   1      8.9500000000000028      60.859999999999999      55.490000000000009
   294   1      8.9500000000000028      62.650000000000006      53.700000000000003
   295   1      8.9500000000000028      60.859999999999999                   59.07
   296   1      8.9500000000000028      62.650000000000006      57.280000000000001
   297   1      8.9500000000000028      64.439999999999998      48.330000000000005
   298   1      8.9500000000000028      64.439999999999998      51.910000000000004
   299   1      8.9500000000000028      66.230000000000004      50.120000000000012
   300   1      12.530000000000003                   30.43      46.540000000000006
   301   1      12.530000000000003                   30.43      50.120000000000012
   302   1      12.530000000000003                   30.43      53.700000000000003
   303   1      12.530000000000003      34.009999999999998      39.380000000000003
   304   1      10.740000000000002      34.009999999999998                   44.75
   305   1      12.530000000000003      32.219999999999999                   44.75
   306   1      12.530000000000003      34.009999999999998      42.960000000000001
   307   1      10.740000000000002      34.009999999999998      48.330000000000005
   308   1      12.530000000000003      32.219999999999999      48.330000000000005
   309   1      12.530000000000003      34.009999999999998      46.540000000000006
   310   1      10.740000000000002      32.219999999999999      50.120000000000012
   311   1      10.740000000000002      34.009999999999998      51.910000000000004
   312   1      12.530000000000003      32.219999999999999      51.910000000000004
   313   1      12.530000000000003      34.009999999999998      50.120000000000012
   314   1      10.740000000000002      34.009999999999998      55.490000000000009
   315   1      12.530000000000003      32.219999999999999      55.490000000000009
   316   1      12.530000000000003      34.009999999999998      53.700000000000003
   317   1      12.530000000000003      34.009999999999998      57.280000000000001
   318   1      12.530000000000003      34.009999999999998      60.859999999999999
   319   1      10.740000000000002      37.590000000000003      37.590000000000003
   320   1      12.530000000000003      35.800000000000004      37.590000000000003
   321   1      12.530000000000003      37.590000000000003      35.800000000000004
   322   1      10.740000000000002      37.590000000000003      41.170000000000002
   323   1      12.530000000000003      35.800000000000004      41.170000000000002
   324   1      12.530000000000003      37.590000000000003      39.380000000000003
   325   1      10.740000000000002      35.800000000000004      42.960000000000001
   326   1      10.740000000000002      37.590000000000003                   44.75
   327   1      12.530000000000003      35.800000000000004                   44.75
   328   1      12.530000000000003      37.590000000000003      42.960000000000001
   329   1      10.740000000000002      35.800000000000004      46.540000000000006
   330   1      10.740000000000002      37.590000000000003      48.330000000000005
   331   1      12.530000000000003      35.800000000000004      48.330000000000005
   332   1      12.530000000000003      37.590000000000003      46.540000000000006
   333   1      10.740000000000002      35.800000000000004      50.120000000000012
   334   1      10.740000000000002      37.590000000000003      51.910000000000004
   335   1      12.530000000000003      35.800000000000004      51.910000000000004
   336   1      12.530000000000003      37.590000000000003      50.120000000000012
   337   1      10.740000000000002      35.800000000000004      53.700000000000003
   338   1      10.740000000000002      37.590000000000003      55.490000000000009
   339   1      12.530000000000003      35.800000000000004      55.490000000000009
   340   1      12.530000000000003      37.590000000000003      53.700000000000003
   341   1      10.740000000000002      35.800000000000004      57.280000000000001
   342   1      10.740000000000002      37.590000000000003                   59.07
   343   1      12.530000000000003      35.800000000000004                   59.07
   344   1      12.530000000000003      37.590000000000003      57.280000000000001
   345   1      10.740000000000002      37.590000000000003      62.650000000000006
   346   1      12.530000000000003      35.800000000000004      62.650000000000006
   347   1      12.530000000000003      37.590000000000003      60.859999999999999
   348   1      12.530000000000003      37.590000000000003      64.439999999999998
   349   1      12.530000000000003      39.380000000000003      34.009999999999998
   350   1      10.740000000000002      41.170000000000002      37.590000000000003
   351   1      12.530000000000003      39.380000000000003      37.590000000000003
   352   1      12.530000000000003      41.170000000000002      35.800000000000004
   353   1      10.740000000000002      39.380000000000003      39.380000000000003
   354   1      10.740000000000002      41.170000000000002      41.170000000000002
   355   1      12.530000000000003      39.380000000000003      41.170000000000002
   356   1      12.530000000000003      41.170000000000002      39.380000000000003
   357   1      10.740000000000002      39.380000000000003      42.960000000000001
   358   1      10.740000000000002      41.170000000000002                   44.75