model_files/Pd/Pd_30000/Pd_541/data.Pd_541_fcc_30387 (written by ASE) 

30387 	 atoms 
1  atom types
0.0                     116  xlo xhi
0.0                     116  ylo yhi
0.0                     116  zlo zhi


Atoms 

     1   1      1.9450000000000001      56.405000000000001      58.350000000000001
     2   1      1.9450000000000001      58.350000000000001      56.405000000000001
     3   1                       0      58.350000000000001      58.350000000000001
     4   1      1.9450000000000001      58.350000000000001      60.294999999999995
     5   1      1.9450000000000001      60.294999999999995      58.350000000000001
     6   1      5.8350000000000009      52.515000000000001      54.460000000000001
     7   1      5.8350000000000009      52.515000000000001      58.350000000000001
     8   1      5.8350000000000009      52.515000000000001      62.239999999999988
     9   1      5.8350000000000009      54.460000000000001      52.515000000000001
    10   1      3.8900000000000001      54.460000000000001      54.460000000000001
    11   1      3.8900000000000001      56.405000000000001      56.405000000000001
    12   1      5.8350000000000009      54.460000000000001      56.405000000000001
    13   1      5.8350000000000009      56.405000000000001      54.460000000000001
    14   1      3.8900000000000001      54.460000000000001      58.350000000000001
    15   1      3.8900000000000001      56.405000000000001      60.294999999999995
    16   1      5.8350000000000009      54.460000000000001      60.294999999999995
    17   1      5.8350000000000009      56.405000000000001      58.350000000000001
    18   1      3.8900000000000001      54.460000000000001      62.239999999999988
    19   1      5.8350000000000009      54.460000000000001      64.184999999999988
    20   1      5.8350000000000009      56.405000000000001      62.239999999999988
    21   1      5.8350000000000009      58.350000000000001      52.515000000000001
    22   1      3.8900000000000001      58.350000000000001      54.460000000000001
    23   1      3.8900000000000001      60.294999999999995      56.405000000000001
    24   1      5.8350000000000009      58.350000000000001      56.405000000000001
    25   1      5.8350000000000009      60.294999999999995      54.460000000000001
    26   1      3.8900000000000001      58.350000000000001      58.350000000000001
    27   1      3.8900000000000001      60.294999999999995      60.294999999999995
    28   1      5.8350000000000009      58.350000000000001      60.294999999999995
    29   1      5.8350000000000009      60.294999999999995      58.350000000000001
    30   1      3.8900000000000001      58.350000000000001      62.239999999999988
    31   1      5.8350000000000009      58.350000000000001      64.184999999999988
    32   1      5.8350000000000009      60.294999999999995      62.239999999999988
    33   1      5.8350000000000009      62.239999999999988      52.515000000000001
    34   1      3.8900000000000001      62.239999999999988      54.460000000000001
    35   1      5.8350000000000009      62.239999999999988      56.405000000000001
    36   1      5.8350000000000009      64.184999999999988      54.460000000000001
    37   1      3.8900000000000001      62.239999999999988      58.350000000000001
    38   1      5.8350000000000009      62.239999999999988      60.294999999999995
    39   1      5.8350000000000009      64.184999999999988      58.350000000000001
    40   1      3.8900000000000001      62.239999999999988      62.239999999999988
    41   1      5.8350000000000009      62.239999999999988      64.184999999999988
    42   1      5.8350000000000009      64.184999999999988      62.239999999999988
    43   1      9.7250000000000014                  48.625                   50.57
    44   1      9.7250000000000014                   46.68      56.405000000000001
    45   1      9.7250000000000014                  48.625      54.460000000000001
    46   1      9.7250000000000014                   46.68      60.294999999999995
    47   1      9.7250000000000014                  48.625      58.350000000000001
    48   1      9.7250000000000014                  48.625      62.239999999999988
    49   1      9.7250000000000014                  48.625      66.129999999999995
    50   1      9.7250000000000014                   50.57                  48.625
    51   1      7.7800000000000002                   50.57                   50.57
    52   1      7.7800000000000002      52.515000000000001      52.515000000000001
    53   1      9.7250000000000014                   50.57      52.515000000000001
    54   1      9.7250000000000014      52.515000000000001                   50.57
    55   1      7.7800000000000002                   50.57      54.460000000000001
    56   1      7.7800000000000002      52.515000000000001      56.405000000000001
    57   1      9.7250000000000014                   50.57      56.405000000000001
    58   1      9.7250000000000014      52.515000000000001      54.460000000000001
    59   1      7.7800000000000002                   50.57      58.350000000000001
    60   1      7.7800000000000002      52.515000000000001      60.294999999999995
    61   1      9.7250000000000014                   50.57      60.294999999999995
    62   1      9.7250000000000014      52.515000000000001      58.350000000000001
    63   1      7.7800000000000002                   50.57      62.239999999999988
    64   1      7.7800000000000002      52.515000000000001      64.184999999999988
    65   1      9.7250000000000014                   50.57      64.184999999999988
    66   1      9.7250000000000014      52.515000000000001      62.239999999999988
    67   1      7.7800000000000002                   50.57      66.129999999999995
    68   1      9.7250000000000014                   50.57      68.074999999999989
    69   1      9.7250000000000014      52.515000000000001      66.129999999999995
    70   1      9.7250000000000014      54.460000000000001                  48.625
    71   1      9.7250000000000014      56.405000000000001                   46.68
    72   1      7.7800000000000002      54.460000000000001                   50.57
    73   1      7.7800000000000002      56.405000000000001      52.515000000000001
    74   1      9.7250000000000014      54.460000000000001      52.515000000000001
    75   1      9.7250000000000014      56.405000000000001                   50.57
    76   1      7.7800000000000002      54.460000000000001      54.460000000000001
    77   1      7.7800000000000002      56.405000000000001      56.405000000000001
    78   1      9.7250000000000014      54.460000000000001      56.405000000000001
    79   1      9.7250000000000014      56.405000000000001      54.460000000000001
    80   1      7.7800000000000002      54.460000000000001      58.350000000000001
    81   1      7.7800000000000002      56.405000000000001      60.294999999999995
    82   1      9.7250000000000014      54.460000000000001      60.294999999999995
    83   1      9.7250000000000014      56.405000000000001      58.350000000000001
    84   1      7.7800000000000002      54.460000000000001      62.239999999999988
    85   1      7.7800000000000002      56.405000000000001      64.184999999999988
    86   1      9.7250000000000014      54.460000000000001      64.184999999999988
    87   1      9.7250000000000014      56.405000000000001      62.239999999999988
    88   1      7.7800000000000002      54.460000000000001      66.129999999999995
    89   1      9.7250000000000014      54.460000000000001      68.074999999999989
    90   1      9.7250000000000014      56.405000000000001      66.129999999999995
    91   1      9.7250000000000014      56.405000000000001      70.019999999999996
    92   1      9.7250000000000014      58.350000000000001                  48.625
    93   1      9.7250000000000014      60.294999999999995                   46.68
    94   1      7.7800000000000002      58.350000000000001                   50.57
    95   1      7.7800000000000002      60.294999999999995      52.515000000000001
    96   1      9.7250000000000014      58.350000000000001      52.515000000000001
    97   1      9.7250000000000014      60.294999999999995                   50.57
    98   1      7.7800000000000002      58.350000000000001      54.460000000000001
    99   1      7.7800000000000002      60.294999999999995      56.405000000000001
   100   1      9.7250000000000014      58.350000000000001      56.405000000000001
   101   1      9.7250000000000014      60.294999999999995      54.460000000000001
   102   1      7.7800000000000002      58.350000000000001      58.350000000000001
   103   1      7.7800000000000002      60.294999999999995      60.294999999999995
   104   1      9.7250000000000014      58.350000000000001      60.294999999999995
   105   1      9.7250000000000014      60.294999999999995      58.350000000000001
   106   1      7.7800000000000002      58.350000000000001      62.239999999999988
   107   1      7.7800000000000002      60.294999999999995      64.184999999999988
   108   1      9.7250000000000014      58.350000000000001      64.184999999999988
   109   1      9.7250000000000014      60.294999999999995      62.239999999999988
   110   1      7.7800000000000002      58.350000000000001      66.129999999999995
   111   1      9.7250000000000014      58.350000000000001      68.074999999999989
   112   1      9.7250000000000014      60.294999999999995      66.129999999999995
   113   1      9.7250000000000014      60.294999999999995      70.019999999999996
   114   1      9.7250000000000014      62.239999999999988                  48.625
   115   1      7.7800000000000002      62.239999999999988                   50.57
   116   1      7.7800000000000002      64.184999999999988      52.515000000000001
   117   1      9.7250000000000014      62.239999999999988      52.515000000000001
   118   1      9.7250000000000014      64.184999999999988                   50.57
   119   1      7.7800000000000002      62.239999999999988      54.460000000000001
   120   1      7.7800000000000002      64.184999999999988      56.405000000000001
   121   1      9.7250000000000014      62.239999999999988      56.405000000000001
   122   1      9.7250000000000014      64.184999999999988      54.460000000000001
   123   1      7.7800000000000002      62.239999999999988      58.350000000000001
   124   1      7.7800000000000002      64.184999999999988      60.294999999999995
   125   1      9.7250000000000014      62.239999999999988      60.294999999999995
   126   1      9.7250000000000014      64.184999999999988      58.350000000000001
   127   1      7.7800000000000002      62.239999999999988      62.239999999999988
   128   1      7.7800000000000002      64.184999999999988      64.184999999999988
   129   1      9.7250000000000014      62.239999999999988      64.184999999999988
   130   1      9.7250000000000014      64.184999999999988      62.239999999999988
   131   1      7.7800000000000002      62.239999999999988      66.129999999999995
   132   1      9.7250000000000014      62.239999999999988      68.074999999999989
   133   1      9.7250000000000014      64.184999999999988      66.129999999999995
   134   1      9.7250000000000014      66.129999999999995                  48.625
   135   1      7.7800000000000002      66.129999999999995                   50.57
   136   1      9.7250000000000014      66.129999999999995      52.515000000000001
   137   1      9.7250000000000014      68.074999999999989                   50.57
   138   1      7.7800000000000002      66.129999999999995      54.460000000000001
   139   1      9.7250000000000014      66.129999999999995      56.405000000000001
   140   1      9.7250000000000014      68.074999999999989      54.460000000000001
   141   1      7.7800000000000002      66.129999999999995      58.350000000000001
   142   1      9.7250000000000014      66.129999999999995      60.294999999999995
   143   1      9.7250000000000014      68.074999999999989      58.350000000000001
   144   1      7.7800000000000002      66.129999999999995      62.239999999999988
   145   1      9.7250000000000014      66.129999999999995      64.184999999999988
   146   1      9.7250000000000014      68.074999999999989      62.239999999999988
   147   1      7.7800000000000002      66.129999999999995      66.129999999999995
   148   1      9.7250000000000014      66.129999999999995      68.074999999999989
   149   1      9.7250000000000014      68.074999999999989      66.129999999999995
   150   1      9.7250000000000014      70.019999999999996      56.405000000000001
   151   1      9.7250000000000014      70.019999999999996      60.294999999999995
   152   1      13.615000000000002      44.734999999999999                   46.68
   153   1      13.615000000000002      42.789999999999999      52.515000000000001
   154   1      13.615000000000002      44.734999999999999                   50.57
   155   1      11.670000000000002      44.734999999999999      56.405000000000001
   156   1      13.615000000000002      42.789999999999999      56.405000000000001
   157   1      13.615000000000002      44.734999999999999      54.460000000000001
   158   1      11.670000000000002      44.734999999999999      60.294999999999995
   159   1      13.615000000000002      42.789999999999999      60.294999999999995
   160   1      13.615000000000002      44.734999999999999      58.350000000000001
   161   1      13.615000000000002      42.789999999999999      64.184999999999988
   162   1      13.615000000000002      44.734999999999999      62.239999999999988
   163   1      13.615000000000002      44.734999999999999      66.129999999999995
   164   1      13.615000000000002      44.734999999999999      70.019999999999996
   165   1      13.615000000000002                   46.68      44.734999999999999
   166   1      11.670000000000002                   46.68                   46.68
   167   1      11.670000000000002                  48.625                  48.625
   168   1      13.615000000000002                   46.68                  48.625
   169   1      13.615000000000002                  48.625                   46.68
   170   1      11.670000000000002                   46.68                   50.57
   171   1      11.670000000000002                  48.625      52.515000000000001
   172   1      13.615000000000002                   46.68      52.515000000000001
   173   1      13.615000000000002                  48.625                   50.57
   174   1      11.670000000000002                   46.68      54.460000000000001
   175   1      11.670000000000002                  48.625      56.405000000000001
   176   1      13.615000000000002                   46.68      56.405000000000001
   177   1      13.615000000000002                  48.625      54.460000000000001
   178   1      11.670000000000002                   46.68      58.350000000000001
   179   1      11.670000000000002                  48.625      60.294999999999995
   180   1      13.615000000000002                   46.68      60.294999999999995
   181   1      13.615000000000002                  48.625      58.350000000000001
   182   1      11.670000000000002                   46.68      62.239999999999988
   183   1      11.670000000000002                  48.625      64.184999999999988
   184   1      13.615000000000002                   46.68      64.184999999999988
   185   1      13.615000000000002                  48.625      62.239999999999988
   186   1      11.670000000000002                   46.68      66.129999999999995
   187   1      11.670000000000002                  48.625      68.074999999999989
   188   1      13.615000000000002                   46.68      68.074999999999989
   189   1      13.615000000000002                  48.625      66.129999999999995
   190   1      11.670000000000002                   46.68      70.019999999999996
   191   1      13.615000000000002                   46.68      71.964999999999989
   192   1      13.615000000000002                  48.625      70.019999999999996
   193   1      13.615000000000002                   50.57      44.734999999999999
   194   1      13.615000000000002      52.515000000000001      42.789999999999999
   195   1      11.670000000000002                   50.57                   46.68
   196   1      11.670000000000002      52.515000000000001                  48.625
   197   1      13.615000000000002                   50.57                  48.625
   198   1      13.615000000000002      52.515000000000001                   46.68
   199   1      11.670000000000002                   50.57                   50.57
   200   1      11.670000000000002      52.515000000000001      52.515000000000001
   201   1      13.615000000000002                   50.57      52.515000000000001
   202   1      13.615000000000002      52.515000000000001                   50.57
   203   1      11.670000000000002                   50.57      54.460000000000001
   204   1      11.670000000000002      52.515000000000001      56.405000000000001
   205   1      13.615000000000002                   50.57      56.405000000000001
   206   1      13.615000000000002      52.515000000000001      54.460000000000001
   207   1      11.670000000000002                   50.57      58.350000000000001
   208   1      11.670000000000002      52.515000000000001      60.294999999999995
   209   1      13.615000000000002                   50.57      60.294999999999995
   210   1      13.615000000000002      52.515000000000001      58.350000000000001
   211   1      11.670000000000002                   50.57      62.239999999999988
   212   1      11.670000000000002      52.515000000000001      64.184999999999988
   213   1      13.615000000000002                   50.57      64.184999999999988
   214   1      13.615000000000002      52.515000000000001      62.239999999999988
   215   1      11.670000000000002                   50.57      66.129999999999995
   216   1      11.670000000000002      52.515000000000001      68.074999999999989
   217   1      13.615000000000002                   50.57      68.074999999999989
   218   1      13.615000000000002      52.515000000000001      66.129999999999995
   219   1      11.670000000000002                   50.57      70.019999999999996
   220   1      13.615000000000002                   50.57      71.964999999999989
   221   1      13.615000000000002      52.515000000000001      70.019999999999996
   222   1      13.615000000000002      52.515000000000001      73.909999999999997
   223   1      11.670000000000002      56.405000000000001      44.734999999999999
   224   1      13.615000000000002      54.460000000000001      44.734999999999999
   225   1      13.615000000000002      56.405000000000001      42.789999999999999
   226   1      11.670000000000002      54.460000000000001                   46.68
   227   1      11.670000000000002      56.405000000000001                  48.625
   228   1      13.615000000000002      54.460000000000001                  48.625
   229   1      13.615000000000002      56.405000000000001                   46.68
   230   1      11.670000000000002      54.460000000000001                   50.57
   231   1      11.670000000000002      56.405000000000001      52.515000000000001
   232   1      13.615000000000002      54.460000000000001      52.515000000000001
   233   1      13.615000000000002      56.405000000000001                   50.57
   234   1      11.670000000000002      54.460000000000001      54.460000000000001
   235   1      11.670000000000002      56.405000000000001      56.405000000000001
   236   1      13.615000000000002      54.460000000000001      56.405000000000001
   237   1      13.615000000000002      56.405000000000001      54.460000000000001
   238   1      11.670000000000002      54.460000000000001      58.350000000000001
   239   1      11.670000000000002      56.405000000000001      60.294999999999995
   240   1      13.615000000000002      54.460000000000001      60.294999999999995
   241   1      13.615000000000002      56.405000000000001      58.350000000000001
   242   1      11.670000000000002      54.460000000000001      62.239999999999988
   243   1      11.670000000000002      56.405000000000001      64.184999999999988
   244   1      13.615000000000002      54.460000000000001      64.184999999999988
   245   1      13.615000000000002      56.405000000000001      62.239999999999988
   246   1      11.670000000000002      54.460000000000001      66.129999999999995
   247   1      11.670000000000002      56.405000000000001      68.074999999999989
   248   1      13.615000000000002      54.460000000000001      68.074999999999989
   249   1      13.615000000000002      56.405000000000001      66.129999999999995
   250   1      11.670000000000002      54.460000000000001      70.019999999999996
   251   1      11.670000000000002      56.405000000000001      71.964999999999989
   252   1      13.615000000000002      54.460000000000001      71.964999999999989
   253   1      13.615000000000002      56.405000000000001      70.019999999999996
   254   1      13.615000000000002      56.405000000000001      73.909999999999997
   255   1      11.670000000000002      60.294999999999995      44.734999999999999
   256   1      13.615000000000002      58.350000000000001      44.734999999999999
   257   1      13.615000000000002      60.294999999999995      42.789999999999999
   258   1      11.670000000000002      58.350000000000001                   46.68
   259   1      11.670000000000002      60.294999999999995                  48.625
   260   1      13.615000000000002      58.350000000000001                  48.625
   261   1      13.615000000000002      60.294999999999995                   46.68
   262   1      11.670000000000002      58.350000000000001                   50.57
   263   1      11.670000000000002      60.294999999999995      52.515000000000001
   264   1      13.615000000000002      58.350000000000001      52.515000000000001
   265   1      13.615000000000002      60.294999999999995                   50.57
   266   1      11.670000000000002      58.350000000000001      54.460000000000001
   267   1      11.670000000000002      60.294999999999995      56.405000000000001
   268   1      13.615000000000002      58.350000000000001      56.405000000000001
   269   1      13.615000000000002      60.294999999999995      54.460000000000001
   270   1      11.670000000000002      58.350000000000001      58.350000000000001
   271   1      11.670000000000002      60.294999999999995      60.294999999999995
   272   1      13.615000000000002      58.350000000000001      60.294999999999995
   273   1      13.615000000000002      60.294999999999995      58.350000000000001
   274   1      11.670000000000002      58.350000000000001      62.239999999999988
   275   1      11.670000000000002      60.294999999999995      64.184999999999988
   276   1      13.615000000000002      58.350000000000001      64.184999999999988
   277   1      13.615000000000002      60.294999999999995      62.239999999999988
   278   1      11.670000000000002      58.350000000000001      66.129999999999995
   279   1      11.670000000000002      60.294999999999995      68.074999999999989
   280   1      13.615000000000002      58.350000000000001      68.074999999999989
   281   1      13.615000000000002      60.294999999999995      66.129999999999995
   282   1      11.670000000000002      58.350000000000001      70.019999999999996
   283   1      11.670000000000002      60.294999999999995      71.964999999999989
   284   1      13.615000000000002      58.350000000000001      71.964999999999989
   285   1      13.615000000000002      60.294999999999995      70.019999999999996
   286   1      13.615000000000002      60.294999999999995      73.909999999999997
   287   1      13.615000000000002      62.239999999999988      44.734999999999999
   288   1      13.615000000000002      64.184999999999988      42.789999999999999
   289   1      11.670000000000002      62.239999999999988                   46.68
   290   1      11.670000000000002      64.184999999999988                  48.625
   291   1      13.615000000000002      62.239999999999988                  48.625
   292   1      13.615000000000002      64.184999999999988                   46.68
   293   1      11.670000000000002      62.239999999999988                   50.57
   294   1      11.670000000000002      64.184999999999988      52.515000000000001
   295   1      13.615000000000002      62.239999999999988      52.515000000000001
   296   1      13.615000000000002      64.184999999999988                   50.57
   297   1      11.670000000000002      62.239999999999988      54.460000000000001
   298   1      11.670000000000002      64.184999999999988      56.405000000000001
   299   1      13.615000000000002      62.239999999999988      56.405000000000001
   300   1      13.615000000000002      64.184999999999988      54.460000000000001
   301   1      11.670000000000002      62.239999999999988      58.350000000000001
   302   1      11.670000000000002      64.184999999999988      60.294999999999995
   303   1      13.615000000000002      62.239999999999988      60.294999999999995
   304   1      13.615000000000002      64.184999999999988      58.350000000000001
   305   1      11.670000000000002      62.239999999999988      62.239999999999988
   306   1      11.670000000000002      64.184999999999988      64.184999999999988
   307   1      13.615000000000002      62.239999999999988      64.184999999999988
   308   1      13.615000000000002      64.184999999999988      62.239999999999988
   309   1      11.670000000000002      62.239999999999988      66.129999999999995
   310   1      11.670000000000002      64.184999999999988      68.074999999999989
   311   1      13.615000000000002      62.239999999999988      68.074999999999989
   312   1      13.615000000000002      64.184999999999988      66.129999999999995
   313   1      11.670000000000002      62.239999999999988      70.019999999999996
   314   1      13.615000000000002      62.239999999999988      71.964999999999989
   315   1      13.615000000000002      64.184999999999988      70.019999999999996
   316   1      13.615000000000002      64.184999999999988      73.909999999999997
   317   1      13.615000000000002      66.129999999999995      44.734999999999999
   318   1      11.670000000000002      66.129999999999995                   46.68
   319   1      11.670000000000002      68.074999999999989                  48.625
   320   1      13.615000000000002      66.129999999999995                  48.625
   321   1      13.615000000000002      68.074999999999989                   46.68
   322   1      11.670000000000002      66.129999999999995                   50.57
   323   1      11.670000000000002      68.074999999999989      52.515000000000001
   324   1      13.615000000000002      66.129999999999995      52.515000000000001
   325   1      13.615000000000002      68.074999999999989                   50.57
   326   1      11.670000000000002      66.129999999999995      54.460000000000001
   327   1      11.670000000000002      68.074999999999989      56.405000000000001
   328   1      13.615000000000002      66.129999999999995      56.405000000000001
   329   1      13.615000000000002      68.074999999999989      54.460000000000001
   330   1      11.670000000000002      66.129999999999995      58.350000000000001
   331   1      11.670000000000002      68.074999999999989      60.294999999999995
   332   1      13.615000000000002      66.129999999999995      60.294999999999995
   333   1      13.615000000000002      68.074999999999989      58.350000000000001
   334   1      11.670000000000002      66.129999999999995      62.239999999999988
   335   1      11.670000000000002      68.074999999999989      64.184999999999988
   336   1      13.615000000000002      66.129999999999995      64.184999999999988
   337   1      13.615000000000002      68.074999999999989      62.239999999999988
   338   1      11.670000000000002      66.129999999999995      66.129999999999995
   339   1      11.670000000000002      68.074999999999989      68.074999999999989
   340   1      13.615000000000002      66.129999999999995      68.074999999999989
   341   1      13.615000000000002      68.074999999999989      66.129999999999995
   342   1      11.670000000000002      66.129999999999995      70.019999999999996
   343   1      13.615000000000002      66.129999999999995      71.964999999999989
   344   1      13.615000000000002      68.074999999999989      70.019999999999996
   345   1      13.615000000000002      70.019999999999996      44.734999999999999
   346   1      11.670000000000002      70.019999999999996                   46.68
   347   1      13.615000000000002      70.019999999999996                  48.625
   348   1      13.615000000000002      71.964999999999989                   46.68
   349   1      11.670000000000002      70.019999999999996                   50.57
   350   1      13.615000000000002      70.019999999999996      52.515000000000001
   351   1      13.615000000000002      71.964999999999989                   50.57
   352   1      11.670000000000002      70.019999999999996      54.460000000000001
   353   1      11.670000000000002      71.964999999999989      56.405000000000001
   354   1      13.615000000000002      70.019999999999996      56.405000000000001
   355   1      13.615000000000002      71.964999999999989      54.460000000000001
   356   1      11.670000000000002      70.019999999999996      58.350000000000001
   357   1      11.670000000000002      71.964999999999989      60.294999999999995
   358   1      13.615000000000002      70.019999999999996      60.294999999999995