model_files/PdCu/PdCu_30000/PdCu_421/PdCu_421_fcc_30423_temp.data (written by ASE) 

30423 	 atoms 
2  atom types
0.0                      98  xlo xhi
0.0                      98  ylo yhi
0.0                      98  zlo zhi


Atoms 

     1   1      1.8874999999999955      43.412499999999987       45.29999999999999
     2   1      1.8874999999999955      43.412499999999987      49.074999999999989
     3   1      1.8874999999999955      43.412499999999987      52.849999999999987
     4   1      1.8874999999999955       45.29999999999999      43.412499999999987
     5   1      97.999999999999986      47.187499999999986      47.187499999999986
     6   1      1.8874999999999955       45.29999999999999      47.187499999999986
     7   1      1.8874999999999955      47.187499999999986       45.29999999999999
     8   1      97.999999999999986       45.29999999999999      49.074999999999989
     9   1      97.999999999999986      47.187499999999986      50.962499999999999
    10   1      1.8874999999999955       45.29999999999999      50.962499999999999
    11   1      1.8874999999999955      47.187499999999986      49.074999999999989
    12   1      1.8874999999999955       45.29999999999999      54.737499999999997
    13   1      1.8874999999999955      47.187499999999986      52.849999999999987
    14   1      1.8874999999999955      49.074999999999989      43.412499999999987
    15   1      97.999999999999986      49.074999999999989       45.29999999999999
    16   1      97.999999999999986      50.962499999999999      47.187499999999986
    17   1      1.8874999999999955      49.074999999999989      47.187499999999986
    18   1      1.8874999999999955      50.962499999999999       45.29999999999999
    19   1      97.999999999999986      49.074999999999989      49.074999999999989
    20   1      97.999999999999986      50.962499999999999      50.962499999999999
    21   1      1.8874999999999955      49.074999999999989      50.962499999999999
    22   1      1.8874999999999955      50.962499999999999      49.074999999999989
    23   1      97.999999999999986      49.074999999999989      52.849999999999987
    24   1      1.8874999999999955      49.074999999999989      54.737499999999997
    25   1      1.8874999999999955      50.962499999999999      52.849999999999987
    26   1      1.8874999999999955      52.849999999999987      43.412499999999987
    27   1      1.8874999999999955      52.849999999999987      47.187499999999986
    28   1      1.8874999999999955      54.737499999999997       45.29999999999999
    29   1      97.999999999999986      52.849999999999987      49.074999999999989
    30   1      1.8874999999999955      52.849999999999987      50.962499999999999
    31   1      1.8874999999999955      54.737499999999997      49.074999999999989
    32   1      1.8874999999999955      52.849999999999987      54.737499999999997
    33   1      1.8874999999999955      54.737499999999997      52.849999999999987
    34   1      5.6624999999999934      35.862499999999997       45.29999999999999
    35   1      5.6624999999999934      35.862499999999997      49.074999999999989
    36   1      5.6624999999999934      35.862499999999997      52.849999999999987
    37   1      5.6624999999999934      37.749999999999993      43.412499999999987
    38   1      5.6624999999999934      39.637499999999996      41.524999999999991
    39   1       3.774999999999991      39.637499999999996      47.187499999999986
    40   1      5.6624999999999934      37.749999999999993      47.187499999999986
    41   1      5.6624999999999934      39.637499999999996       45.29999999999999
    42   1       3.774999999999991      37.749999999999993      49.074999999999989
    43   1       3.774999999999991      39.637499999999996      50.962499999999999
    44   1      5.6624999999999934      37.749999999999993      50.962499999999999
    45   1      5.6624999999999934      39.637499999999996      49.074999999999989
    46   1      5.6624999999999934      37.749999999999993      54.737499999999997
    47   1      5.6624999999999934      39.637499999999996      52.849999999999987
    48   1      5.6624999999999934      39.637499999999996      56.624999999999986
    49   1      5.6624999999999934      41.524999999999991      39.637499999999996
    50   1      5.6624999999999934      43.412499999999987      37.749999999999993
    51   1       3.774999999999991      41.524999999999991      41.524999999999991
    52   1       3.774999999999991      43.412499999999987      43.412499999999987
    53   1      5.6624999999999934      41.524999999999991      43.412499999999987
    54   1      5.6624999999999934      43.412499999999987      41.524999999999991
    55   1       3.774999999999991      41.524999999999991       45.29999999999999
    56   1       3.774999999999991      43.412499999999987      47.187499999999986
    57   1      5.6624999999999934      41.524999999999991      47.187499999999986
    58   1      5.6624999999999934      43.412499999999987       45.29999999999999
    59   1       3.774999999999991      41.524999999999991      49.074999999999989
    60   1       3.774999999999991      43.412499999999987      50.962499999999999
    61   1      5.6624999999999934      41.524999999999991      50.962499999999999
    62   1      5.6624999999999934      43.412499999999987      49.074999999999989
    63   1       3.774999999999991      41.524999999999991      52.849999999999987
    64   1       3.774999999999991      43.412499999999987      54.737499999999997
    65   1      5.6624999999999934      41.524999999999991      54.737499999999997
    66   1      5.6624999999999934      43.412499999999987      52.849999999999987
    67   1       3.774999999999991      41.524999999999991      56.624999999999986
    68   1      5.6624999999999934      41.524999999999991      58.512499999999996
    69   1      5.6624999999999934      43.412499999999987      56.624999999999986
    70   1      5.6624999999999934      43.412499999999987      60.399999999999984
    71   1      5.6624999999999934       45.29999999999999      35.862499999999997
    72   1       3.774999999999991      47.187499999999986      39.637499999999996
    73   1      5.6624999999999934       45.29999999999999      39.637499999999996
    74   1      5.6624999999999934      47.187499999999986      37.749999999999993
    75   1       3.774999999999991       45.29999999999999      41.524999999999991
    76   1       3.774999999999991      47.187499999999986      43.412499999999987
    77   1      5.6624999999999934       45.29999999999999      43.412499999999987
    78   1      5.6624999999999934      47.187499999999986      41.524999999999991
    79   1       3.774999999999991       45.29999999999999       45.29999999999999
    80   1       3.774999999999991      47.187499999999986      47.187499999999986
    81   1      5.6624999999999934       45.29999999999999      47.187499999999986
    82   1      5.6624999999999934      47.187499999999986       45.29999999999999
    83   1       3.774999999999991       45.29999999999999      49.074999999999989
    84   1       3.774999999999991      47.187499999999986      50.962499999999999
    85   1      5.6624999999999934       45.29999999999999      50.962499999999999
    86   1      5.6624999999999934      47.187499999999986      49.074999999999989
    87   1       3.774999999999991       45.29999999999999      52.849999999999987
    88   1       3.774999999999991      47.187499999999986      54.737499999999997
    89   1      5.6624999999999934       45.29999999999999      54.737499999999997
    90   1      5.6624999999999934      47.187499999999986      52.849999999999987
    91   1       3.774999999999991       45.29999999999999      56.624999999999986
    92   1       3.774999999999991      47.187499999999986      58.512499999999996
    93   1      5.6624999999999934       45.29999999999999      58.512499999999996
    94   1      5.6624999999999934      47.187499999999986      56.624999999999986
    95   1      5.6624999999999934       45.29999999999999      62.287499999999994
    96   1      5.6624999999999934      47.187499999999986      60.399999999999984
    97   1      5.6624999999999934      49.074999999999989      35.862499999999997
    98   1       3.774999999999991      49.074999999999989      37.749999999999993
    99   1       3.774999999999991      50.962499999999999      39.637499999999996
   100   1      5.6624999999999934      49.074999999999989      39.637499999999996
   101   1      5.6624999999999934      50.962499999999999      37.749999999999993
   102   1       3.774999999999991      49.074999999999989      41.524999999999991
   103   1       3.774999999999991      50.962499999999999      43.412499999999987
   104   1      5.6624999999999934      49.074999999999989      43.412499999999987
   105   1      5.6624999999999934      50.962499999999999      41.524999999999991
   106   1       3.774999999999991      49.074999999999989       45.29999999999999
   107   1       3.774999999999991      50.962499999999999      47.187499999999986
   108   1      5.6624999999999934      49.074999999999989      47.187499999999986
   109   1      5.6624999999999934      50.962499999999999       45.29999999999999
   110   1       3.774999999999991      49.074999999999989      49.074999999999989
   111   1       3.774999999999991      50.962499999999999      50.962499999999999
   112   1      5.6624999999999934      49.074999999999989      50.962499999999999
   113   1      5.6624999999999934      50.962499999999999      49.074999999999989
   114   1       3.774999999999991      49.074999999999989      52.849999999999987
   115   1       3.774999999999991      50.962499999999999      54.737499999999997
   116   1      5.6624999999999934      49.074999999999989      54.737499999999997
   117   1      5.6624999999999934      50.962499999999999      52.849999999999987
   118   1       3.774999999999991      49.074999999999989      56.624999999999986
   119   1       3.774999999999991      50.962499999999999      58.512499999999996
   120   1      5.6624999999999934      49.074999999999989      58.512499999999996
   121   1      5.6624999999999934      50.962499999999999      56.624999999999986
   122   1       3.774999999999991      49.074999999999989      60.399999999999984
   123   1      5.6624999999999934      49.074999999999989      62.287499999999994
   124   1      5.6624999999999934      50.962499999999999      60.399999999999984
   125   1      5.6624999999999934      52.849999999999987      35.862499999999997
   126   1      5.6624999999999934      52.849999999999987      39.637499999999996
   127   1      5.6624999999999934      54.737499999999997      37.749999999999993
   128   1       3.774999999999991      52.849999999999987      41.524999999999991
   129   1       3.774999999999991      54.737499999999997      43.412499999999987
   130   1      5.6624999999999934      52.849999999999987      43.412499999999987
   131   1      5.6624999999999934      54.737499999999997      41.524999999999991
   132   1       3.774999999999991      52.849999999999987       45.29999999999999
   133   1       3.774999999999991      54.737499999999997      47.187499999999986
   134   1      5.6624999999999934      52.849999999999987      47.187499999999986
   135   1      5.6624999999999934      54.737499999999997       45.29999999999999
   136   1       3.774999999999991      52.849999999999987      49.074999999999989
   137   1       3.774999999999991      54.737499999999997      50.962499999999999
   138   1      5.6624999999999934      52.849999999999987      50.962499999999999
   139   1      5.6624999999999934      54.737499999999997      49.074999999999989
   140   1       3.774999999999991      52.849999999999987      52.849999999999987
   141   1       3.774999999999991      54.737499999999997      54.737499999999997
   142   1      5.6624999999999934      52.849999999999987      54.737499999999997
   143   1      5.6624999999999934      54.737499999999997      52.849999999999987
   144   1       3.774999999999991      52.849999999999987      56.624999999999986
   145   1      5.6624999999999934      52.849999999999987      58.512499999999996
   146   1      5.6624999999999934      54.737499999999997      56.624999999999986
   147   1      5.6624999999999934      52.849999999999987      62.287499999999994
   148   1      5.6624999999999934      54.737499999999997      60.399999999999984
   149   1      5.6624999999999934      56.624999999999986      39.637499999999996
   150   1       3.774999999999991      56.624999999999986      41.524999999999991
   151   1      5.6624999999999934      56.624999999999986      43.412499999999987
   152   1      5.6624999999999934      58.512499999999996      41.524999999999991
   153   1       3.774999999999991      56.624999999999986       45.29999999999999
   154   1       3.774999999999991      58.512499999999996      47.187499999999986
   155   1      5.6624999999999934      56.624999999999986      47.187499999999986
   156   1      5.6624999999999934      58.512499999999996       45.29999999999999
   157   1       3.774999999999991      56.624999999999986      49.074999999999989
   158   1       3.774999999999991      58.512499999999996      50.962499999999999
   159   1      5.6624999999999934      56.624999999999986      50.962499999999999
   160   1      5.6624999999999934      58.512499999999996      49.074999999999989
   161   1       3.774999999999991      56.624999999999986      52.849999999999987
   162   1      5.6624999999999934      56.624999999999986      54.737499999999997
   163   1      5.6624999999999934      58.512499999999996      52.849999999999987
   164   1       3.774999999999991      56.624999999999986      56.624999999999986
   165   1      5.6624999999999934      56.624999999999986      58.512499999999996
   166   1      5.6624999999999934      58.512499999999996      56.624999999999986
   167   1      5.6624999999999934      60.399999999999984      43.412499999999987
   168   1      5.6624999999999934      60.399999999999984      47.187499999999986
   169   1      5.6624999999999934      62.287499999999994       45.29999999999999
   170   1       3.774999999999991      60.399999999999984      49.074999999999989
   171   1      5.6624999999999934      60.399999999999984      50.962499999999999
   172   1      5.6624999999999934      62.287499999999994      49.074999999999989
   173   1      5.6624999999999934      60.399999999999984      54.737499999999997
   174   1      5.6624999999999934      62.287499999999994      52.849999999999987
   175   1      9.4374999999999929      28.312499999999993       45.29999999999999
   176   1      9.4374999999999929      28.312499999999993      49.074999999999989
   177   1      9.4374999999999929      28.312499999999993      52.849999999999987
   178   1      9.4374999999999929      32.087499999999999      37.749999999999993
   179   1      9.4374999999999929      30.199999999999992      43.412499999999987
   180   1      9.4374999999999929      32.087499999999999      41.524999999999991
   181   1      7.5499999999999901      32.087499999999999      47.187499999999986
   182   1      9.4374999999999929      30.199999999999992      47.187499999999986
   183   1      9.4374999999999929      32.087499999999999       45.29999999999999
   184   1      7.5499999999999901      30.199999999999992      49.074999999999989
   185   1      7.5499999999999901      32.087499999999999      50.962499999999999
   186   1      9.4374999999999929      30.199999999999992      50.962499999999999
   187   1      9.4374999999999929      32.087499999999999      49.074999999999989
   188   1      9.4374999999999929      30.199999999999992      54.737499999999997
   189   1      9.4374999999999929      32.087499999999999      52.849999999999987
   190   1      9.4374999999999929      32.087499999999999      56.624999999999986
   191   1      9.4374999999999929      32.087499999999999      60.399999999999984
   192   1      9.4374999999999929      33.974999999999994      35.862499999999997
   193   1      9.4374999999999929      35.862499999999997      33.974999999999994
   194   1      7.5499999999999901      35.862499999999997      39.637499999999996
   195   1      9.4374999999999929      33.974999999999994      39.637499999999996
   196   1      9.4374999999999929      35.862499999999997      37.749999999999993
   197   1      7.5499999999999901      33.974999999999994      41.524999999999991
   198   1      7.5499999999999901      35.862499999999997      43.412499999999987
   199   1      9.4374999999999929      33.974999999999994      43.412499999999987
   200   1      9.4374999999999929      35.862499999999997      41.524999999999991
   201   1      7.5499999999999901      33.974999999999994       45.29999999999999
   202   1      7.5499999999999901      35.862499999999997      47.187499999999986
   203   1      9.4374999999999929      33.974999999999994      47.187499999999986
   204   1      9.4374999999999929      35.862499999999997       45.29999999999999
   205   1      7.5499999999999901      33.974999999999994      49.074999999999989
   206   1      7.5499999999999901      35.862499999999997      50.962499999999999
   207   1      9.4374999999999929      33.974999999999994      50.962499999999999
   208   1      9.4374999999999929      35.862499999999997      49.074999999999989
   209   1      7.5499999999999901      33.974999999999994      52.849999999999987
   210   1      7.5499999999999901      35.862499999999997      54.737499999999997
   211   1      9.4374999999999929      33.974999999999994      54.737499999999997
   212   1      9.4374999999999929      35.862499999999997      52.849999999999987
   213   1      7.5499999999999901      33.974999999999994      56.624999999999986
   214   1      7.5499999999999901      35.862499999999997      58.512499999999996
   215   1      9.4374999999999929      33.974999999999994      58.512499999999996
   216   1      9.4374999999999929      35.862499999999997      56.624999999999986
   217   1      9.4374999999999929      33.974999999999994      62.287499999999994
   218   1      9.4374999999999929      35.862499999999997      60.399999999999984
   219   1      9.4374999999999929      35.862499999999997      64.174999999999997
   220   1      9.4374999999999929      37.749999999999993      32.087499999999999
   221   1      7.5499999999999901      39.637499999999996      35.862499999999997
   222   1      9.4374999999999929      37.749999999999993      35.862499999999997
   223   1      9.4374999999999929      39.637499999999996      33.974999999999994
   224   1      7.5499999999999901      37.749999999999993      37.749999999999993
   225   1      7.5499999999999901      39.637499999999996      39.637499999999996
   226   1      9.4374999999999929      37.749999999999993      39.637499999999996
   227   1      9.4374999999999929      39.637499999999996      37.749999999999993
   228   1      7.5499999999999901      37.749999999999993      41.524999999999991
   229   1      7.5499999999999901      39.637499999999996      43.412499999999987
   230   1      9.4374999999999929      37.749999999999993      43.412499999999987
   231   1      9.4374999999999929      39.637499999999996      41.524999999999991
   232   1      7.5499999999999901      37.749999999999993       45.29999999999999
   233   1      7.5499999999999901      39.637499999999996      47.187499999999986
   234   1      9.4374999999999929      37.749999999999993      47.187499999999986
   235   1      9.4374999999999929      39.637499999999996       45.29999999999999
   236   1      7.5499999999999901      37.749999999999993      49.074999999999989
   237   1      7.5499999999999901      39.637499999999996      50.962499999999999
   238   1      9.4374999999999929      37.749999999999993      50.962499999999999
   239   1      9.4374999999999929      39.637499999999996      49.074999999999989
   240   1      7.5499999999999901      37.749999999999993      52.849999999999987
   241   1      7.5499999999999901      39.637499999999996      54.737499999999997
   242   1      9.4374999999999929      37.749999999999993      54.737499999999997
   243   1      9.4374999999999929      39.637499999999996      52.849999999999987
   244   1      7.5499999999999901      37.749999999999993      56.624999999999986
   245   1      7.5499999999999901      39.637499999999996      58.512499999999996
   246   1      9.4374999999999929      37.749999999999993      58.512499999999996
   247   1      9.4374999999999929      39.637499999999996      56.624999999999986
   248   1      7.5499999999999901      37.749999999999993      60.399999999999984
   249   1      7.5499999999999901      39.637499999999996      62.287499999999994
   250   1      9.4374999999999929      37.749999999999993      62.287499999999994
   251   1      9.4374999999999929      39.637499999999996      60.399999999999984
   252   1      9.4374999999999929      37.749999999999993                 66.0625
   253   1      9.4374999999999929      39.637499999999996      64.174999999999997
   254   1      9.4374999999999929      41.524999999999991      32.087499999999999
   255   1      9.4374999999999929      43.412499999999987      30.199999999999992
   256   1      7.5499999999999901      41.524999999999991      33.974999999999994
   257   1      7.5499999999999901      43.412499999999987      35.862499999999997
   258   1      9.4374999999999929      41.524999999999991      35.862499999999997
   259   1      9.4374999999999929      43.412499999999987      33.974999999999994
   260   1      7.5499999999999901      41.524999999999991      37.749999999999993
   261   1      7.5499999999999901      43.412499999999987      39.637499999999996
   262   1      9.4374999999999929      41.524999999999991      39.637499999999996
   263   1      9.4374999999999929      43.412499999999987      37.749999999999993
   264   1      7.5499999999999901      41.524999999999991      41.524999999999991
   265   1      7.5499999999999901      43.412499999999987      43.412499999999987
   266   1      9.4374999999999929      41.524999999999991      43.412499999999987
   267   1      9.4374999999999929      43.412499999999987      41.524999999999991
   268   1      7.5499999999999901      41.524999999999991       45.29999999999999
   269   1      7.5499999999999901      43.412499999999987      47.187499999999986
   270   1      9.4374999999999929      41.524999999999991      47.187499999999986
   271   1      9.4374999999999929      43.412499999999987       45.29999999999999
   272   1      7.5499999999999901      41.524999999999991      49.074999999999989
   273   1      7.5499999999999901      43.412499999999987      50.962499999999999
   274   1      9.4374999999999929      41.524999999999991      50.962499999999999
   275   1      9.4374999999999929      43.412499999999987      49.074999999999989
   276   1      7.5499999999999901      41.524999999999991      52.849999999999987
   277   1      7.5499999999999901      43.412499999999987      54.737499999999997
   278   1      9.4374999999999929      41.524999999999991      54.737499999999997
   279   1      9.4374999999999929      43.412499999999987      52.849999999999987
   280   1      7.5499999999999901      41.524999999999991      56.624999999999986
   281   1      7.5499999999999901      43.412499999999987      58.512499999999996
   282   1      9.4374999999999929      41.524999999999991      58.512499999999996
   283   1      9.4374999999999929      43.412499999999987      56.624999999999986
   284   1      7.5499999999999901      41.524999999999991      60.399999999999984
   285   1      7.5499999999999901      43.412499999999987      62.287499999999994
   286   1      9.4374999999999929      41.524999999999991      62.287499999999994
   287   1      9.4374999999999929      43.412499999999987      60.399999999999984
   288   1      7.5499999999999901      41.524999999999991      64.174999999999997
   289   1      9.4374999999999929      41.524999999999991                 66.0625
   290   1      9.4374999999999929      43.412499999999987      64.174999999999997
   291   1      9.4374999999999929      43.412499999999987      67.949999999999989
   292   1      9.4374999999999929       45.29999999999999      28.312499999999993
   293   1      7.5499999999999901      47.187499999999986      32.087499999999999
   294   1      9.4374999999999929       45.29999999999999      32.087499999999999
   295   1      9.4374999999999929      47.187499999999986      30.199999999999992
   296   1      7.5499999999999901       45.29999999999999      33.974999999999994
   297   1      7.5499999999999901      47.187499999999986      35.862499999999997
   298   1      9.4374999999999929       45.29999999999999      35.862499999999997
   299   1      9.4374999999999929      47.187499999999986      33.974999999999994
   300   1      7.5499999999999901       45.29999999999999      37.749999999999993
   301   1      7.5499999999999901      47.187499999999986      39.637499999999996
   302   1      9.4374999999999929       45.29999999999999      39.637499999999996
   303   1      9.4374999999999929      47.187499999999986      37.749999999999993
   304   1      7.5499999999999901       45.29999999999999      41.524999999999991
   305   1      7.5499999999999901      47.187499999999986      43.412499999999987
   306   1      9.4374999999999929       45.29999999999999      43.412499999999987
   307   1      9.4374999999999929      47.187499999999986      41.524999999999991
   308   1      7.5499999999999901       45.29999999999999       45.29999999999999
   309   1      7.5499999999999901      47.187499999999986      47.187499999999986
   310   1      9.4374999999999929       45.29999999999999      47.187499999999986
   311   1      9.4374999999999929      47.187499999999986       45.29999999999999
   312   1      7.5499999999999901       45.29999999999999      49.074999999999989
   313   1      7.5499999999999901      47.187499999999986      50.962499999999999
   314   1      9.4374999999999929       45.29999999999999      50.962499999999999
   315   1      9.4374999999999929      47.187499999999986      49.074999999999989
   316   1      7.5499999999999901       45.29999999999999      52.849999999999987
   317   1      7.5499999999999901      47.187499999999986      54.737499999999997
   318   1      9.4374999999999929       45.29999999999999      54.737499999999997
   319   1      9.4374999999999929      47.187499999999986      52.849999999999987
   320   1      7.5499999999999901       45.29999999999999      56.624999999999986
   321   1      7.5499999999999901      47.187499999999986      58.512499999999996
   322   1      9.4374999999999929       45.29999999999999      58.512499999999996
   323   1      9.4374999999999929      47.187499999999986      56.624999999999986
   324   1      7.5499999999999901       45.29999999999999      60.399999999999984
   325   1      7.5499999999999901      47.187499999999986      62.287499999999994
   326   1      9.4374999999999929       45.29999999999999      62.287499999999994
   327   1      9.4374999999999929      47.187499999999986      60.399999999999984
   328   1      7.5499999999999901       45.29999999999999      64.174999999999997
   329   1      7.5499999999999901      47.187499999999986                 66.0625
   330   1      9.4374999999999929       45.29999999999999                 66.0625
   331   1      9.4374999999999929      47.187499999999986      64.174999999999997
   332   1      9.4374999999999929       45.29999999999999      69.837499999999977
   333   1      9.4374999999999929      47.187499999999986      67.949999999999989
   334   1      9.4374999999999929      49.074999999999989      28.312499999999993
   335   1      7.5499999999999901      49.074999999999989      30.199999999999992
   336   1      7.5499999999999901      50.962499999999999      32.087499999999999
   337   1      9.4374999999999929      49.074999999999989      32.087499999999999
   338   1      9.4374999999999929      50.962499999999999      30.199999999999992
   339   1      7.5499999999999901      49.074999999999989      33.974999999999994
   340   1      7.5499999999999901      50.962499999999999      35.862499999999997
   341   1      9.4374999999999929      49.074999999999989      35.862499999999997
   342   1      9.4374999999999929      50.962499999999999      33.974999999999994
   343   1      7.5499999999999901      49.074999999999989      37.749999999999993
   344   1      7.5499999999999901      50.962499999999999      39.637499999999996
   345   1      9.4374999999999929      49.074999999999989      39.637499999999996
   346   1      9.4374999999999929      50.962499999999999      37.749999999999993
   347   1      7.5499999999999901      49.074999999999989      41.524999999999991
   348   1      7.5499999999999901      50.962499999999999      43.412499999999987
   349   1      9.4374999999999929      49.074999999999989      43.412499999999987
   350   1      9.4374999999999929      50.962499999999999      41.524999999999991
   351   1      7.5499999999999901      49.074999999999989       45.29999999999999
   352   1      7.5499999999999901      50.962499999999999      47.187499999999986
   353   1      9.4374999999999929      49.074999999999989      47.187499999999986
   354   1      9.4374999999999929      50.962499999999999       45.29999999999999
   355   1      7.5499999999999901      49.074999999999989      49.074999999999989
   356   1      7.5499999999999901      50.962499999999999      50.962499999999999
   357   1      9.4374999999999929      49.074999999999989      50.962499999999999
   358   1      9.4374999999999929      50.962499999999999      49.074999999999989