model_files/PtCu/PtCu_30000/PtCu_441/PtCu_441_fcc_30129_temp.data (written by ASE) 

30129 	 atoms 
2  atom types
0.0                     125  xlo xhi
0.0                     125  ylo yhi
0.0                     125  zlo zhi


Atoms 

     1   1      1.9249999999999901       59.67499999999999      61.599999999999994
     2   1      1.9249999999999901      61.599999999999994       59.67499999999999
     3   1      124.99999999999999      61.599999999999994      61.599999999999994
     4   1      1.9249999999999901      61.599999999999994      63.524999999999999
     5   1      1.9249999999999901      63.524999999999999      61.599999999999994
     6   1      5.7749999999999924      55.824999999999996      61.599999999999994
     7   1      3.8499999999999943       59.67499999999999       59.67499999999999
     8   1      5.7749999999999924      57.749999999999993       59.67499999999999
     9   1      5.7749999999999924       59.67499999999999      57.749999999999993
    10   1      3.8499999999999943      57.749999999999993      61.599999999999994
    11   1      3.8499999999999943       59.67499999999999      63.524999999999999
    12   1      5.7749999999999924      57.749999999999993      63.524999999999999
    13   1      5.7749999999999924       59.67499999999999      61.599999999999994
    14   1      5.7749999999999924       59.67499999999999      65.449999999999989
    15   1      5.7749999999999924      61.599999999999994      55.824999999999996
    16   1      3.8499999999999943      61.599999999999994      57.749999999999993
    17   1      3.8499999999999943      63.524999999999999       59.67499999999999
    18   1      5.7749999999999924      61.599999999999994       59.67499999999999
    19   1      5.7749999999999924      63.524999999999999      57.749999999999993
    20   1      3.8499999999999943      61.599999999999994      61.599999999999994
    21   1      3.8499999999999943      63.524999999999999      63.524999999999999
    22   1      5.7749999999999924      61.599999999999994      63.524999999999999
    23   1      5.7749999999999924      63.524999999999999      61.599999999999994
    24   1      3.8499999999999943      61.599999999999994      65.449999999999989
    25   1      5.7749999999999924      61.599999999999994      67.374999999999986
    26   1      5.7749999999999924      63.524999999999999      65.449999999999989
    27   1      5.7749999999999924      65.449999999999989       59.67499999999999
    28   1      3.8499999999999943      65.449999999999989      61.599999999999994
    29   1      5.7749999999999924      65.449999999999989      63.524999999999999
    30   1      5.7749999999999924      67.374999999999986      61.599999999999994
    31   1      9.6249999999999929      51.974999999999987      61.599999999999994
    32   1      7.6999999999999886      55.824999999999996      55.824999999999996
    33   1      9.6249999999999929      53.899999999999991      55.824999999999996
    34   1      9.6249999999999929      55.824999999999996      53.899999999999991
    35   1      7.6999999999999886      55.824999999999996       59.67499999999999
    36   1      9.6249999999999929      53.899999999999991       59.67499999999999
    37   1      9.6249999999999929      55.824999999999996      57.749999999999993
    38   1      7.6999999999999886      53.899999999999991      61.599999999999994
    39   1      7.6999999999999886      55.824999999999996      63.524999999999999
    40   1      9.6249999999999929      53.899999999999991      63.524999999999999
    41   1      9.6249999999999929      55.824999999999996      61.599999999999994
    42   1      7.6999999999999886      55.824999999999996      67.374999999999986
    43   1      9.6249999999999929      53.899999999999991      67.374999999999986
    44   1      9.6249999999999929      55.824999999999996      65.449999999999989
    45   1      9.6249999999999929      55.824999999999996      69.299999999999997
    46   1      7.6999999999999886       59.67499999999999      55.824999999999996
    47   1      9.6249999999999929      57.749999999999993      55.824999999999996
    48   1      9.6249999999999929       59.67499999999999      53.899999999999991
    49   1      7.6999999999999886      57.749999999999993      57.749999999999993
    50   1      7.6999999999999886       59.67499999999999       59.67499999999999
    51   1      9.6249999999999929      57.749999999999993       59.67499999999999
    52   1      9.6249999999999929       59.67499999999999      57.749999999999993
    53   1      7.6999999999999886      57.749999999999993      61.599999999999994
    54   1      7.6999999999999886       59.67499999999999      63.524999999999999
    55   1      9.6249999999999929      57.749999999999993      63.524999999999999
    56   1      9.6249999999999929       59.67499999999999      61.599999999999994
    57   1      7.6999999999999886      57.749999999999993      65.449999999999989
    58   1      7.6999999999999886       59.67499999999999      67.374999999999986
    59   1      9.6249999999999929      57.749999999999993      67.374999999999986
    60   1      9.6249999999999929       59.67499999999999      65.449999999999989
    61   1      9.6249999999999929       59.67499999999999      69.299999999999997
    62   1      9.6249999999999929      61.599999999999994      51.974999999999987
    63   1      7.6999999999999886      61.599999999999994      53.899999999999991
    64   1      7.6999999999999886      63.524999999999999      55.824999999999996
    65   1      9.6249999999999929      61.599999999999994      55.824999999999996
    66   1      9.6249999999999929      63.524999999999999      53.899999999999991
    67   1      7.6999999999999886      61.599999999999994      57.749999999999993
    68   1      7.6999999999999886      63.524999999999999       59.67499999999999
    69   1      9.6249999999999929      61.599999999999994       59.67499999999999
    70   1      9.6249999999999929      63.524999999999999      57.749999999999993
    71   1      7.6999999999999886      61.599999999999994      61.599999999999994
    72   1      7.6999999999999886      63.524999999999999      63.524999999999999
    73   1      9.6249999999999929      61.599999999999994      63.524999999999999
    74   1      9.6249999999999929      63.524999999999999      61.599999999999994
    75   1      7.6999999999999886      61.599999999999994      65.449999999999989
    76   1      7.6999999999999886      63.524999999999999      67.374999999999986
    77   1      9.6249999999999929      61.599999999999994      67.374999999999986
    78   1      9.6249999999999929      63.524999999999999      65.449999999999989
    79   1      7.6999999999999886      61.599999999999994      69.299999999999997
    80   1      9.6249999999999929      61.599999999999994      71.224999999999994
    81   1      9.6249999999999929      63.524999999999999      69.299999999999997
    82   1      7.6999999999999886      67.374999999999986      55.824999999999996
    83   1      9.6249999999999929      65.449999999999989      55.824999999999996
    84   1      9.6249999999999929      67.374999999999986      53.899999999999991
    85   1      7.6999999999999886      65.449999999999989      57.749999999999993
    86   1      7.6999999999999886      67.374999999999986       59.67499999999999
    87   1      9.6249999999999929      65.449999999999989       59.67499999999999
    88   1      9.6249999999999929      67.374999999999986      57.749999999999993
    89   1      7.6999999999999886      65.449999999999989      61.599999999999994
    90   1      7.6999999999999886      67.374999999999986      63.524999999999999
    91   1      9.6249999999999929      65.449999999999989      63.524999999999999
    92   1      9.6249999999999929      67.374999999999986      61.599999999999994
    93   1      7.6999999999999886      65.449999999999989      65.449999999999989
    94   1      7.6999999999999886      67.374999999999986      67.374999999999986
    95   1      9.6249999999999929      65.449999999999989      67.374999999999986
    96   1      9.6249999999999929      67.374999999999986      65.449999999999989
    97   1      9.6249999999999929      67.374999999999986      69.299999999999997
    98   1      9.6249999999999929      69.299999999999997      55.824999999999996
    99   1      9.6249999999999929      69.299999999999997       59.67499999999999
   100   1      7.6999999999999886      69.299999999999997      61.599999999999994
   101   1      9.6249999999999929      69.299999999999997      63.524999999999999
   102   1      9.6249999999999929      71.224999999999994      61.599999999999994
   103   1      9.6249999999999929      69.299999999999997      67.374999999999986
   104   1      13.474999999999994      48.124999999999993      61.599999999999994
   105   1       11.54999999999999      51.974999999999987      51.974999999999987
   106   1      13.474999999999994       50.04999999999999      51.974999999999987
   107   1      13.474999999999994      51.974999999999987       50.04999999999999
   108   1       11.54999999999999      51.974999999999987      55.824999999999996
   109   1      13.474999999999994       50.04999999999999      55.824999999999996
   110   1      13.474999999999994      51.974999999999987      53.899999999999991
   111   1       11.54999999999999      51.974999999999987       59.67499999999999
   112   1      13.474999999999994       50.04999999999999       59.67499999999999
   113   1      13.474999999999994      51.974999999999987      57.749999999999993
   114   1       11.54999999999999       50.04999999999999      61.599999999999994
   115   1       11.54999999999999      51.974999999999987      63.524999999999999
   116   1      13.474999999999994       50.04999999999999      63.524999999999999
   117   1      13.474999999999994      51.974999999999987      61.599999999999994
   118   1       11.54999999999999      51.974999999999987      67.374999999999986
   119   1      13.474999999999994       50.04999999999999      67.374999999999986
   120   1      13.474999999999994      51.974999999999987      65.449999999999989
   121   1       11.54999999999999      51.974999999999987      71.224999999999994
   122   1      13.474999999999994       50.04999999999999      71.224999999999994
   123   1      13.474999999999994      51.974999999999987      69.299999999999997
   124   1      13.474999999999994      51.974999999999987      73.149999999999991
   125   1       11.54999999999999      55.824999999999996      51.974999999999987
   126   1      13.474999999999994      53.899999999999991      51.974999999999987
   127   1      13.474999999999994      55.824999999999996       50.04999999999999
   128   1       11.54999999999999      53.899999999999991      53.899999999999991
   129   1       11.54999999999999      55.824999999999996      55.824999999999996
   130   1      13.474999999999994      53.899999999999991      55.824999999999996
   131   1      13.474999999999994      55.824999999999996      53.899999999999991
   132   1       11.54999999999999      53.899999999999991      57.749999999999993
   133   1       11.54999999999999      55.824999999999996       59.67499999999999
   134   1      13.474999999999994      53.899999999999991       59.67499999999999
   135   1      13.474999999999994      55.824999999999996      57.749999999999993
   136   1       11.54999999999999      53.899999999999991      61.599999999999994
   137   1       11.54999999999999      55.824999999999996      63.524999999999999
   138   1      13.474999999999994      53.899999999999991      63.524999999999999
   139   1      13.474999999999994      55.824999999999996      61.599999999999994
   140   1       11.54999999999999      53.899999999999991      65.449999999999989
   141   1       11.54999999999999      55.824999999999996      67.374999999999986
   142   1      13.474999999999994      53.899999999999991      67.374999999999986
   143   1      13.474999999999994      55.824999999999996      65.449999999999989
   144   1       11.54999999999999      53.899999999999991      69.299999999999997
   145   1       11.54999999999999      55.824999999999996      71.224999999999994
   146   1      13.474999999999994      53.899999999999991      71.224999999999994
   147   1      13.474999999999994      55.824999999999996      69.299999999999997
   148   1      13.474999999999994      55.824999999999996      73.149999999999991
   149   1       11.54999999999999       59.67499999999999      51.974999999999987
   150   1      13.474999999999994      57.749999999999993      51.974999999999987
   151   1      13.474999999999994       59.67499999999999       50.04999999999999
   152   1       11.54999999999999      57.749999999999993      53.899999999999991
   153   1       11.54999999999999       59.67499999999999      55.824999999999996
   154   1      13.474999999999994      57.749999999999993      55.824999999999996
   155   1      13.474999999999994       59.67499999999999      53.899999999999991
   156   1       11.54999999999999      57.749999999999993      57.749999999999993
   157   1       11.54999999999999       59.67499999999999       59.67499999999999
   158   1      13.474999999999994      57.749999999999993       59.67499999999999
   159   1      13.474999999999994       59.67499999999999      57.749999999999993
   160   1       11.54999999999999      57.749999999999993      61.599999999999994
   161   1       11.54999999999999       59.67499999999999      63.524999999999999
   162   1      13.474999999999994      57.749999999999993      63.524999999999999
   163   1      13.474999999999994       59.67499999999999      61.599999999999994
   164   1       11.54999999999999      57.749999999999993      65.449999999999989
   165   1       11.54999999999999       59.67499999999999      67.374999999999986
   166   1      13.474999999999994      57.749999999999993      67.374999999999986
   167   1      13.474999999999994       59.67499999999999      65.449999999999989
   168   1       11.54999999999999      57.749999999999993      69.299999999999997
   169   1       11.54999999999999       59.67499999999999      71.224999999999994
   170   1      13.474999999999994      57.749999999999993      71.224999999999994
   171   1      13.474999999999994       59.67499999999999      69.299999999999997
   172   1      13.474999999999994       59.67499999999999      73.149999999999991
   173   1      13.474999999999994      61.599999999999994      48.124999999999993
   174   1       11.54999999999999      61.599999999999994       50.04999999999999
   175   1       11.54999999999999      63.524999999999999      51.974999999999987
   176   1      13.474999999999994      61.599999999999994      51.974999999999987
   177   1      13.474999999999994      63.524999999999999       50.04999999999999
   178   1       11.54999999999999      61.599999999999994      53.899999999999991
   179   1       11.54999999999999      63.524999999999999      55.824999999999996
   180   1      13.474999999999994      61.599999999999994      55.824999999999996
   181   1      13.474999999999994      63.524999999999999      53.899999999999991
   182   1       11.54999999999999      61.599999999999994      57.749999999999993
   183   1       11.54999999999999      63.524999999999999       59.67499999999999
   184   1      13.474999999999994      61.599999999999994       59.67499999999999
   185   1      13.474999999999994      63.524999999999999      57.749999999999993
   186   1       11.54999999999999      61.599999999999994      61.599999999999994
   187   1       11.54999999999999      63.524999999999999      63.524999999999999
   188   1      13.474999999999994      61.599999999999994      63.524999999999999
   189   1      13.474999999999994      63.524999999999999      61.599999999999994
   190   1       11.54999999999999      61.599999999999994      65.449999999999989
   191   1       11.54999999999999      63.524999999999999      67.374999999999986
   192   1      13.474999999999994      61.599999999999994      67.374999999999986
   193   1      13.474999999999994      63.524999999999999      65.449999999999989
   194   1       11.54999999999999      61.599999999999994      69.299999999999997
   195   1       11.54999999999999      63.524999999999999      71.224999999999994
   196   1      13.474999999999994      61.599999999999994      71.224999999999994
   197   1      13.474999999999994      63.524999999999999      69.299999999999997
   198   1       11.54999999999999      61.599999999999994      73.149999999999991
   199   1      13.474999999999994      61.599999999999994      75.074999999999989
   200   1      13.474999999999994      63.524999999999999      73.149999999999991
   201   1       11.54999999999999      67.374999999999986      51.974999999999987
   202   1      13.474999999999994      65.449999999999989      51.974999999999987
   203   1      13.474999999999994      67.374999999999986       50.04999999999999
   204   1       11.54999999999999      65.449999999999989      53.899999999999991
   205   1       11.54999999999999      67.374999999999986      55.824999999999996
   206   1      13.474999999999994      65.449999999999989      55.824999999999996
   207   1      13.474999999999994      67.374999999999986      53.899999999999991
   208   1       11.54999999999999      65.449999999999989      57.749999999999993
   209   1       11.54999999999999      67.374999999999986       59.67499999999999
   210   1      13.474999999999994      65.449999999999989       59.67499999999999
   211   1      13.474999999999994      67.374999999999986      57.749999999999993
   212   1       11.54999999999999      65.449999999999989      61.599999999999994
   213   1       11.54999999999999      67.374999999999986      63.524999999999999
   214   1      13.474999999999994      65.449999999999989      63.524999999999999
   215   1      13.474999999999994      67.374999999999986      61.599999999999994
   216   1       11.54999999999999      65.449999999999989      65.449999999999989
   217   1       11.54999999999999      67.374999999999986      67.374999999999986
   218   1      13.474999999999994      65.449999999999989      67.374999999999986
   219   1      13.474999999999994      67.374999999999986      65.449999999999989
   220   1       11.54999999999999      65.449999999999989      69.299999999999997
   221   1       11.54999999999999      67.374999999999986      71.224999999999994
   222   1      13.474999999999994      65.449999999999989      71.224999999999994
   223   1      13.474999999999994      67.374999999999986      69.299999999999997
   224   1      13.474999999999994      67.374999999999986      73.149999999999991
   225   1       11.54999999999999      71.224999999999994      51.974999999999987
   226   1      13.474999999999994      69.299999999999997      51.974999999999987
   227   1      13.474999999999994      71.224999999999994       50.04999999999999
   228   1       11.54999999999999      69.299999999999997      53.899999999999991
   229   1       11.54999999999999      71.224999999999994      55.824999999999996
   230   1      13.474999999999994      69.299999999999997      55.824999999999996
   231   1      13.474999999999994      71.224999999999994      53.899999999999991
   232   1       11.54999999999999      69.299999999999997      57.749999999999993
   233   1       11.54999999999999      71.224999999999994       59.67499999999999
   234   1      13.474999999999994      69.299999999999997       59.67499999999999
   235   1      13.474999999999994      71.224999999999994      57.749999999999993
   236   1       11.54999999999999      69.299999999999997      61.599999999999994
   237   1       11.54999999999999      71.224999999999994      63.524999999999999
   238   1      13.474999999999994      69.299999999999997      63.524999999999999
   239   1      13.474999999999994      71.224999999999994      61.599999999999994
   240   1       11.54999999999999      69.299999999999997      65.449999999999989
   241   1       11.54999999999999      71.224999999999994      67.374999999999986
   242   1      13.474999999999994      69.299999999999997      67.374999999999986
   243   1      13.474999999999994      71.224999999999994      65.449999999999989
   244   1       11.54999999999999      69.299999999999997      69.299999999999997
   245   1       11.54999999999999      71.224999999999994      71.224999999999994
   246   1      13.474999999999994      69.299999999999997      71.224999999999994
   247   1      13.474999999999994      71.224999999999994      69.299999999999997
   248   1      13.474999999999994      71.224999999999994      73.149999999999991
   249   1      13.474999999999994      73.149999999999991      51.974999999999987
   250   1      13.474999999999994      73.149999999999991      55.824999999999996
   251   1      13.474999999999994      73.149999999999991       59.67499999999999
   252   1       11.54999999999999      73.149999999999991      61.599999999999994
   253   1      13.474999999999994      73.149999999999991      63.524999999999999
   254   1      13.474999999999994      75.074999999999989      61.599999999999994
   255   1      13.474999999999994      73.149999999999991      67.374999999999986
   256   1      13.474999999999994      73.149999999999991      71.224999999999994
   257   1      17.324999999999989      44.274999999999991      61.599999999999994
   258   1      15.399999999999991      48.124999999999993      51.974999999999987
   259   1      17.324999999999989      46.199999999999996      51.974999999999987
   260   1      17.324999999999989      48.124999999999993       50.04999999999999
   261   1      15.399999999999991      48.124999999999993      55.824999999999996
   262   1      17.324999999999989      46.199999999999996      55.824999999999996
   263   1      17.324999999999989      48.124999999999993      53.899999999999991
   264   1      15.399999999999991      48.124999999999993       59.67499999999999
   265   1      17.324999999999989      46.199999999999996       59.67499999999999
   266   1      17.324999999999989      48.124999999999993      57.749999999999993
   267   1      15.399999999999991      46.199999999999996      61.599999999999994
   268   1      15.399999999999991      48.124999999999993      63.524999999999999
   269   1      17.324999999999989      46.199999999999996      63.524999999999999
   270   1      17.324999999999989      48.124999999999993      61.599999999999994
   271   1      15.399999999999991      48.124999999999993      67.374999999999986
   272   1      17.324999999999989      46.199999999999996      67.374999999999986
   273   1      17.324999999999989      48.124999999999993      65.449999999999989
   274   1      15.399999999999991      48.124999999999993      71.224999999999994
   275   1      17.324999999999989      46.199999999999996      71.224999999999994
   276   1      17.324999999999989      48.124999999999993      69.299999999999997
   277   1      17.324999999999989      48.124999999999993      73.149999999999991
   278   1      15.399999999999991      51.974999999999987      48.124999999999993
   279   1      17.324999999999989       50.04999999999999      48.124999999999993
   280   1      17.324999999999989      51.974999999999987      46.199999999999996
   281   1      15.399999999999991       50.04999999999999       50.04999999999999
   282   1      15.399999999999991      51.974999999999987      51.974999999999987
   283   1      17.324999999999989       50.04999999999999      51.974999999999987
   284   1      17.324999999999989      51.974999999999987       50.04999999999999
   285   1      15.399999999999991       50.04999999999999      53.899999999999991
   286   1      15.399999999999991      51.974999999999987      55.824999999999996
   287   1      17.324999999999989       50.04999999999999      55.824999999999996
   288   1      17.324999999999989      51.974999999999987      53.899999999999991
   289   1      15.399999999999991       50.04999999999999      57.749999999999993
   290   1      15.399999999999991      51.974999999999987       59.67499999999999
   291   1      17.324999999999989       50.04999999999999       59.67499999999999
   292   1      17.324999999999989      51.974999999999987      57.749999999999993
   293   1      15.399999999999991       50.04999999999999      61.599999999999994
   294   1      15.399999999999991      51.974999999999987      63.524999999999999
   295   1      17.324999999999989       50.04999999999999      63.524999999999999
   296   1      17.324999999999989      51.974999999999987      61.599999999999994
   297   1      15.399999999999991       50.04999999999999      65.449999999999989
   298   1      15.399999999999991      51.974999999999987      67.374999999999986
   299   1      17.324999999999989       50.04999999999999      67.374999999999986
   300   1      17.324999999999989      51.974999999999987      65.449999999999989
   301   1      15.399999999999991       50.04999999999999      69.299999999999997
   302   1      15.399999999999991      51.974999999999987      71.224999999999994
   303   1      17.324999999999989       50.04999999999999      71.224999999999994
   304   1      17.324999999999989      51.974999999999987      69.299999999999997
   305   1      15.399999999999991       50.04999999999999      73.149999999999991
   306   1      15.399999999999991      51.974999999999987      75.074999999999989
   307   1      17.324999999999989       50.04999999999999      75.074999999999989
   308   1      17.324999999999989      51.974999999999987      73.149999999999991
   309   1      17.324999999999989      51.974999999999987                      77
   310   1      15.399999999999991      55.824999999999996      48.124999999999993
   311   1      17.324999999999989      53.899999999999991      48.124999999999993
   312   1      17.324999999999989      55.824999999999996      46.199999999999996
   313   1      15.399999999999991      53.899999999999991       50.04999999999999
   314   1      15.399999999999991      55.824999999999996      51.974999999999987
   315   1      17.324999999999989      53.899999999999991      51.974999999999987
   316   1      17.324999999999989      55.824999999999996       50.04999999999999
   317   1      15.399999999999991      53.899999999999991      53.899999999999991
   318   1      15.399999999999991      55.824999999999996      55.824999999999996
   319   1      17.324999999999989      53.899999999999991      55.824999999999996
   320   1      17.324999999999989      55.824999999999996      53.899999999999991
   321   1      15.399999999999991      53.899999999999991      57.749999999999993
   322   1      15.399999999999991      55.824999999999996       59.67499999999999
   323   1      17.324999999999989      53.899999999999991       59.67499999999999
   324   1      17.324999999999989      55.824999999999996      57.749999999999993
   325   1      15.399999999999991      53.899999999999991      61.599999999999994
   326   1      15.399999999999991      55.824999999999996      63.524999999999999
   327   1      17.324999999999989      53.899999999999991      63.524999999999999
   328   1      17.324999999999989      55.824999999999996      61.599999999999994
   329   1      15.399999999999991      53.899999999999991      65.449999999999989
   330   1      15.399999999999991      55.824999999999996      67.374999999999986
   331   1      17.324999999999989      53.899999999999991      67.374999999999986
   332   1      17.324999999999989      55.824999999999996      65.449999999999989
   333   1      15.399999999999991      53.899999999999991      69.299999999999997
   334   1      15.399999999999991      55.824999999999996      71.224999999999994
   335   1      17.324999999999989      53.899999999999991      71.224999999999994
   336   1      17.324999999999989      55.824999999999996      69.299999999999997
   337   1      15.399999999999991      53.899999999999991      73.149999999999991
   338   1      15.399999999999991      55.824999999999996      75.074999999999989
   339   1      17.324999999999989      53.899999999999991      75.074999999999989
   340   1      17.324999999999989      55.824999999999996      73.149999999999991
   341   1      17.324999999999989      55.824999999999996                      77
   342   1      15.399999999999991       59.67499999999999      48.124999999999993
   343   1      17.324999999999989      57.749999999999993      48.124999999999993
   344   1      17.324999999999989       59.67499999999999      46.199999999999996
   345   1      15.399999999999991      57.749999999999993       50.04999999999999
   346   1      15.399999999999991       59.67499999999999      51.974999999999987
   347   1      17.324999999999989      57.749999999999993      51.974999999999987
   348   1      17.324999999999989       59.67499999999999       50.04999999999999
   349   1      15.399999999999991      57.749999999999993      53.899999999999991
   350   1      15.399999999999991       59.67499999999999      55.824999999999996
   351   1      17.324999999999989      57.749999999999993      55.824999999999996
   352   1      17.324999999999989       59.67499999999999      53.899999999999991
   353   1      15.399999999999991      57.749999999999993      57.749999999999993
   354   1      15.399999999999991       59.67499999999999       59.67499999999999
   355   1      17.324999999999989      57.749999999999993       59.67499999999999
   356   1      17.324999999999989       59.67499999999999      57.749999999999993
   357   1      15.399999999999991      57.749999999999993      61.599999999999994
   358   1      15.399999999999991       59.67499999999999      63.524999999999999