model_files/PtNi/PtNi_30000/PtNi_520/PtNi_520_fcc_30029_temp.data (written by ASE) 

30029 	 atoms 
2  atom types
0.0                      93  xlo xhi
0.0                      93  ylo yhi
0.0                      93  zlo zhi


Atoms 

     1   1      1.9149999999999994      40.215000000000003      42.130000000000003
     2   1      1.9149999999999994      40.215000000000003      45.960000000000008
     3   1      1.9149999999999994      40.215000000000003      49.790000000000013
     4   1      1.9149999999999994      42.130000000000003      40.215000000000003
     5   1                       0      44.045000000000009      44.045000000000009
     6   1      1.9149999999999994      42.130000000000003      44.045000000000009
     7   1      1.9149999999999994      44.045000000000009      42.130000000000003
     8   1                       0      44.045000000000009                  47.875
     9   1      1.9149999999999994      42.130000000000003                  47.875
    10   1      1.9149999999999994      44.045000000000009      45.960000000000008
    11   1      1.9149999999999994      42.130000000000003      51.705000000000005
    12   1      1.9149999999999994      44.045000000000009      49.790000000000013
    13   1      1.9149999999999994      45.960000000000008      40.215000000000003
    14   1                       0                  47.875      44.045000000000009
    15   1      1.9149999999999994      45.960000000000008      44.045000000000009
    16   1      1.9149999999999994                  47.875      42.130000000000003
    17   1                       0      45.960000000000008      45.960000000000008
    18   1                       0                  47.875                  47.875
    19   1      1.9149999999999994      45.960000000000008                  47.875
    20   1      1.9149999999999994                  47.875      45.960000000000008
    21   1      1.9149999999999994      45.960000000000008      51.705000000000005
    22   1      1.9149999999999994                  47.875      49.790000000000013
    23   1      1.9149999999999994      49.790000000000013      40.215000000000003
    24   1      1.9149999999999994      49.790000000000013      44.045000000000009
    25   1      1.9149999999999994      51.705000000000005      42.130000000000003
    26   1      1.9149999999999994      49.790000000000013                  47.875
    27   1      1.9149999999999994      51.705000000000005      45.960000000000008
    28   1      1.9149999999999994      49.790000000000013      51.705000000000005
    29   1      1.9149999999999994      51.705000000000005      49.790000000000013
    30   1      5.7449999999999983      30.640000000000001      32.555000000000007
    31   1      5.7449999999999983      32.555000000000007      30.640000000000001
    32   1      5.7449999999999983      30.640000000000001      36.384999999999998
    33   1      5.7449999999999983      32.555000000000007      34.469999999999999
    34   1      5.7449999999999983      30.640000000000001      40.215000000000003
    35   1      5.7449999999999983      32.555000000000007      38.300000000000011
    36   1      5.7449999999999983      30.640000000000001      44.045000000000009
    37   1      5.7449999999999983      32.555000000000007      42.130000000000003
    38   1      5.7449999999999983      30.640000000000001                  47.875
    39   1      5.7449999999999983      32.555000000000007      45.960000000000008
    40   1      5.7449999999999983      30.640000000000001      51.705000000000005
    41   1      5.7449999999999983      32.555000000000007      49.790000000000013
    42   1      5.7449999999999983      30.640000000000001      55.535000000000011
    43   1      5.7449999999999983      32.555000000000007      53.620000000000012
    44   1      5.7449999999999983      30.640000000000001      59.365000000000009
    45   1      5.7449999999999983      32.555000000000007      57.450000000000003
    46   1      5.7449999999999983      32.555000000000007      61.280000000000001
    47   1      5.7449999999999983      34.469999999999999      32.555000000000007
    48   1      5.7449999999999983      36.384999999999998      30.640000000000001
    49   1      3.8300000000000058      34.469999999999999      34.469999999999999
    50   1      3.8300000000000058      36.384999999999998      36.384999999999998
    51   1      5.7449999999999983      34.469999999999999      36.384999999999998
    52   1      5.7449999999999983      36.384999999999998      34.469999999999999
    53   1      3.8300000000000058      34.469999999999999      38.300000000000011
    54   1      3.8300000000000058      36.384999999999998      40.215000000000003
    55   1      5.7449999999999983      34.469999999999999      40.215000000000003
    56   1      5.7449999999999983      36.384999999999998      38.300000000000011
    57   1      3.8300000000000058      34.469999999999999      42.130000000000003
    58   1      3.8300000000000058      36.384999999999998      44.045000000000009
    59   1      5.7449999999999983      34.469999999999999      44.045000000000009
    60   1      5.7449999999999983      36.384999999999998      42.130000000000003
    61   1      3.8300000000000058      34.469999999999999      45.960000000000008
    62   1      3.8300000000000058      36.384999999999998                  47.875
    63   1      5.7449999999999983      34.469999999999999                  47.875
    64   1      5.7449999999999983      36.384999999999998      45.960000000000008
    65   1      3.8300000000000058      34.469999999999999      49.790000000000013
    66   1      3.8300000000000058      36.384999999999998      51.705000000000005
    67   1      5.7449999999999983      34.469999999999999      51.705000000000005
    68   1      5.7449999999999983      36.384999999999998      49.790000000000013
    69   1      3.8300000000000058      34.469999999999999      53.620000000000012
    70   1      3.8300000000000058      36.384999999999998      55.535000000000011
    71   1      5.7449999999999983      34.469999999999999      55.535000000000011
    72   1      5.7449999999999983      36.384999999999998      53.620000000000012
    73   1      3.8300000000000058      34.469999999999999      57.450000000000003
    74   1      5.7449999999999983      34.469999999999999      59.365000000000009
    75   1      5.7449999999999983      36.384999999999998      57.450000000000003
    76   1      5.7449999999999983      36.384999999999998      61.280000000000001
    77   1      5.7449999999999983      38.300000000000011      32.555000000000007
    78   1      5.7449999999999983      40.215000000000003      30.640000000000001
    79   1      3.8300000000000058      38.300000000000011      34.469999999999999
    80   1      3.8300000000000058      40.215000000000003      36.384999999999998
    81   1      5.7449999999999983      38.300000000000011      36.384999999999998
    82   1      5.7449999999999983      40.215000000000003      34.469999999999999
    83   1      3.8300000000000058      38.300000000000011      38.300000000000011
    84   1      3.8300000000000058      40.215000000000003      40.215000000000003
    85   1      5.7449999999999983      38.300000000000011      40.215000000000003
    86   1      5.7449999999999983      40.215000000000003      38.300000000000011
    87   1      3.8300000000000058      38.300000000000011      42.130000000000003
    88   1      3.8300000000000058      40.215000000000003      44.045000000000009
    89   1      5.7449999999999983      38.300000000000011      44.045000000000009
    90   1      5.7449999999999983      40.215000000000003      42.130000000000003
    91   1      3.8300000000000058      38.300000000000011      45.960000000000008
    92   1      3.8300000000000058      40.215000000000003                  47.875
    93   1      5.7449999999999983      38.300000000000011                  47.875
    94   1      5.7449999999999983      40.215000000000003      45.960000000000008
    95   1      3.8300000000000058      38.300000000000011      49.790000000000013
    96   1      3.8300000000000058      40.215000000000003      51.705000000000005
    97   1      5.7449999999999983      38.300000000000011      51.705000000000005
    98   1      5.7449999999999983      40.215000000000003      49.790000000000013
    99   1      3.8300000000000058      38.300000000000011      53.620000000000012
   100   1      3.8300000000000058      40.215000000000003      55.535000000000011
   101   1      5.7449999999999983      38.300000000000011      55.535000000000011
   102   1      5.7449999999999983      40.215000000000003      53.620000000000012
   103   1      3.8300000000000058      38.300000000000011      57.450000000000003
   104   1      5.7449999999999983      38.300000000000011      59.365000000000009
   105   1      5.7449999999999983      40.215000000000003      57.450000000000003
   106   1      5.7449999999999983      40.215000000000003      61.280000000000001
   107   1      5.7449999999999983      42.130000000000003      32.555000000000007
   108   1      5.7449999999999983      44.045000000000009      30.640000000000001
   109   1      3.8300000000000058      42.130000000000003      34.469999999999999
   110   1      3.8300000000000058      44.045000000000009      36.384999999999998
   111   1      5.7449999999999983      42.130000000000003      36.384999999999998
   112   1      5.7449999999999983      44.045000000000009      34.469999999999999
   113   1      3.8300000000000058      42.130000000000003      38.300000000000011
   114   1      3.8300000000000058      44.045000000000009      40.215000000000003
   115   1      5.7449999999999983      42.130000000000003      40.215000000000003
   116   1      5.7449999999999983      44.045000000000009      38.300000000000011
   117   1      3.8300000000000058      42.130000000000003      42.130000000000003
   118   1      3.8300000000000058      44.045000000000009      44.045000000000009
   119   1      5.7449999999999983      42.130000000000003      44.045000000000009
   120   1      5.7449999999999983      44.045000000000009      42.130000000000003
   121   1      3.8300000000000058      42.130000000000003      45.960000000000008
   122   1      3.8300000000000058      44.045000000000009                  47.875
   123   1      5.7449999999999983      42.130000000000003                  47.875
   124   1      5.7449999999999983      44.045000000000009      45.960000000000008
   125   1      3.8300000000000058      42.130000000000003      49.790000000000013
   126   1      3.8300000000000058      44.045000000000009      51.705000000000005
   127   1      5.7449999999999983      42.130000000000003      51.705000000000005
   128   1      5.7449999999999983      44.045000000000009      49.790000000000013
   129   1      3.8300000000000058      42.130000000000003      53.620000000000012
   130   1      3.8300000000000058      44.045000000000009      55.535000000000011
   131   1      5.7449999999999983      42.130000000000003      55.535000000000011
   132   1      5.7449999999999983      44.045000000000009      53.620000000000012
   133   1      3.8300000000000058      42.130000000000003      57.450000000000003
   134   1      5.7449999999999983      42.130000000000003      59.365000000000009
   135   1      5.7449999999999983      44.045000000000009      57.450000000000003
   136   1      5.7449999999999983      44.045000000000009      61.280000000000001
   137   1      5.7449999999999983      45.960000000000008      32.555000000000007
   138   1      5.7449999999999983                  47.875      30.640000000000001
   139   1      3.8300000000000058      45.960000000000008      34.469999999999999
   140   1      3.8300000000000058                  47.875      36.384999999999998
   141   1      5.7449999999999983      45.960000000000008      36.384999999999998
   142   1      5.7449999999999983                  47.875      34.469999999999999
   143   1      3.8300000000000058      45.960000000000008      38.300000000000011
   144   1      3.8300000000000058                  47.875      40.215000000000003
   145   1      5.7449999999999983      45.960000000000008      40.215000000000003
   146   1      5.7449999999999983                  47.875      38.300000000000011
   147   1      3.8300000000000058      45.960000000000008      42.130000000000003
   148   1      3.8300000000000058                  47.875      44.045000000000009
   149   1      5.7449999999999983      45.960000000000008      44.045000000000009
   150   1      5.7449999999999983                  47.875      42.130000000000003
   151   1      3.8300000000000058      45.960000000000008      45.960000000000008
   152   1      3.8300000000000058                  47.875                  47.875
   153   1      5.7449999999999983      45.960000000000008                  47.875
   154   1      5.7449999999999983                  47.875      45.960000000000008
   155   1      3.8300000000000058      45.960000000000008      49.790000000000013
   156   1      3.8300000000000058                  47.875      51.705000000000005
   157   1      5.7449999999999983      45.960000000000008      51.705000000000005
   158   1      5.7449999999999983                  47.875      49.790000000000013
   159   1      3.8300000000000058      45.960000000000008      53.620000000000012
   160   1      3.8300000000000058                  47.875      55.535000000000011
   161   1      5.7449999999999983      45.960000000000008      55.535000000000011
   162   1      5.7449999999999983                  47.875      53.620000000000012
   163   1      3.8300000000000058      45.960000000000008      57.450000000000003
   164   1      5.7449999999999983      45.960000000000008      59.365000000000009
   165   1      5.7449999999999983                  47.875      57.450000000000003
   166   1      5.7449999999999983                  47.875      61.280000000000001
   167   1      5.7449999999999983      49.790000000000013      32.555000000000007
   168   1      5.7449999999999983      51.705000000000005      30.640000000000001
   169   1      3.8300000000000058      49.790000000000013      34.469999999999999
   170   1      3.8300000000000058      51.705000000000005      36.384999999999998
   171   1      5.7449999999999983      49.790000000000013      36.384999999999998
   172   1      5.7449999999999983      51.705000000000005      34.469999999999999
   173   1      3.8300000000000058      49.790000000000013      38.300000000000011
   174   1      3.8300000000000058      51.705000000000005      40.215000000000003
   175   1      5.7449999999999983      49.790000000000013      40.215000000000003
   176   1      5.7449999999999983      51.705000000000005      38.300000000000011
   177   1      3.8300000000000058      49.790000000000013      42.130000000000003
   178   1      3.8300000000000058      51.705000000000005      44.045000000000009
   179   1      5.7449999999999983      49.790000000000013      44.045000000000009
   180   1      5.7449999999999983      51.705000000000005      42.130000000000003
   181   1      3.8300000000000058      49.790000000000013      45.960000000000008
   182   1      3.8300000000000058      51.705000000000005                  47.875
   183   1      5.7449999999999983      49.790000000000013                  47.875
   184   1      5.7449999999999983      51.705000000000005      45.960000000000008
   185   1      3.8300000000000058      49.790000000000013      49.790000000000013
   186   1      3.8300000000000058      51.705000000000005      51.705000000000005
   187   1      5.7449999999999983      49.790000000000013      51.705000000000005
   188   1      5.7449999999999983      51.705000000000005      49.790000000000013
   189   1      3.8300000000000058      49.790000000000013      53.620000000000012
   190   1      3.8300000000000058      51.705000000000005      55.535000000000011
   191   1      5.7449999999999983      49.790000000000013      55.535000000000011
   192   1      5.7449999999999983      51.705000000000005      53.620000000000012
   193   1      3.8300000000000058      49.790000000000013      57.450000000000003
   194   1      5.7449999999999983      49.790000000000013      59.365000000000009
   195   1      5.7449999999999983      51.705000000000005      57.450000000000003
   196   1      5.7449999999999983      51.705000000000005      61.280000000000001
   197   1      5.7449999999999983      53.620000000000012      32.555000000000007
   198   1      5.7449999999999983      55.535000000000011      30.640000000000001
   199   1      3.8300000000000058      53.620000000000012      34.469999999999999
   200   1      3.8300000000000058      55.535000000000011      36.384999999999998
   201   1      5.7449999999999983      53.620000000000012      36.384999999999998
   202   1      5.7449999999999983      55.535000000000011      34.469999999999999
   203   1      3.8300000000000058      53.620000000000012      38.300000000000011
   204   1      3.8300000000000058      55.535000000000011      40.215000000000003
   205   1      5.7449999999999983      53.620000000000012      40.215000000000003
   206   1      5.7449999999999983      55.535000000000011      38.300000000000011
   207   1      3.8300000000000058      53.620000000000012      42.130000000000003
   208   1      3.8300000000000058      55.535000000000011      44.045000000000009
   209   1      5.7449999999999983      53.620000000000012      44.045000000000009
   210   1      5.7449999999999983      55.535000000000011      42.130000000000003
   211   1      3.8300000000000058      53.620000000000012      45.960000000000008
   212   1      3.8300000000000058      55.535000000000011                  47.875
   213   1      5.7449999999999983      53.620000000000012                  47.875
   214   1      5.7449999999999983      55.535000000000011      45.960000000000008
   215   1      3.8300000000000058      53.620000000000012      49.790000000000013
   216   1      3.8300000000000058      55.535000000000011      51.705000000000005
   217   1      5.7449999999999983      53.620000000000012      51.705000000000005
   218   1      5.7449999999999983      55.535000000000011      49.790000000000013
   219   1      3.8300000000000058      53.620000000000012      53.620000000000012
   220   1      3.8300000000000058      55.535000000000011      55.535000000000011
   221   1      5.7449999999999983      53.620000000000012      55.535000000000011
   222   1      5.7449999999999983      55.535000000000011      53.620000000000012
   223   1      3.8300000000000058      53.620000000000012      57.450000000000003
   224   1      5.7449999999999983      53.620000000000012      59.365000000000009
   225   1      5.7449999999999983      55.535000000000011      57.450000000000003
   226   1      5.7449999999999983      55.535000000000011      61.280000000000001
   227   1      5.7449999999999983      57.450000000000003      32.555000000000007
   228   1      5.7449999999999983      59.365000000000009      30.640000000000001
   229   1      3.8300000000000058      57.450000000000003      34.469999999999999
   230   1      5.7449999999999983      57.450000000000003      36.384999999999998
   231   1      5.7449999999999983      59.365000000000009      34.469999999999999
   232   1      3.8300000000000058      57.450000000000003      38.300000000000011
   233   1      5.7449999999999983      57.450000000000003      40.215000000000003
   234   1      5.7449999999999983      59.365000000000009      38.300000000000011
   235   1      3.8300000000000058      57.450000000000003      42.130000000000003
   236   1      5.7449999999999983      57.450000000000003      44.045000000000009
   237   1      5.7449999999999983      59.365000000000009      42.130000000000003
   238   1      3.8300000000000058      57.450000000000003      45.960000000000008
   239   1      5.7449999999999983      57.450000000000003                  47.875
   240   1      5.7449999999999983      59.365000000000009      45.960000000000008
   241   1      3.8300000000000058      57.450000000000003      49.790000000000013
   242   1      5.7449999999999983      57.450000000000003      51.705000000000005
   243   1      5.7449999999999983      59.365000000000009      49.790000000000013
   244   1      3.8300000000000058      57.450000000000003      53.620000000000012
   245   1      5.7449999999999983      57.450000000000003      55.535000000000011
   246   1      5.7449999999999983      59.365000000000009      53.620000000000012
   247   1      3.8300000000000058      57.450000000000003      57.450000000000003
   248   1      5.7449999999999983      57.450000000000003      59.365000000000009
   249   1      5.7449999999999983      59.365000000000009      57.450000000000003
   250   1      5.7449999999999983      59.365000000000009      61.280000000000001
   251   1      5.7449999999999983      61.280000000000001      32.555000000000007
   252   1      5.7449999999999983      61.280000000000001      36.384999999999998
   253   1      5.7449999999999983      61.280000000000001      40.215000000000003
   254   1      5.7449999999999983      61.280000000000001      44.045000000000009
   255   1      5.7449999999999983      61.280000000000001                  47.875
   256   1      5.7449999999999983      61.280000000000001      51.705000000000005
   257   1      5.7449999999999983      61.280000000000001      55.535000000000011
   258   1      5.7449999999999983      61.280000000000001      59.365000000000009
   259   1      9.5750000000000028      21.065000000000001      22.980000000000004
   260   1      9.5750000000000028      21.065000000000001      26.810000000000006
   261   1      9.5750000000000028      21.065000000000001      30.640000000000001
   262   1      9.5750000000000028      21.065000000000001      34.469999999999999
   263   1      9.5750000000000028      21.065000000000001      38.300000000000011
   264   1      9.5750000000000028      21.065000000000001      42.130000000000003
   265   1      9.5750000000000028      21.065000000000001      45.960000000000008
   266   1      9.5750000000000028      21.065000000000001      49.790000000000013
   267   1      9.5750000000000028      21.065000000000001      53.620000000000012
   268   1      9.5750000000000028      21.065000000000001      57.450000000000003
   269   1      9.5750000000000028      21.065000000000001      61.280000000000001
   270   1      9.5750000000000028      21.065000000000001      65.110000000000014
   271   1      9.5750000000000028      21.065000000000001      68.939999999999998
   272   1      9.5750000000000028      22.980000000000004      21.065000000000001
   273   1      7.6600000000000037      24.895000000000007      24.895000000000007
   274   1      9.5750000000000028      22.980000000000004      24.895000000000007
   275   1      9.5750000000000028      24.895000000000007      22.980000000000004
   276   1      7.6600000000000037      24.895000000000007      28.725000000000001
   277   1      9.5750000000000028      22.980000000000004      28.725000000000001
   278   1      9.5750000000000028      24.895000000000007      26.810000000000006
   279   1      7.6600000000000037      24.895000000000007      32.555000000000007
   280   1      9.5750000000000028      22.980000000000004      32.555000000000007
   281   1      9.5750000000000028      24.895000000000007      30.640000000000001
   282   1      7.6600000000000037      24.895000000000007      36.384999999999998
   283   1      9.5750000000000028      22.980000000000004      36.384999999999998
   284   1      9.5750000000000028      24.895000000000007      34.469999999999999
   285   1      7.6600000000000037      24.895000000000007      40.215000000000003
   286   1      9.5750000000000028      22.980000000000004      40.215000000000003
   287   1      9.5750000000000028      24.895000000000007      38.300000000000011
   288   1      7.6600000000000037      24.895000000000007      44.045000000000009
   289   1      9.5750000000000028      22.980000000000004      44.045000000000009
   290   1      9.5750000000000028      24.895000000000007      42.130000000000003
   291   1      7.6600000000000037      24.895000000000007                  47.875
   292   1      9.5750000000000028      22.980000000000004                  47.875
   293   1      9.5750000000000028      24.895000000000007      45.960000000000008
   294   1      7.6600000000000037      24.895000000000007      51.705000000000005
   295   1      9.5750000000000028      22.980000000000004      51.705000000000005
   296   1      9.5750000000000028      24.895000000000007      49.790000000000013
   297   1      7.6600000000000037      24.895000000000007      55.535000000000011
   298   1      9.5750000000000028      22.980000000000004      55.535000000000011
   299   1      9.5750000000000028      24.895000000000007      53.620000000000012
   300   1      7.6600000000000037      24.895000000000007      59.365000000000009
   301   1      9.5750000000000028      22.980000000000004      59.365000000000009
   302   1      9.5750000000000028      24.895000000000007      57.450000000000003
   303   1      7.6600000000000037      24.895000000000007      63.195000000000014
   304   1      9.5750000000000028      22.980000000000004      63.195000000000014
   305   1      9.5750000000000028      24.895000000000007      61.280000000000001
   306   1      7.6600000000000037      24.895000000000007      67.025000000000006
   307   1      9.5750000000000028      22.980000000000004      67.025000000000006
   308   1      9.5750000000000028      24.895000000000007      65.110000000000014
   309   1      9.5750000000000028      22.980000000000004      70.855000000000004
   310   1      9.5750000000000028      24.895000000000007      68.939999999999998
   311   1      9.5750000000000028      26.810000000000006      21.065000000000001
   312   1      7.6600000000000037      28.725000000000001      24.895000000000007
   313   1      9.5750000000000028      26.810000000000006      24.895000000000007
   314   1      9.5750000000000028      28.725000000000001      22.980000000000004
   315   1      7.6600000000000037      26.810000000000006      26.810000000000006
   316   1      7.6600000000000037      28.725000000000001      28.725000000000001
   317   1      9.5750000000000028      26.810000000000006      28.725000000000001
   318   1      9.5750000000000028      28.725000000000001      26.810000000000006
   319   1      7.6600000000000037      26.810000000000006      30.640000000000001
   320   1      7.6600000000000037      28.725000000000001      32.555000000000007
   321   1      9.5750000000000028      26.810000000000006      32.555000000000007
   322   1      9.5750000000000028      28.725000000000001      30.640000000000001
   323   1      7.6600000000000037      26.810000000000006      34.469999999999999
   324   1      7.6600000000000037      28.725000000000001      36.384999999999998
   325   1      9.5750000000000028      26.810000000000006      36.384999999999998
   326   1      9.5750000000000028      28.725000000000001      34.469999999999999
   327   1      7.6600000000000037      26.810000000000006      38.300000000000011
   328   1      7.6600000000000037      28.725000000000001      40.215000000000003
   329   1      9.5750000000000028      26.810000000000006      40.215000000000003
   330   1      9.5750000000000028      28.725000000000001      38.300000000000011
   331   1      7.6600000000000037      26.810000000000006      42.130000000000003
   332   1      7.6600000000000037      28.725000000000001      44.045000000000009
   333   1      9.5750000000000028      26.810000000000006      44.045000000000009
   334   1      9.5750000000000028      28.725000000000001      42.130000000000003
   335   1      7.6600000000000037      26.810000000000006      45.960000000000008
   336   1      7.6600000000000037      28.725000000000001                  47.875
   337   1      9.5750000000000028      26.810000000000006                  47.875
   338   1      9.5750000000000028      28.725000000000001      45.960000000000008
   339   1      7.6600000000000037      26.810000000000006      49.790000000000013
   340   1      7.6600000000000037      28.725000000000001      51.705000000000005
   341   1      9.5750000000000028      26.810000000000006      51.705000000000005
   342   1      9.5750000000000028      28.725000000000001      49.790000000000013
   343   1      7.6600000000000037      26.810000000000006      53.620000000000012
   344   1      7.6600000000000037      28.725000000000001      55.535000000000011
   345   1      9.5750000000000028      26.810000000000006      55.535000000000011
   346   1      9.5750000000000028      28.725000000000001      53.620000000000012
   347   1      7.6600000000000037      26.810000000000006      57.450000000000003
   348   1      7.6600000000000037      28.725000000000001      59.365000000000009
   349   1      9.5750000000000028      26.810000000000006      59.365000000000009
   350   1      9.5750000000000028      28.725000000000001      57.450000000000003
   351   1      7.6600000000000037      26.810000000000006      61.280000000000001
   352   1      7.6600000000000037      28.725000000000001      63.195000000000014
   353   1      9.5750000000000028      26.810000000000006      63.195000000000014
   354   1      9.5750000000000028      28.725000000000001      61.280000000000001
   355   1      7.6600000000000037      26.810000000000006      65.110000000000014
   356   1      7.6600000000000037      28.725000000000001      67.025000000000006
   357   1      9.5750000000000028      26.810000000000006      67.025000000000006
   358   1      9.5750000000000028      28.725000000000001      65.110000000000014