model_files/PdCo/PdCo_30000/PdCo_544/PdCo_544_fcc_30001_temp.data (written by ASE) 

30001 	 atoms 
2  atom types
0.0                     121  xlo xhi
0.0                     121  ylo yhi
0.0                     121  zlo zhi


Atoms 

     1   1                   1.875      58.125000000000007                      60
     2   1                   1.875                      60      58.125000000000007
     3   1                       0                      60                      60
     4   1                   1.875                      60                  61.875
     5   1                   1.875                  61.875                      60
     6   1                   5.625      54.375000000000007                      60
     7   1                    3.75      58.125000000000007      58.125000000000007
     8   1                   5.625                   56.25      58.125000000000007
     9   1                   5.625      58.125000000000007                   56.25
    10   1                    3.75                   56.25                      60
    11   1                    3.75      58.125000000000007                  61.875
    12   1                   5.625                   56.25                  61.875
    13   1                   5.625      58.125000000000007                      60
    14   1                   5.625      58.125000000000007      63.749999999999993
    15   1                   5.625                      60      54.375000000000007
    16   1                    3.75                      60                   56.25
    17   1                    3.75                  61.875      58.125000000000007
    18   1                   5.625                      60      58.125000000000007
    19   1                   5.625                  61.875                   56.25
    20   1                    3.75                      60                      60
    21   1                    3.75                  61.875                  61.875
    22   1                   5.625                      60                  61.875
    23   1                   5.625                  61.875                      60
    24   1                    3.75                      60      63.749999999999993
    25   1                   5.625                      60                  65.625
    26   1                   5.625                  61.875      63.749999999999993
    27   1                   5.625      63.749999999999993      58.125000000000007
    28   1                    3.75      63.749999999999993                      60
    29   1                   5.625      63.749999999999993                  61.875
    30   1                   5.625                  65.625                      60
    31   1                   9.375                  46.875                      60
    32   1                   9.375                   48.75      58.125000000000007
    33   1                   9.375                  50.625                   56.25
    34   1                   9.375                   48.75                  61.875
    35   1                   9.375                  50.625                      60
    36   1                   9.375                  50.625      63.749999999999993
    37   1                   9.375                    52.5      54.375000000000007
    38   1                   9.375      54.375000000000007                    52.5
    39   1                     7.5      54.375000000000007      58.125000000000007
    40   1                   9.375                    52.5      58.125000000000007
    41   1                   9.375      54.375000000000007                   56.25
    42   1                     7.5                    52.5                      60
    43   1                     7.5      54.375000000000007                  61.875
    44   1                   9.375                    52.5                  61.875
    45   1                   9.375      54.375000000000007                      60
    46   1                   9.375                    52.5                  65.625
    47   1                   9.375      54.375000000000007      63.749999999999993
    48   1                   9.375      54.375000000000007                    67.5
    49   1                   9.375                   56.25                  50.625
    50   1                   9.375      58.125000000000007                   48.75
    51   1                     7.5      58.125000000000007      54.375000000000007
    52   1                   9.375                   56.25      54.375000000000007
    53   1                   9.375      58.125000000000007                    52.5
    54   1                     7.5                   56.25                   56.25
    55   1                     7.5      58.125000000000007      58.125000000000007
    56   1                   9.375                   56.25      58.125000000000007
    57   1                   9.375      58.125000000000007                   56.25
    58   1                     7.5                   56.25                      60
    59   1                     7.5      58.125000000000007                  61.875
    60   1                   9.375                   56.25                  61.875
    61   1                   9.375      58.125000000000007                      60
    62   1                     7.5                   56.25      63.749999999999993
    63   1                     7.5      58.125000000000007                  65.625
    64   1                   9.375                   56.25                  65.625
    65   1                   9.375      58.125000000000007      63.749999999999993
    66   1                   9.375                   56.25                  69.375
    67   1                   9.375      58.125000000000007                    67.5
    68   1                   9.375      58.125000000000007                   71.25
    69   1                   9.375                      60                  46.875
    70   1                   9.375                      60                  50.625
    71   1                   9.375                  61.875                   48.75
    72   1                     7.5                      60                    52.5
    73   1                     7.5                  61.875      54.375000000000007
    74   1                   9.375                      60      54.375000000000007
    75   1                   9.375                  61.875                    52.5
    76   1                     7.5                      60                   56.25
    77   1                     7.5                  61.875      58.125000000000007
    78   1                   9.375                      60      58.125000000000007
    79   1                   9.375                  61.875                   56.25
    80   1                     7.5                      60                      60
    81   1                     7.5                  61.875                  61.875
    82   1                   9.375                      60                  61.875
    83   1                   9.375                  61.875                      60
    84   1                     7.5                      60      63.749999999999993
    85   1                     7.5                  61.875                  65.625
    86   1                   9.375                      60                  65.625
    87   1                   9.375                  61.875      63.749999999999993
    88   1                     7.5                      60                    67.5
    89   1                   9.375                      60                  69.375
    90   1                   9.375                  61.875                    67.5
    91   1                   9.375                      60      73.125000000000014
    92   1                   9.375                  61.875                   71.25
    93   1                   9.375      63.749999999999993                  50.625
    94   1                   9.375      63.749999999999993      54.375000000000007
    95   1                   9.375                  65.625                    52.5
    96   1                     7.5      63.749999999999993                   56.25
    97   1                     7.5                  65.625      58.125000000000007
    98   1                   9.375      63.749999999999993      58.125000000000007
    99   1                   9.375                  65.625                   56.25
   100   1                     7.5      63.749999999999993                      60
   101   1                     7.5                  65.625                  61.875
   102   1                   9.375      63.749999999999993                  61.875
   103   1                   9.375                  65.625                      60
   104   1                     7.5      63.749999999999993      63.749999999999993
   105   1                   9.375      63.749999999999993                  65.625
   106   1                   9.375                  65.625      63.749999999999993
   107   1                   9.375      63.749999999999993                  69.375
   108   1                   9.375                  65.625                    67.5
   109   1                   9.375                    67.5      54.375000000000007
   110   1                   9.375                    67.5      58.125000000000007
   111   1                   9.375                  69.375                   56.25
   112   1                     7.5                    67.5                      60
   113   1                   9.375                    67.5                  61.875
   114   1                   9.375                  69.375                      60
   115   1                   9.375                    67.5                  65.625
   116   1                   9.375                  69.375      63.749999999999993
   117   1                   9.375                   71.25      58.125000000000007
   118   1                   9.375                   71.25                  61.875
   119   1                   9.375      73.125000000000014                      60
   120   1                  13.125                  43.125                      60
   121   1                   11.25                  46.875      58.125000000000007
   122   1                  13.125                      45      58.125000000000007
   123   1                  13.125                  46.875                   56.25
   124   1                   11.25                      45                      60
   125   1                   11.25                  46.875                  61.875
   126   1                  13.125                      45                  61.875
   127   1                  13.125                  46.875                      60
   128   1                  13.125                  46.875      63.749999999999993
   129   1                   11.25                  50.625      54.375000000000007
   130   1                  13.125                   48.75      54.375000000000007
   131   1                  13.125                  50.625                    52.5
   132   1                   11.25                   48.75                   56.25
   133   1                   11.25                  50.625      58.125000000000007
   134   1                  13.125                   48.75      58.125000000000007
   135   1                  13.125                  50.625                   56.25
   136   1                   11.25                   48.75                      60
   137   1                   11.25                  50.625                  61.875
   138   1                  13.125                   48.75                  61.875
   139   1                  13.125                  50.625                      60
   140   1                   11.25                   48.75      63.749999999999993
   141   1                   11.25                  50.625                  65.625
   142   1                  13.125                   48.75                  65.625
   143   1                  13.125                  50.625      63.749999999999993
   144   1                  13.125                  50.625                    67.5
   145   1                   11.25      54.375000000000007                  50.625
   146   1                  13.125                    52.5                  50.625
   147   1                  13.125      54.375000000000007                   48.75
   148   1                   11.25                    52.5                    52.5
   149   1                   11.25      54.375000000000007      54.375000000000007
   150   1                  13.125                    52.5      54.375000000000007
   151   1                  13.125      54.375000000000007                    52.5
   152   1                   11.25                    52.5                   56.25
   153   1                   11.25      54.375000000000007      58.125000000000007
   154   1                  13.125                    52.5      58.125000000000007
   155   1                  13.125      54.375000000000007                   56.25
   156   1                   11.25                    52.5                      60
   157   1                   11.25      54.375000000000007                  61.875
   158   1                  13.125                    52.5                  61.875
   159   1                  13.125      54.375000000000007                      60
   160   1                   11.25                    52.5      63.749999999999993
   161   1                   11.25      54.375000000000007                  65.625
   162   1                  13.125                    52.5                  65.625
   163   1                  13.125      54.375000000000007      63.749999999999993
   164   1                   11.25                    52.5                    67.5
   165   1                   11.25      54.375000000000007                  69.375
   166   1                  13.125                    52.5                  69.375
   167   1                  13.125      54.375000000000007                    67.5
   168   1                  13.125      54.375000000000007                   71.25
   169   1                   11.25      58.125000000000007                  46.875
   170   1                  13.125                   56.25                  46.875
   171   1                  13.125      58.125000000000007                      45
   172   1                   11.25                   56.25                   48.75
   173   1                   11.25      58.125000000000007                  50.625
   174   1                  13.125                   56.25                  50.625
   175   1                  13.125      58.125000000000007                   48.75
   176   1                   11.25                   56.25                    52.5
   177   1                   11.25      58.125000000000007      54.375000000000007
   178   1                  13.125                   56.25      54.375000000000007
   179   1                  13.125      58.125000000000007                    52.5
   180   1                   11.25                   56.25                   56.25
   181   1                   11.25      58.125000000000007      58.125000000000007
   182   1                  13.125                   56.25      58.125000000000007
   183   1                  13.125      58.125000000000007                   56.25
   184   1                   11.25                   56.25                      60
   185   1                   11.25      58.125000000000007                  61.875
   186   1                  13.125                   56.25                  61.875
   187   1                  13.125      58.125000000000007                      60
   188   1                   11.25                   56.25      63.749999999999993
   189   1                   11.25      58.125000000000007                  65.625
   190   1                  13.125                   56.25                  65.625
   191   1                  13.125      58.125000000000007      63.749999999999993
   192   1                   11.25                   56.25                    67.5
   193   1                   11.25      58.125000000000007                  69.375
   194   1                  13.125                   56.25                  69.375
   195   1                  13.125      58.125000000000007                    67.5
   196   1                   11.25                   56.25                   71.25
   197   1                   11.25      58.125000000000007      73.125000000000014
   198   1                  13.125                   56.25      73.125000000000014
   199   1                  13.125      58.125000000000007                   71.25
   200   1                  13.125      58.125000000000007                      75
   201   1                  13.125                      60                  43.125
   202   1                   11.25                      60                      45
   203   1                   11.25                  61.875                  46.875
   204   1                  13.125                      60                  46.875
   205   1                  13.125                  61.875                      45
   206   1                   11.25                      60                   48.75
   207   1                   11.25                  61.875                  50.625
   208   1                  13.125                      60                  50.625
   209   1                  13.125                  61.875                   48.75
   210   1                   11.25                      60                    52.5
   211   1                   11.25                  61.875      54.375000000000007
   212   1                  13.125                      60      54.375000000000007
   213   1                  13.125                  61.875                    52.5
   214   1                   11.25                      60                   56.25
   215   1                   11.25                  61.875      58.125000000000007
   216   1                  13.125                      60      58.125000000000007
   217   1                  13.125                  61.875                   56.25
   218   1                   11.25                      60                      60
   219   1                   11.25                  61.875                  61.875
   220   1                  13.125                      60                  61.875
   221   1                  13.125                  61.875                      60
   222   1                   11.25                      60      63.749999999999993
   223   1                   11.25                  61.875                  65.625
   224   1                  13.125                      60                  65.625
   225   1                  13.125                  61.875      63.749999999999993
   226   1                   11.25                      60                    67.5
   227   1                   11.25                  61.875                  69.375
   228   1                  13.125                      60                  69.375
   229   1                  13.125                  61.875                    67.5
   230   1                   11.25                      60                   71.25
   231   1                   11.25                  61.875      73.125000000000014
   232   1                  13.125                      60      73.125000000000014
   233   1                  13.125                  61.875                   71.25
   234   1                   11.25                      60                      75
   235   1                  13.125                      60                  76.875
   236   1                  13.125                  61.875                      75
   237   1                  13.125      63.749999999999993                  46.875
   238   1                   11.25      63.749999999999993                   48.75
   239   1                   11.25                  65.625                  50.625
   240   1                  13.125      63.749999999999993                  50.625
   241   1                  13.125                  65.625                   48.75
   242   1                   11.25      63.749999999999993                    52.5
   243   1                   11.25                  65.625      54.375000000000007
   244   1                  13.125      63.749999999999993      54.375000000000007
   245   1                  13.125                  65.625                    52.5
   246   1                   11.25      63.749999999999993                   56.25
   247   1                   11.25                  65.625      58.125000000000007
   248   1                  13.125      63.749999999999993      58.125000000000007
   249   1                  13.125                  65.625                   56.25
   250   1                   11.25      63.749999999999993                      60
   251   1                   11.25                  65.625                  61.875
   252   1                  13.125      63.749999999999993                  61.875
   253   1                  13.125                  65.625                      60
   254   1                   11.25      63.749999999999993      63.749999999999993
   255   1                   11.25                  65.625                  65.625
   256   1                  13.125      63.749999999999993                  65.625
   257   1                  13.125                  65.625      63.749999999999993
   258   1                   11.25      63.749999999999993                    67.5
   259   1                   11.25                  65.625                  69.375
   260   1                  13.125      63.749999999999993                  69.375
   261   1                  13.125                  65.625                    67.5
   262   1                   11.25      63.749999999999993                   71.25
   263   1                  13.125      63.749999999999993      73.125000000000014
   264   1                  13.125                  65.625                   71.25
   265   1                  13.125                    67.5                  50.625
   266   1                   11.25                    67.5                    52.5
   267   1                   11.25                  69.375      54.375000000000007
   268   1                  13.125                    67.5      54.375000000000007
   269   1                  13.125                  69.375                    52.5
   270   1                   11.25                    67.5                   56.25
   271   1                   11.25                  69.375      58.125000000000007
   272   1                  13.125                    67.5      58.125000000000007
   273   1                  13.125                  69.375                   56.25
   274   1                   11.25                    67.5                      60
   275   1                   11.25                  69.375                  61.875
   276   1                  13.125                    67.5                  61.875
   277   1                  13.125                  69.375                      60
   278   1                   11.25                    67.5      63.749999999999993
   279   1                   11.25                  69.375                  65.625
   280   1                  13.125                    67.5                  65.625
   281   1                  13.125                  69.375      63.749999999999993
   282   1                   11.25                    67.5                    67.5
   283   1                  13.125                    67.5                  69.375
   284   1                  13.125                  69.375                    67.5
   285   1                  13.125                   71.25      54.375000000000007
   286   1                   11.25                   71.25                   56.25
   287   1                   11.25      73.125000000000014      58.125000000000007
   288   1                  13.125                   71.25      58.125000000000007
   289   1                  13.125      73.125000000000014                   56.25
   290   1                   11.25                   71.25                      60
   291   1                   11.25      73.125000000000014                  61.875
   292   1                  13.125                   71.25                  61.875
   293   1                  13.125      73.125000000000014                      60
   294   1                   11.25                   71.25      63.749999999999993
   295   1                  13.125                   71.25                  65.625
   296   1                  13.125      73.125000000000014      63.749999999999993
   297   1                  13.125                      75      58.125000000000007
   298   1                   11.25                      75                      60
   299   1                  13.125                      75                  61.875
   300   1                  13.125                  76.875                      60
   301   1                  16.875                  39.375                      60
   302   1                      15                  43.125      58.125000000000007
   303   1                  16.875      41.250000000000007      58.125000000000007
   304   1                  16.875                  43.125                   56.25
   305   1                      15      41.250000000000007                      60
   306   1                      15                  43.125                  61.875
   307   1                  16.875      41.250000000000007                  61.875
   308   1                  16.875                  43.125                      60
   309   1                  16.875                  43.125      63.749999999999993
   310   1                      15                  46.875      54.375000000000007
   311   1                  16.875                      45      54.375000000000007
   312   1                  16.875                  46.875                    52.5
   313   1                      15                      45                   56.25
   314   1                      15                  46.875      58.125000000000007
   315   1                  16.875                      45      58.125000000000007
   316   1                  16.875                  46.875                   56.25
   317   1                      15                      45                      60
   318   1                      15                  46.875                  61.875
   319   1                  16.875                      45                  61.875
   320   1                  16.875                  46.875                      60
   321   1                      15                      45      63.749999999999993
   322   1                      15                  46.875                  65.625
   323   1                  16.875                      45                  65.625
   324   1                  16.875                  46.875      63.749999999999993
   325   1                  16.875                  46.875                    67.5
   326   1                      15                  50.625                  50.625
   327   1                  16.875                   48.75                  50.625
   328   1                  16.875                  50.625                   48.75
   329   1                      15                   48.75                    52.5
   330   1                      15                  50.625      54.375000000000007
   331   1                  16.875                   48.75      54.375000000000007
   332   1                  16.875                  50.625                    52.5
   333   1                      15                   48.75                   56.25
   334   1                      15                  50.625      58.125000000000007
   335   1                  16.875                   48.75      58.125000000000007
   336   1                  16.875                  50.625                   56.25
   337   1                      15                   48.75                      60
   338   1                      15                  50.625                  61.875
   339   1                  16.875                   48.75                  61.875
   340   1                  16.875                  50.625                      60
   341   1                      15                   48.75      63.749999999999993
   342   1                      15                  50.625                  65.625
   343   1                  16.875                   48.75                  65.625
   344   1                  16.875                  50.625      63.749999999999993
   345   1                      15                   48.75                    67.5
   346   1                      15                  50.625                  69.375
   347   1                  16.875                   48.75                  69.375
   348   1                  16.875                  50.625                    67.5
   349   1                  16.875                  50.625                   71.25
   350   1                      15      54.375000000000007                  46.875
   351   1                  16.875                    52.5                  46.875
   352   1                  16.875      54.375000000000007                      45
   353   1                      15                    52.5                   48.75
   354   1                      15      54.375000000000007                  50.625
   355   1                  16.875                    52.5                  50.625
   356   1                  16.875      54.375000000000007                   48.75
   357   1                      15                    52.5                    52.5
   358   1                      15      54.375000000000007      54.375000000000007