model_files/CuFeNi/CuFeNi_30000/CuFeNi_210/CuFeNi_210_fcc_30389_temp.data (written by ASE) 

30389 	 atoms 
3  atom types
0.0                      91  xlo xhi
0.0                      91  ylo yhi
0.0                      91  zlo zhi


Atoms 

     1   1  7.1054273576010019e-15      42.960000000000015      44.750000000000014
     2   1  7.1054273576010019e-15      44.750000000000014      42.960000000000015
     3   1  7.1054273576010019e-15      44.750000000000014      46.540000000000013
     4   1  7.1054273576010019e-15      46.540000000000013      44.750000000000014
     5   1      3.5800000000000058      35.800000000000011      37.590000000000011
     6   1      3.5800000000000058      35.800000000000011      41.170000000000016
     7   1      3.5800000000000058      35.800000000000011      44.750000000000014
     8   1      3.5800000000000058      35.800000000000011      48.330000000000013
     9   1      3.5800000000000058      35.800000000000011      51.910000000000011
    10   1      3.5800000000000058      37.590000000000011      35.800000000000011
    11   1      1.7900000000000063      39.380000000000017      39.380000000000017
    12   1      3.5800000000000058      37.590000000000011      39.380000000000017
    13   1      3.5800000000000058      39.380000000000017      37.590000000000011
    14   1      1.7900000000000063      39.380000000000017      42.960000000000015
    15   1      3.5800000000000058      37.590000000000011      42.960000000000015
    16   1      3.5800000000000058      39.380000000000017      41.170000000000016
    17   1      1.7900000000000063      39.380000000000017      46.540000000000013
    18   1      3.5800000000000058      37.590000000000011      46.540000000000013
    19   1      3.5800000000000058      39.380000000000017      44.750000000000014
    20   1      1.7900000000000063      39.380000000000017      50.120000000000012
    21   1      3.5800000000000058      37.590000000000011      50.120000000000012
    22   1      3.5800000000000058      39.380000000000017      48.330000000000013
    23   1      3.5800000000000058      37.590000000000011       53.70000000000001
    24   1      3.5800000000000058      39.380000000000017      51.910000000000011
    25   1      3.5800000000000058      41.170000000000016      35.800000000000011
    26   1      1.7900000000000063      42.960000000000015      39.380000000000017
    27   1      3.5800000000000058      41.170000000000016      39.380000000000017
    28   1      3.5800000000000058      42.960000000000015      37.590000000000011
    29   1      1.7900000000000063      41.170000000000016      41.170000000000016
    30   1      1.7900000000000063      42.960000000000015      42.960000000000015
    31   1      3.5800000000000058      41.170000000000016      42.960000000000015
    32   1      3.5800000000000058      42.960000000000015      41.170000000000016
    33   1      1.7900000000000063      41.170000000000016      44.750000000000014
    34   1      1.7900000000000063      42.960000000000015      46.540000000000013
    35   1      3.5800000000000058      41.170000000000016      46.540000000000013
    36   1      3.5800000000000058      42.960000000000015      44.750000000000014
    37   1      1.7900000000000063      41.170000000000016      48.330000000000013
    38   1      1.7900000000000063      42.960000000000015      50.120000000000012
    39   1      3.5800000000000058      41.170000000000016      50.120000000000012
    40   1      3.5800000000000058      42.960000000000015      48.330000000000013
    41   1      3.5800000000000058      41.170000000000016       53.70000000000001
    42   1      3.5800000000000058      42.960000000000015      51.910000000000011
    43   1      3.5800000000000058      44.750000000000014      35.800000000000011
    44   1      1.7900000000000063      46.540000000000013      39.380000000000017
    45   1      3.5800000000000058      44.750000000000014      39.380000000000017
    46   1      3.5800000000000058      46.540000000000013      37.590000000000011
    47   1      1.7900000000000063      44.750000000000014      41.170000000000016
    48   1      1.7900000000000063      46.540000000000013      42.960000000000015
    49   1      3.5800000000000058      44.750000000000014      42.960000000000015
    50   1      3.5800000000000058      46.540000000000013      41.170000000000016
    51   1      1.7900000000000063      44.750000000000014      44.750000000000014
    52   1      1.7900000000000063      46.540000000000013      46.540000000000013
    53   1      3.5800000000000058      44.750000000000014      46.540000000000013
    54   1      3.5800000000000058      46.540000000000013      44.750000000000014
    55   1      1.7900000000000063      44.750000000000014      48.330000000000013
    56   1      1.7900000000000063      46.540000000000013      50.120000000000012
    57   1      3.5800000000000058      44.750000000000014      50.120000000000012
    58   1      3.5800000000000058      46.540000000000013      48.330000000000013
    59   1      3.5800000000000058      44.750000000000014       53.70000000000001
    60   1      3.5800000000000058      46.540000000000013      51.910000000000011
    61   1      3.5800000000000058      48.330000000000013      35.800000000000011
    62   1      1.7900000000000063      50.120000000000012      39.380000000000017
    63   1      3.5800000000000058      48.330000000000013      39.380000000000017
    64   1      3.5800000000000058      50.120000000000012      37.590000000000011
    65   1      1.7900000000000063      48.330000000000013      41.170000000000016
    66   1      1.7900000000000063      50.120000000000012      42.960000000000015
    67   1      3.5800000000000058      48.330000000000013      42.960000000000015
    68   1      3.5800000000000058      50.120000000000012      41.170000000000016
    69   1      1.7900000000000063      48.330000000000013      44.750000000000014
    70   1      1.7900000000000063      50.120000000000012      46.540000000000013
    71   1      3.5800000000000058      48.330000000000013      46.540000000000013
    72   1      3.5800000000000058      50.120000000000012      44.750000000000014
    73   1      1.7900000000000063      48.330000000000013      48.330000000000013
    74   1      1.7900000000000063      50.120000000000012      50.120000000000012
    75   1      3.5800000000000058      48.330000000000013      50.120000000000012
    76   1      3.5800000000000058      50.120000000000012      48.330000000000013
    77   1      3.5800000000000058      48.330000000000013       53.70000000000001
    78   1      3.5800000000000058      50.120000000000012      51.910000000000011
    79   1      3.5800000000000058      51.910000000000011      35.800000000000011
    80   1      3.5800000000000058      51.910000000000011      39.380000000000017
    81   1      3.5800000000000058       53.70000000000001      37.590000000000011
    82   1      3.5800000000000058      51.910000000000011      42.960000000000015
    83   1      3.5800000000000058       53.70000000000001      41.170000000000016
    84   1      3.5800000000000058      51.910000000000011      46.540000000000013
    85   1      3.5800000000000058       53.70000000000001      44.750000000000014
    86   1      3.5800000000000058      51.910000000000011      50.120000000000012
    87   1      3.5800000000000058       53.70000000000001      48.330000000000013
    88   1      3.5800000000000058      51.910000000000011       53.70000000000001
    89   1      3.5800000000000058       53.70000000000001      51.910000000000011
    90   1      7.1600000000000037      28.640000000000011       30.43000000000001
    91   1      7.1600000000000037      28.640000000000011      34.010000000000012
    92   1      7.1600000000000037      28.640000000000011      37.590000000000011
    93   1      7.1600000000000037      28.640000000000011      41.170000000000016
    94   1      7.1600000000000037      28.640000000000011      44.750000000000014
    95   1      7.1600000000000037      28.640000000000011      48.330000000000013
    96   1      7.1600000000000037      28.640000000000011      51.910000000000011
    97   1      7.1600000000000037      28.640000000000011      55.490000000000009
    98   1      7.1600000000000037      28.640000000000011      59.070000000000007
    99   1      7.1600000000000037       30.43000000000001      28.640000000000011
   100   1      5.3700000000000125      32.220000000000013      32.220000000000013
   101   1      7.1600000000000037       30.43000000000001      32.220000000000013
   102   1      7.1600000000000037      32.220000000000013       30.43000000000001
   103   1      5.3700000000000125      32.220000000000013      35.800000000000011
   104   1      7.1600000000000037       30.43000000000001      35.800000000000011
   105   1      7.1600000000000037      32.220000000000013      34.010000000000012
   106   1      5.3700000000000125      32.220000000000013      39.380000000000017
   107   1      7.1600000000000037       30.43000000000001      39.380000000000017
   108   1      7.1600000000000037      32.220000000000013      37.590000000000011
   109   1      5.3700000000000125      32.220000000000013      42.960000000000015
   110   1      7.1600000000000037       30.43000000000001      42.960000000000015
   111   1      7.1600000000000037      32.220000000000013      41.170000000000016
   112   1      5.3700000000000125      32.220000000000013      46.540000000000013
   113   1      7.1600000000000037       30.43000000000001      46.540000000000013
   114   1      7.1600000000000037      32.220000000000013      44.750000000000014
   115   1      5.3700000000000125      32.220000000000013      50.120000000000012
   116   1      7.1600000000000037       30.43000000000001      50.120000000000012
   117   1      7.1600000000000037      32.220000000000013      48.330000000000013
   118   1      5.3700000000000125      32.220000000000013       53.70000000000001
   119   1      7.1600000000000037       30.43000000000001       53.70000000000001
   120   1      7.1600000000000037      32.220000000000013      51.910000000000011
   121   1      5.3700000000000125      32.220000000000013      57.280000000000008
   122   1      7.1600000000000037       30.43000000000001      57.280000000000008
   123   1      7.1600000000000037      32.220000000000013      55.490000000000009
   124   1      7.1600000000000037       30.43000000000001      60.860000000000014
   125   1      7.1600000000000037      32.220000000000013      59.070000000000007
   126   1      7.1600000000000037      34.010000000000012      28.640000000000011
   127   1      5.3700000000000125      35.800000000000011      32.220000000000013
   128   1      7.1600000000000037      34.010000000000012      32.220000000000013
   129   1      7.1600000000000037      35.800000000000011       30.43000000000001
   130   1      5.3700000000000125      34.010000000000012      34.010000000000012
   131   1      5.3700000000000125      35.800000000000011      35.800000000000011
   132   1      7.1600000000000037      34.010000000000012      35.800000000000011
   133   1      7.1600000000000037      35.800000000000011      34.010000000000012
   134   1      5.3700000000000125      34.010000000000012      37.590000000000011
   135   1      5.3700000000000125      35.800000000000011      39.380000000000017
   136   1      7.1600000000000037      34.010000000000012      39.380000000000017
   137   1      7.1600000000000037      35.800000000000011      37.590000000000011
   138   1      5.3700000000000125      34.010000000000012      41.170000000000016
   139   1      5.3700000000000125      35.800000000000011      42.960000000000015
   140   1      7.1600000000000037      34.010000000000012      42.960000000000015
   141   1      7.1600000000000037      35.800000000000011      41.170000000000016
   142   1      5.3700000000000125      34.010000000000012      44.750000000000014
   143   1      5.3700000000000125      35.800000000000011      46.540000000000013
   144   1      7.1600000000000037      34.010000000000012      46.540000000000013
   145   1      7.1600000000000037      35.800000000000011      44.750000000000014
   146   1      5.3700000000000125      34.010000000000012      48.330000000000013
   147   1      5.3700000000000125      35.800000000000011      50.120000000000012
   148   1      7.1600000000000037      34.010000000000012      50.120000000000012
   149   1      7.1600000000000037      35.800000000000011      48.330000000000013
   150   1      5.3700000000000125      34.010000000000012      51.910000000000011
   151   1      5.3700000000000125      35.800000000000011       53.70000000000001
   152   1      7.1600000000000037      34.010000000000012       53.70000000000001
   153   1      7.1600000000000037      35.800000000000011      51.910000000000011
   154   1      5.3700000000000125      34.010000000000012      55.490000000000009
   155   1      5.3700000000000125      35.800000000000011      57.280000000000008
   156   1      7.1600000000000037      34.010000000000012      57.280000000000008
   157   1      7.1600000000000037      35.800000000000011      55.490000000000009
   158   1      7.1600000000000037      34.010000000000012      60.860000000000014
   159   1      7.1600000000000037      35.800000000000011      59.070000000000007
   160   1      7.1600000000000037      37.590000000000011      28.640000000000011
   161   1      5.3700000000000125      39.380000000000017      32.220000000000013
   162   1      7.1600000000000037      37.590000000000011      32.220000000000013
   163   1      7.1600000000000037      39.380000000000017       30.43000000000001
   164   1      5.3700000000000125      37.590000000000011      34.010000000000012
   165   1      5.3700000000000125      39.380000000000017      35.800000000000011
   166   1      7.1600000000000037      37.590000000000011      35.800000000000011
   167   1      7.1600000000000037      39.380000000000017      34.010000000000012
   168   1      5.3700000000000125      37.590000000000011      37.590000000000011
   169   1      5.3700000000000125      39.380000000000017      39.380000000000017
   170   1      7.1600000000000037      37.590000000000011      39.380000000000017
   171   1      7.1600000000000037      39.380000000000017      37.590000000000011
   172   1      5.3700000000000125      37.590000000000011      41.170000000000016
   173   1      5.3700000000000125      39.380000000000017      42.960000000000015
   174   1      7.1600000000000037      37.590000000000011      42.960000000000015
   175   1      7.1600000000000037      39.380000000000017      41.170000000000016
   176   1      5.3700000000000125      37.590000000000011      44.750000000000014
   177   1      5.3700000000000125      39.380000000000017      46.540000000000013
   178   1      7.1600000000000037      37.590000000000011      46.540000000000013
   179   1      7.1600000000000037      39.380000000000017      44.750000000000014
   180   1      5.3700000000000125      37.590000000000011      48.330000000000013
   181   1      5.3700000000000125      39.380000000000017      50.120000000000012
   182   1      7.1600000000000037      37.590000000000011      50.120000000000012
   183   1      7.1600000000000037      39.380000000000017      48.330000000000013
   184   1      5.3700000000000125      37.590000000000011      51.910000000000011
   185   1      5.3700000000000125      39.380000000000017       53.70000000000001
   186   1      7.1600000000000037      37.590000000000011       53.70000000000001
   187   1      7.1600000000000037      39.380000000000017      51.910000000000011
   188   1      5.3700000000000125      37.590000000000011      55.490000000000009
   189   1      5.3700000000000125      39.380000000000017      57.280000000000008
   190   1      7.1600000000000037      37.590000000000011      57.280000000000008
   191   1      7.1600000000000037      39.380000000000017      55.490000000000009
   192   1      7.1600000000000037      37.590000000000011      60.860000000000014
   193   1      7.1600000000000037      39.380000000000017      59.070000000000007
   194   1      7.1600000000000037      41.170000000000016      28.640000000000011
   195   1      5.3700000000000125      42.960000000000015      32.220000000000013
   196   1      7.1600000000000037      41.170000000000016      32.220000000000013
   197   1      7.1600000000000037      42.960000000000015       30.43000000000001
   198   1      5.3700000000000125      41.170000000000016      34.010000000000012
   199   1      5.3700000000000125      42.960000000000015      35.800000000000011
   200   1      7.1600000000000037      41.170000000000016      35.800000000000011
   201   1      7.1600000000000037      42.960000000000015      34.010000000000012
   202   1      5.3700000000000125      41.170000000000016      37.590000000000011
   203   1      5.3700000000000125      42.960000000000015      39.380000000000017
   204   1      7.1600000000000037      41.170000000000016      39.380000000000017
   205   1      7.1600000000000037      42.960000000000015      37.590000000000011
   206   1      5.3700000000000125      41.170000000000016      41.170000000000016
   207   1      5.3700000000000125      42.960000000000015      42.960000000000015
   208   1      7.1600000000000037      41.170000000000016      42.960000000000015
   209   1      7.1600000000000037      42.960000000000015      41.170000000000016
   210   1      5.3700000000000125      41.170000000000016      44.750000000000014
   211   1      5.3700000000000125      42.960000000000015      46.540000000000013
   212   1      7.1600000000000037      41.170000000000016      46.540000000000013
   213   1      7.1600000000000037      42.960000000000015      44.750000000000014
   214   1      5.3700000000000125      41.170000000000016      48.330000000000013
   215   1      5.3700000000000125      42.960000000000015      50.120000000000012
   216   1      7.1600000000000037      41.170000000000016      50.120000000000012
   217   1      7.1600000000000037      42.960000000000015      48.330000000000013
   218   1      5.3700000000000125      41.170000000000016      51.910000000000011
   219   1      5.3700000000000125      42.960000000000015       53.70000000000001
   220   1      7.1600000000000037      41.170000000000016       53.70000000000001
   221   1      7.1600000000000037      42.960000000000015      51.910000000000011
   222   1      5.3700000000000125      41.170000000000016      55.490000000000009
   223   1      5.3700000000000125      42.960000000000015      57.280000000000008
   224   1      7.1600000000000037      41.170000000000016      57.280000000000008
   225   1      7.1600000000000037      42.960000000000015      55.490000000000009
   226   1      7.1600000000000037      41.170000000000016      60.860000000000014
   227   1      7.1600000000000037      42.960000000000015      59.070000000000007
   228   1      7.1600000000000037      44.750000000000014      28.640000000000011
   229   1      5.3700000000000125      46.540000000000013      32.220000000000013
   230   1      7.1600000000000037      44.750000000000014      32.220000000000013
   231   1      7.1600000000000037      46.540000000000013       30.43000000000001
   232   1      5.3700000000000125      44.750000000000014      34.010000000000012
   233   1      5.3700000000000125      46.540000000000013      35.800000000000011
   234   1      7.1600000000000037      44.750000000000014      35.800000000000011
   235   1      7.1600000000000037      46.540000000000013      34.010000000000012
   236   1      5.3700000000000125      44.750000000000014      37.590000000000011
   237   1      5.3700000000000125      46.540000000000013      39.380000000000017
   238   1      7.1600000000000037      44.750000000000014      39.380000000000017
   239   1      7.1600000000000037      46.540000000000013      37.590000000000011
   240   1      5.3700000000000125      44.750000000000014      41.170000000000016
   241   1      5.3700000000000125      46.540000000000013      42.960000000000015
   242   1      7.1600000000000037      44.750000000000014      42.960000000000015
   243   1      7.1600000000000037      46.540000000000013      41.170000000000016
   244   1      5.3700000000000125      44.750000000000014      44.750000000000014
   245   1      5.3700000000000125      46.540000000000013      46.540000000000013
   246   1      7.1600000000000037      44.750000000000014      46.540000000000013
   247   1      7.1600000000000037      46.540000000000013      44.750000000000014
   248   1      5.3700000000000125      44.750000000000014      48.330000000000013
   249   1      5.3700000000000125      46.540000000000013      50.120000000000012
   250   1      7.1600000000000037      44.750000000000014      50.120000000000012
   251   1      7.1600000000000037      46.540000000000013      48.330000000000013
   252   1      5.3700000000000125      44.750000000000014      51.910000000000011
   253   1      5.3700000000000125      46.540000000000013       53.70000000000001
   254   1      7.1600000000000037      44.750000000000014       53.70000000000001
   255   1      7.1600000000000037      46.540000000000013      51.910000000000011
   256   1      5.3700000000000125      44.750000000000014      55.490000000000009
   257   1      5.3700000000000125      46.540000000000013      57.280000000000008
   258   1      7.1600000000000037      44.750000000000014      57.280000000000008
   259   1      7.1600000000000037      46.540000000000013      55.490000000000009
   260   1      7.1600000000000037      44.750000000000014      60.860000000000014
   261   1      7.1600000000000037      46.540000000000013      59.070000000000007
   262   1      7.1600000000000037      48.330000000000013      28.640000000000011
   263   1      5.3700000000000125      50.120000000000012      32.220000000000013
   264   1      7.1600000000000037      48.330000000000013      32.220000000000013
   265   1      7.1600000000000037      50.120000000000012       30.43000000000001
   266   1      5.3700000000000125      48.330000000000013      34.010000000000012
   267   1      5.3700000000000125      50.120000000000012      35.800000000000011
   268   1      7.1600000000000037      48.330000000000013      35.800000000000011
   269   1      7.1600000000000037      50.120000000000012      34.010000000000012
   270   1      5.3700000000000125      48.330000000000013      37.590000000000011
   271   1      5.3700000000000125      50.120000000000012      39.380000000000017
   272   1      7.1600000000000037      48.330000000000013      39.380000000000017
   273   1      7.1600000000000037      50.120000000000012      37.590000000000011
   274   1      5.3700000000000125      48.330000000000013      41.170000000000016
   275   1      5.3700000000000125      50.120000000000012      42.960000000000015
   276   1      7.1600000000000037      48.330000000000013      42.960000000000015
   277   1      7.1600000000000037      50.120000000000012      41.170000000000016
   278   1      5.3700000000000125      48.330000000000013      44.750000000000014
   279   1      5.3700000000000125      50.120000000000012      46.540000000000013
   280   1      7.1600000000000037      48.330000000000013      46.540000000000013
   281   1      7.1600000000000037      50.120000000000012      44.750000000000014
   282   1      5.3700000000000125      48.330000000000013      48.330000000000013
   283   1      5.3700000000000125      50.120000000000012      50.120000000000012
   284   1      7.1600000000000037      48.330000000000013      50.120000000000012
   285   1      7.1600000000000037      50.120000000000012      48.330000000000013
   286   1      5.3700000000000125      48.330000000000013      51.910000000000011
   287   1      5.3700000000000125      50.120000000000012       53.70000000000001
   288   1      7.1600000000000037      48.330000000000013       53.70000000000001
   289   1      7.1600000000000037      50.120000000000012      51.910000000000011
   290   1      5.3700000000000125      48.330000000000013      55.490000000000009
   291   1      5.3700000000000125      50.120000000000012      57.280000000000008
   292   1      7.1600000000000037      48.330000000000013      57.280000000000008
   293   1      7.1600000000000037      50.120000000000012      55.490000000000009
   294   1      7.1600000000000037      48.330000000000013      60.860000000000014
   295   1      7.1600000000000037      50.120000000000012      59.070000000000007
   296   1      7.1600000000000037      51.910000000000011      28.640000000000011
   297   1      5.3700000000000125       53.70000000000001      32.220000000000013
   298   1      7.1600000000000037      51.910000000000011      32.220000000000013
   299   1      7.1600000000000037       53.70000000000001       30.43000000000001
   300   1      5.3700000000000125      51.910000000000011      34.010000000000012
   301   1      5.3700000000000125       53.70000000000001      35.800000000000011
   302   1      7.1600000000000037      51.910000000000011      35.800000000000011
   303   1      7.1600000000000037       53.70000000000001      34.010000000000012
   304   1      5.3700000000000125      51.910000000000011      37.590000000000011
   305   1      5.3700000000000125       53.70000000000001      39.380000000000017
   306   1      7.1600000000000037      51.910000000000011      39.380000000000017
   307   1      7.1600000000000037       53.70000000000001      37.590000000000011
   308   1      5.3700000000000125      51.910000000000011      41.170000000000016
   309   1      5.3700000000000125       53.70000000000001      42.960000000000015
   310   1      7.1600000000000037      51.910000000000011      42.960000000000015
   311   1      7.1600000000000037       53.70000000000001      41.170000000000016
   312   1      5.3700000000000125      51.910000000000011      44.750000000000014
   313   1      5.3700000000000125       53.70000000000001      46.540000000000013
   314   1      7.1600000000000037      51.910000000000011      46.540000000000013
   315   1      7.1600000000000037       53.70000000000001      44.750000000000014
   316   1      5.3700000000000125      51.910000000000011      48.330000000000013
   317   1      5.3700000000000125       53.70000000000001      50.120000000000012
   318   1      7.1600000000000037      51.910000000000011      50.120000000000012
   319   1      7.1600000000000037       53.70000000000001      48.330000000000013
   320   1      5.3700000000000125      51.910000000000011      51.910000000000011
   321   1      5.3700000000000125       53.70000000000001       53.70000000000001
   322   1      7.1600000000000037      51.910000000000011       53.70000000000001
   323   1      7.1600000000000037       53.70000000000001      51.910000000000011
   324   1      5.3700000000000125      51.910000000000011      55.490000000000009
   325   1      5.3700000000000125       53.70000000000001      57.280000000000008
   326   1      7.1600000000000037      51.910000000000011      57.280000000000008
   327   1      7.1600000000000037       53.70000000000001      55.490000000000009
   328   1      7.1600000000000037      51.910000000000011      60.860000000000014
   329   1      7.1600000000000037       53.70000000000001      59.070000000000007
   330   1      7.1600000000000037      55.490000000000009      28.640000000000011
   331   1      5.3700000000000125      57.280000000000008      32.220000000000013
   332   1      7.1600000000000037      55.490000000000009      32.220000000000013
   333   1      7.1600000000000037      57.280000000000008       30.43000000000001
   334   1      5.3700000000000125      55.490000000000009      34.010000000000012
   335   1      5.3700000000000125      57.280000000000008      35.800000000000011
   336   1      7.1600000000000037      55.490000000000009      35.800000000000011
   337   1      7.1600000000000037      57.280000000000008      34.010000000000012
   338   1      5.3700000000000125      55.490000000000009      37.590000000000011
   339   1      5.3700000000000125      57.280000000000008      39.380000000000017
   340   1      7.1600000000000037      55.490000000000009      39.380000000000017
   341   1      7.1600000000000037      57.280000000000008      37.590000000000011
   342   1      5.3700000000000125      55.490000000000009      41.170000000000016
   343   1      5.3700000000000125      57.280000000000008      42.960000000000015
   344   1      7.1600000000000037      55.490000000000009      42.960000000000015
   345   1      7.1600000000000037      57.280000000000008      41.170000000000016
   346   1      5.3700000000000125      55.490000000000009      44.750000000000014
   347   1      5.3700000000000125      57.280000000000008      46.540000000000013
   348   1      7.1600000000000037      55.490000000000009      46.540000000000013
   349   1      7.1600000000000037      57.280000000000008      44.750000000000014
   350   1      5.3700000000000125      55.490000000000009      48.330000000000013
   351   1      5.3700000000000125      57.280000000000008      50.120000000000012
   352   1      7.1600000000000037      55.490000000000009      50.120000000000012
   353   1      7.1600000000000037      57.280000000000008      48.330000000000013
   354   1      5.3700000000000125      55.490000000000009      51.910000000000011
   355   1      5.3700000000000125      57.280000000000008       53.70000000000001
   356   1      7.1600000000000037      55.490000000000009       53.70000000000001
   357   1      7.1600000000000037      57.280000000000008      51.910000000000011
   358   1      5.3700000000000125      55.490000000000009      55.490000000000009