model_files/CuNi/CuNi_30000/CuNi_331/CuNi_331_fcc_30729_temp.data (written by ASE) 

30729 	 atoms 
2  atom types
0.0                     114  xlo xhi
0.0                     114  ylo yhi
0.0                     114  zlo zhi


Atoms 

     1   1      1.7829999999999941      55.273000000000003      57.055999999999997
     2   1      1.7829999999999941      57.055999999999997      55.273000000000003
     3   1                       0      57.055999999999997      57.055999999999997
     4   1      1.7829999999999941      57.055999999999997      58.839000000000006
     5   1      1.7829999999999941      58.839000000000006      57.055999999999997
     6   1      5.3489999999999958      51.706999999999994      53.490000000000002
     7   1      5.3489999999999958      51.706999999999994      57.055999999999997
     8   1      5.3489999999999958      51.706999999999994      60.621999999999993
     9   1      5.3489999999999958      53.490000000000002      51.706999999999994
    10   1      3.5659999999999954      53.490000000000002      53.490000000000002
    11   1      3.5659999999999954      55.273000000000003      55.273000000000003
    12   1      5.3489999999999958      53.490000000000002      55.273000000000003
    13   1      5.3489999999999958      55.273000000000003      53.490000000000002
    14   1      3.5659999999999954      53.490000000000002      57.055999999999997
    15   1      3.5659999999999954      55.273000000000003      58.839000000000006
    16   1      5.3489999999999958      53.490000000000002      58.839000000000006
    17   1      5.3489999999999958      55.273000000000003      57.055999999999997
    18   1      3.5659999999999954      53.490000000000002      60.621999999999993
    19   1      5.3489999999999958      53.490000000000002      62.405000000000001
    20   1      5.3489999999999958      55.273000000000003      60.621999999999993
    21   1      5.3489999999999958      57.055999999999997      51.706999999999994
    22   1      3.5659999999999954      57.055999999999997      53.490000000000002
    23   1      3.5659999999999954      58.839000000000006      55.273000000000003
    24   1      5.3489999999999958      57.055999999999997      55.273000000000003
    25   1      5.3489999999999958      58.839000000000006      53.490000000000002
    26   1      3.5659999999999954      57.055999999999997      57.055999999999997
    27   1      3.5659999999999954      58.839000000000006      58.839000000000006
    28   1      5.3489999999999958      57.055999999999997      58.839000000000006
    29   1      5.3489999999999958      58.839000000000006      57.055999999999997
    30   1      3.5659999999999954      57.055999999999997      60.621999999999993
    31   1      5.3489999999999958      57.055999999999997      62.405000000000001
    32   1      5.3489999999999958      58.839000000000006      60.621999999999993
    33   1      5.3489999999999958      60.621999999999993      51.706999999999994
    34   1      3.5659999999999954      60.621999999999993      53.490000000000002
    35   1      5.3489999999999958      60.621999999999993      55.273000000000003
    36   1      5.3489999999999958      62.405000000000001      53.490000000000002
    37   1      3.5659999999999954      60.621999999999993      57.055999999999997
    38   1      5.3489999999999958      60.621999999999993      58.839000000000006
    39   1      5.3489999999999958      62.405000000000001      57.055999999999997
    40   1      3.5659999999999954      60.621999999999993      60.621999999999993
    41   1      5.3489999999999958      60.621999999999993      62.405000000000001
    42   1      5.3489999999999958      62.405000000000001      60.621999999999993
    43   1      8.9149999999999991      48.141000000000005      53.490000000000002
    44   1      8.9149999999999991      48.141000000000005      57.055999999999997
    45   1      8.9149999999999991      48.141000000000005      60.621999999999993
    46   1       7.131999999999997      51.706999999999994      51.706999999999994
    47   1      8.9149999999999991      49.923999999999999      51.706999999999994
    48   1      8.9149999999999991      51.706999999999994      49.923999999999999
    49   1       7.131999999999997      49.923999999999999      53.490000000000002
    50   1       7.131999999999997      51.706999999999994      55.273000000000003
    51   1      8.9149999999999991      49.923999999999999      55.273000000000003
    52   1      8.9149999999999991      51.706999999999994      53.490000000000002
    53   1       7.131999999999997      49.923999999999999      57.055999999999997
    54   1       7.131999999999997      51.706999999999994      58.839000000000006
    55   1      8.9149999999999991      49.923999999999999      58.839000000000006
    56   1      8.9149999999999991      51.706999999999994      57.055999999999997
    57   1       7.131999999999997      49.923999999999999      60.621999999999993
    58   1       7.131999999999997      51.706999999999994      62.405000000000001
    59   1      8.9149999999999991      49.923999999999999      62.405000000000001
    60   1      8.9149999999999991      51.706999999999994      60.621999999999993
    61   1      8.9149999999999991      51.706999999999994      64.188000000000002
    62   1      8.9149999999999991      53.490000000000002      48.141000000000005
    63   1       7.131999999999997      53.490000000000002      49.923999999999999
    64   1       7.131999999999997      55.273000000000003      51.706999999999994
    65   1      8.9149999999999991      53.490000000000002      51.706999999999994
    66   1      8.9149999999999991      55.273000000000003      49.923999999999999
    67   1       7.131999999999997      53.490000000000002      53.490000000000002
    68   1       7.131999999999997      55.273000000000003      55.273000000000003
    69   1      8.9149999999999991      53.490000000000002      55.273000000000003
    70   1      8.9149999999999991      55.273000000000003      53.490000000000002
    71   1       7.131999999999997      53.490000000000002      57.055999999999997
    72   1       7.131999999999997      55.273000000000003      58.839000000000006
    73   1      8.9149999999999991      53.490000000000002      58.839000000000006
    74   1      8.9149999999999991      55.273000000000003      57.055999999999997
    75   1       7.131999999999997      53.490000000000002      60.621999999999993
    76   1       7.131999999999997      55.273000000000003      62.405000000000001
    77   1      8.9149999999999991      53.490000000000002      62.405000000000001
    78   1      8.9149999999999991      55.273000000000003      60.621999999999993
    79   1       7.131999999999997      53.490000000000002      64.188000000000002
    80   1      8.9149999999999991      53.490000000000002      65.970999999999989
    81   1      8.9149999999999991      55.273000000000003      64.188000000000002
    82   1      8.9149999999999991      57.055999999999997      48.141000000000005
    83   1       7.131999999999997      57.055999999999997      49.923999999999999
    84   1       7.131999999999997      58.839000000000006      51.706999999999994
    85   1      8.9149999999999991      57.055999999999997      51.706999999999994
    86   1      8.9149999999999991      58.839000000000006      49.923999999999999
    87   1       7.131999999999997      57.055999999999997      53.490000000000002
    88   1       7.131999999999997      58.839000000000006      55.273000000000003
    89   1      8.9149999999999991      57.055999999999997      55.273000000000003
    90   1      8.9149999999999991      58.839000000000006      53.490000000000002
    91   1       7.131999999999997      57.055999999999997      57.055999999999997
    92   1       7.131999999999997      58.839000000000006      58.839000000000006
    93   1      8.9149999999999991      57.055999999999997      58.839000000000006
    94   1      8.9149999999999991      58.839000000000006      57.055999999999997
    95   1       7.131999999999997      57.055999999999997      60.621999999999993
    96   1       7.131999999999997      58.839000000000006      62.405000000000001
    97   1      8.9149999999999991      57.055999999999997      62.405000000000001
    98   1      8.9149999999999991      58.839000000000006      60.621999999999993
    99   1       7.131999999999997      57.055999999999997      64.188000000000002
   100   1      8.9149999999999991      57.055999999999997      65.970999999999989
   101   1      8.9149999999999991      58.839000000000006      64.188000000000002
   102   1      8.9149999999999991      60.621999999999993      48.141000000000005
   103   1       7.131999999999997      60.621999999999993      49.923999999999999
   104   1       7.131999999999997      62.405000000000001      51.706999999999994
   105   1      8.9149999999999991      60.621999999999993      51.706999999999994
   106   1      8.9149999999999991      62.405000000000001      49.923999999999999
   107   1       7.131999999999997      60.621999999999993      53.490000000000002
   108   1       7.131999999999997      62.405000000000001      55.273000000000003
   109   1      8.9149999999999991      60.621999999999993      55.273000000000003
   110   1      8.9149999999999991      62.405000000000001      53.490000000000002
   111   1       7.131999999999997      60.621999999999993      57.055999999999997
   112   1       7.131999999999997      62.405000000000001      58.839000000000006
   113   1      8.9149999999999991      60.621999999999993      58.839000000000006
   114   1      8.9149999999999991      62.405000000000001      57.055999999999997
   115   1       7.131999999999997      60.621999999999993      60.621999999999993
   116   1       7.131999999999997      62.405000000000001      62.405000000000001
   117   1      8.9149999999999991      60.621999999999993      62.405000000000001
   118   1      8.9149999999999991      62.405000000000001      60.621999999999993
   119   1       7.131999999999997      60.621999999999993      64.188000000000002
   120   1      8.9149999999999991      60.621999999999993      65.970999999999989
   121   1      8.9149999999999991      62.405000000000001      64.188000000000002
   122   1      8.9149999999999991      64.188000000000002      51.706999999999994
   123   1       7.131999999999997      64.188000000000002      53.490000000000002
   124   1      8.9149999999999991      64.188000000000002      55.273000000000003
   125   1      8.9149999999999991      65.970999999999989      53.490000000000002
   126   1       7.131999999999997      64.188000000000002      57.055999999999997
   127   1      8.9149999999999991      64.188000000000002      58.839000000000006
   128   1      8.9149999999999991      65.970999999999989      57.055999999999997
   129   1       7.131999999999997      64.188000000000002      60.621999999999993
   130   1      8.9149999999999991      64.188000000000002      62.405000000000001
   131   1      8.9149999999999991      65.970999999999989      60.621999999999993
   132   1      12.481000000000002      44.575000000000003      53.490000000000002
   133   1      12.481000000000002      44.575000000000003      57.055999999999997
   134   1      12.481000000000002      44.575000000000003      60.621999999999993
   135   1                  10.698      48.141000000000005      48.141000000000005
   136   1      12.481000000000002      46.357999999999997      48.141000000000005
   137   1      12.481000000000002      48.141000000000005      46.357999999999997
   138   1                  10.698      48.141000000000005      51.706999999999994
   139   1      12.481000000000002      46.357999999999997      51.706999999999994
   140   1      12.481000000000002      48.141000000000005      49.923999999999999
   141   1                  10.698      46.357999999999997      53.490000000000002
   142   1                  10.698      48.141000000000005      55.273000000000003
   143   1      12.481000000000002      46.357999999999997      55.273000000000003
   144   1      12.481000000000002      48.141000000000005      53.490000000000002
   145   1                  10.698      46.357999999999997      57.055999999999997
   146   1                  10.698      48.141000000000005      58.839000000000006
   147   1      12.481000000000002      46.357999999999997      58.839000000000006
   148   1      12.481000000000002      48.141000000000005      57.055999999999997
   149   1                  10.698      46.357999999999997      60.621999999999993
   150   1                  10.698      48.141000000000005      62.405000000000001
   151   1      12.481000000000002      46.357999999999997      62.405000000000001
   152   1      12.481000000000002      48.141000000000005      60.621999999999993
   153   1                  10.698      48.141000000000005      65.970999999999989
   154   1      12.481000000000002      46.357999999999997      65.970999999999989
   155   1      12.481000000000002      48.141000000000005      64.188000000000002
   156   1      12.481000000000002      48.141000000000005      67.754000000000005
   157   1                  10.698      51.706999999999994      48.141000000000005
   158   1      12.481000000000002      49.923999999999999      48.141000000000005
   159   1      12.481000000000002      51.706999999999994      46.357999999999997
   160   1                  10.698      49.923999999999999      49.923999999999999
   161   1                  10.698      51.706999999999994      51.706999999999994
   162   1      12.481000000000002      49.923999999999999      51.706999999999994
   163   1      12.481000000000002      51.706999999999994      49.923999999999999
   164   1                  10.698      49.923999999999999      53.490000000000002
   165   1                  10.698      51.706999999999994      55.273000000000003
   166   1      12.481000000000002      49.923999999999999      55.273000000000003
   167   1      12.481000000000002      51.706999999999994      53.490000000000002
   168   1                  10.698      49.923999999999999      57.055999999999997
   169   1                  10.698      51.706999999999994      58.839000000000006
   170   1      12.481000000000002      49.923999999999999      58.839000000000006
   171   1      12.481000000000002      51.706999999999994      57.055999999999997
   172   1                  10.698      49.923999999999999      60.621999999999993
   173   1                  10.698      51.706999999999994      62.405000000000001
   174   1      12.481000000000002      49.923999999999999      62.405000000000001
   175   1      12.481000000000002      51.706999999999994      60.621999999999993
   176   1                  10.698      49.923999999999999      64.188000000000002
   177   1                  10.698      51.706999999999994      65.970999999999989
   178   1      12.481000000000002      49.923999999999999      65.970999999999989
   179   1      12.481000000000002      51.706999999999994      64.188000000000002
   180   1      12.481000000000002      51.706999999999994      67.754000000000005
   181   1      12.481000000000002      53.490000000000002      44.575000000000003
   182   1                  10.698      53.490000000000002      46.357999999999997
   183   1                  10.698      55.273000000000003      48.141000000000005
   184   1      12.481000000000002      53.490000000000002      48.141000000000005
   185   1      12.481000000000002      55.273000000000003      46.357999999999997
   186   1                  10.698      53.490000000000002      49.923999999999999
   187   1                  10.698      55.273000000000003      51.706999999999994
   188   1      12.481000000000002      53.490000000000002      51.706999999999994
   189   1      12.481000000000002      55.273000000000003      49.923999999999999
   190   1                  10.698      53.490000000000002      53.490000000000002
   191   1                  10.698      55.273000000000003      55.273000000000003
   192   1      12.481000000000002      53.490000000000002      55.273000000000003
   193   1      12.481000000000002      55.273000000000003      53.490000000000002
   194   1                  10.698      53.490000000000002      57.055999999999997
   195   1                  10.698      55.273000000000003      58.839000000000006
   196   1      12.481000000000002      53.490000000000002      58.839000000000006
   197   1      12.481000000000002      55.273000000000003      57.055999999999997
   198   1                  10.698      53.490000000000002      60.621999999999993
   199   1                  10.698      55.273000000000003      62.405000000000001
   200   1      12.481000000000002      53.490000000000002      62.405000000000001
   201   1      12.481000000000002      55.273000000000003      60.621999999999993
   202   1                  10.698      53.490000000000002      64.188000000000002
   203   1                  10.698      55.273000000000003      65.970999999999989
   204   1      12.481000000000002      53.490000000000002      65.970999999999989
   205   1      12.481000000000002      55.273000000000003      64.188000000000002
   206   1                  10.698      53.490000000000002      67.754000000000005
   207   1      12.481000000000002      53.490000000000002      69.537000000000006
   208   1      12.481000000000002      55.273000000000003      67.754000000000005
   209   1      12.481000000000002      57.055999999999997      44.575000000000003
   210   1                  10.698      57.055999999999997      46.357999999999997
   211   1                  10.698      58.839000000000006      48.141000000000005
   212   1      12.481000000000002      57.055999999999997      48.141000000000005
   213   1      12.481000000000002      58.839000000000006      46.357999999999997
   214   1                  10.698      57.055999999999997      49.923999999999999
   215   1                  10.698      58.839000000000006      51.706999999999994
   216   1      12.481000000000002      57.055999999999997      51.706999999999994
   217   1      12.481000000000002      58.839000000000006      49.923999999999999
   218   1                  10.698      57.055999999999997      53.490000000000002
   219   1                  10.698      58.839000000000006      55.273000000000003
   220   1      12.481000000000002      57.055999999999997      55.273000000000003
   221   1      12.481000000000002      58.839000000000006      53.490000000000002
   222   1                  10.698      57.055999999999997      57.055999999999997
   223   1                  10.698      58.839000000000006      58.839000000000006
   224   1      12.481000000000002      57.055999999999997      58.839000000000006
   225   1      12.481000000000002      58.839000000000006      57.055999999999997
   226   1                  10.698      57.055999999999997      60.621999999999993
   227   1                  10.698      58.839000000000006      62.405000000000001
   228   1      12.481000000000002      57.055999999999997      62.405000000000001
   229   1      12.481000000000002      58.839000000000006      60.621999999999993
   230   1                  10.698      57.055999999999997      64.188000000000002
   231   1                  10.698      58.839000000000006      65.970999999999989
   232   1      12.481000000000002      57.055999999999997      65.970999999999989
   233   1      12.481000000000002      58.839000000000006      64.188000000000002
   234   1                  10.698      57.055999999999997      67.754000000000005
   235   1      12.481000000000002      57.055999999999997      69.537000000000006
   236   1      12.481000000000002      58.839000000000006      67.754000000000005
   237   1      12.481000000000002      60.621999999999993      44.575000000000003
   238   1                  10.698      60.621999999999993      46.357999999999997
   239   1                  10.698      62.405000000000001      48.141000000000005
   240   1      12.481000000000002      60.621999999999993      48.141000000000005
   241   1      12.481000000000002      62.405000000000001      46.357999999999997
   242   1                  10.698      60.621999999999993      49.923999999999999
   243   1                  10.698      62.405000000000001      51.706999999999994
   244   1      12.481000000000002      60.621999999999993      51.706999999999994
   245   1      12.481000000000002      62.405000000000001      49.923999999999999
   246   1                  10.698      60.621999999999993      53.490000000000002
   247   1                  10.698      62.405000000000001      55.273000000000003
   248   1      12.481000000000002      60.621999999999993      55.273000000000003
   249   1      12.481000000000002      62.405000000000001      53.490000000000002
   250   1                  10.698      60.621999999999993      57.055999999999997
   251   1                  10.698      62.405000000000001      58.839000000000006
   252   1      12.481000000000002      60.621999999999993      58.839000000000006
   253   1      12.481000000000002      62.405000000000001      57.055999999999997
   254   1                  10.698      60.621999999999993      60.621999999999993
   255   1                  10.698      62.405000000000001      62.405000000000001
   256   1      12.481000000000002      60.621999999999993      62.405000000000001
   257   1      12.481000000000002      62.405000000000001      60.621999999999993
   258   1                  10.698      60.621999999999993      64.188000000000002
   259   1                  10.698      62.405000000000001      65.970999999999989
   260   1      12.481000000000002      60.621999999999993      65.970999999999989
   261   1      12.481000000000002      62.405000000000001      64.188000000000002
   262   1                  10.698      60.621999999999993      67.754000000000005
   263   1      12.481000000000002      60.621999999999993      69.537000000000006
   264   1      12.481000000000002      62.405000000000001      67.754000000000005
   265   1                  10.698      65.970999999999989      48.141000000000005
   266   1      12.481000000000002      64.188000000000002      48.141000000000005
   267   1      12.481000000000002      65.970999999999989      46.357999999999997
   268   1                  10.698      64.188000000000002      49.923999999999999
   269   1                  10.698      65.970999999999989      51.706999999999994
   270   1      12.481000000000002      64.188000000000002      51.706999999999994
   271   1      12.481000000000002      65.970999999999989      49.923999999999999
   272   1                  10.698      64.188000000000002      53.490000000000002
   273   1                  10.698      65.970999999999989      55.273000000000003
   274   1      12.481000000000002      64.188000000000002      55.273000000000003
   275   1      12.481000000000002      65.970999999999989      53.490000000000002
   276   1                  10.698      64.188000000000002      57.055999999999997
   277   1                  10.698      65.970999999999989      58.839000000000006
   278   1      12.481000000000002      64.188000000000002      58.839000000000006
   279   1      12.481000000000002      65.970999999999989      57.055999999999997
   280   1                  10.698      64.188000000000002      60.621999999999993
   281   1                  10.698      65.970999999999989      62.405000000000001
   282   1      12.481000000000002      64.188000000000002      62.405000000000001
   283   1      12.481000000000002      65.970999999999989      60.621999999999993
   284   1                  10.698      64.188000000000002      64.188000000000002
   285   1                  10.698      65.970999999999989      65.970999999999989
   286   1      12.481000000000002      64.188000000000002      65.970999999999989
   287   1      12.481000000000002      65.970999999999989      64.188000000000002
   288   1      12.481000000000002      65.970999999999989      67.754000000000005
   289   1      12.481000000000002      67.754000000000005      48.141000000000005
   290   1      12.481000000000002      67.754000000000005      51.706999999999994
   291   1                  10.698      67.754000000000005      53.490000000000002
   292   1      12.481000000000002      67.754000000000005      55.273000000000003
   293   1      12.481000000000002      69.537000000000006      53.490000000000002
   294   1                  10.698      67.754000000000005      57.055999999999997
   295   1      12.481000000000002      67.754000000000005      58.839000000000006
   296   1      12.481000000000002      69.537000000000006      57.055999999999997
   297   1                  10.698      67.754000000000005      60.621999999999993
   298   1      12.481000000000002      67.754000000000005      62.405000000000001
   299   1      12.481000000000002      69.537000000000006      60.621999999999993
   300   1      12.481000000000002      67.754000000000005      65.970999999999989
   301   1      16.047000000000004      41.008999999999993      53.490000000000002
   302   1      16.047000000000004      41.008999999999993      57.055999999999997
   303   1      16.047000000000004      41.008999999999993      60.621999999999993
   304   1      14.264000000000003      44.575000000000003      48.141000000000005
   305   1      16.047000000000004      42.792000000000002      48.141000000000005
   306   1      16.047000000000004      44.575000000000003      46.357999999999997
   307   1      14.264000000000003      44.575000000000003      51.706999999999994
   308   1      16.047000000000004      42.792000000000002      51.706999999999994
   309   1      16.047000000000004      44.575000000000003      49.923999999999999
   310   1      14.264000000000003      42.792000000000002      53.490000000000002
   311   1      14.264000000000003      44.575000000000003      55.273000000000003
   312   1      16.047000000000004      42.792000000000002      55.273000000000003
   313   1      16.047000000000004      44.575000000000003      53.490000000000002
   314   1      14.264000000000003      42.792000000000002      57.055999999999997
   315   1      14.264000000000003      44.575000000000003      58.839000000000006
   316   1      16.047000000000004      42.792000000000002      58.839000000000006
   317   1      16.047000000000004      44.575000000000003      57.055999999999997
   318   1      14.264000000000003      42.792000000000002      60.621999999999993
   319   1      14.264000000000003      44.575000000000003      62.405000000000001
   320   1      16.047000000000004      42.792000000000002      62.405000000000001
   321   1      16.047000000000004      44.575000000000003      60.621999999999993
   322   1      14.264000000000003      44.575000000000003      65.970999999999989
   323   1      16.047000000000004      42.792000000000002      65.970999999999989
   324   1      16.047000000000004      44.575000000000003      64.188000000000002
   325   1      16.047000000000004      44.575000000000003      67.754000000000005
   326   1      14.264000000000003      48.141000000000005      44.575000000000003
   327   1      16.047000000000004      46.357999999999997      44.575000000000003
   328   1      16.047000000000004      48.141000000000005      42.792000000000002
   329   1      14.264000000000003      46.357999999999997      46.357999999999997
   330   1      14.264000000000003      48.141000000000005      48.141000000000005
   331   1      16.047000000000004      46.357999999999997      48.141000000000005
   332   1      16.047000000000004      48.141000000000005      46.357999999999997
   333   1      14.264000000000003      46.357999999999997      49.923999999999999
   334   1      14.264000000000003      48.141000000000005      51.706999999999994
   335   1      16.047000000000004      46.357999999999997      51.706999999999994
   336   1      16.047000000000004      48.141000000000005      49.923999999999999
   337   1      14.264000000000003      46.357999999999997      53.490000000000002
   338   1      14.264000000000003      48.141000000000005      55.273000000000003
   339   1      16.047000000000004      46.357999999999997      55.273000000000003
   340   1      16.047000000000004      48.141000000000005      53.490000000000002
   341   1      14.264000000000003      46.357999999999997      57.055999999999997
   342   1      14.264000000000003      48.141000000000005      58.839000000000006
   343   1      16.047000000000004      46.357999999999997      58.839000000000006
   344   1      16.047000000000004      48.141000000000005      57.055999999999997
   345   1      14.264000000000003      46.357999999999997      60.621999999999993
   346   1      14.264000000000003      48.141000000000005      62.405000000000001
   347   1      16.047000000000004      46.357999999999997      62.405000000000001
   348   1      16.047000000000004      48.141000000000005      60.621999999999993
   349   1      14.264000000000003      46.357999999999997      64.188000000000002
   350   1      14.264000000000003      48.141000000000005      65.970999999999989
   351   1      16.047000000000004      46.357999999999997      65.970999999999989
   352   1      16.047000000000004      48.141000000000005      64.188000000000002
   353   1      14.264000000000003      46.357999999999997      67.754000000000005
   354   1      14.264000000000003      48.141000000000005      69.537000000000006
   355   1      16.047000000000004      46.357999999999997      69.537000000000006
   356   1      16.047000000000004      48.141000000000005      67.754000000000005
   357   1      16.047000000000004      48.141000000000005      71.319999999999993
   358   1      14.264000000000003      51.706999999999994      44.575000000000003