LAMMPS data file via write_data, version 30 Nov 2020, timestep = 0

30085 atoms
5 atom types

0 104 xlo xhi
0 104 ylo yhi
0 104 zlo zhi

Masses

1 58.7
2 55.8
3 52
4 59
5 26

Atoms # atomic

6 5 1.8050000000000068 50.540000000000006 50.540000000000006 0 0 0
7 1 3.610000000000007 48.73500000000001 50.540000000000006 0 0 0
8 4 3.610000000000007 50.540000000000006 48.73500000000001 0 0 0
31 2 5.415000000000006 43.32000000000001 50.540000000000006 0 0 0
32 2 7.220000000000007 41.51500000000001 50.540000000000006 0 0 0
33 1 7.220000000000007 43.32000000000001 48.73500000000001 0 0 0
39 5 5.415000000000006 46.93000000000001 46.93000000000001 0 0 0
40 1 7.220000000000007 45.12500000000001 46.93000000000001 0 0 0
41 4 7.220000000000007 46.93000000000001 45.12500000000001 0 0 0
42 1 5.415000000000006 45.12500000000001 48.73500000000001 0 0 0
43 5 5.415000000000006 46.93000000000001 50.540000000000006 0 0 0
44 4 7.220000000000007 45.12500000000001 50.540000000000006 0 0 0
45 3 7.220000000000007 46.93000000000001 48.73500000000001 0 0 0
55 1 5.415000000000006 50.540000000000006 43.32000000000001 0 0 0
56 3 7.220000000000007 48.73500000000001 43.32000000000001 0 0 0
57 5 7.220000000000007 50.540000000000006 41.51500000000001 0 0 0
58 2 5.415000000000006 48.73500000000001 45.12500000000001 0 0 0
59 1 5.415000000000006 50.540000000000006 46.93000000000001 0 0 0
60 3 7.220000000000007 48.73500000000001 46.93000000000001 0 0 0
61 1 7.220000000000007 50.540000000000006 45.12500000000001 0 0 0
62 2 5.415000000000006 48.73500000000001 48.73500000000001 0 0 0
63 5 5.415000000000006 50.540000000000006 50.540000000000006 0 0 0
64 1 7.220000000000007 48.73500000000001 50.540000000000006 0 0 0
65 3 7.220000000000007 50.540000000000006 48.73500000000001 0 0 0
144 3 10.830000000000005 34.295000000000016 50.540000000000006 0 0 0
145 3 10.830000000000005 36.10000000000001 48.73500000000001 0 0 0
149 5 10.830000000000005 37.905000000000015 46.93000000000001 0 0 0
150 5 10.830000000000005 39.71000000000001 45.12500000000001 0 0 0
151 1 9.025000000000007 39.71000000000001 50.540000000000006 0 0 0
152 5 10.830000000000005 37.905000000000015 50.540000000000006 0 0 0
153 5 10.830000000000005 39.71000000000001 48.73500000000001 0 0 0
161 3 10.830000000000005 41.51500000000001 43.32000000000001 0 0 0
162 3 10.830000000000005 43.32000000000001 41.51500000000001 0 0 0
163 3 9.025000000000007 43.32000000000001 46.93000000000001 0 0 0
164 1 10.830000000000005 41.51500000000001 46.93000000000001 0 0 0
165 3 10.830000000000005 43.32000000000001 45.12500000000001 0 0 0
166 3 9.025000000000007 41.51500000000001 48.73500000000001 0 0 0
167 4 9.025000000000007 43.32000000000001 50.540000000000006 0 0 0
168 5 10.830000000000005 41.51500000000001 50.540000000000006 0 0 0
169 4 10.830000000000005 43.32000000000001 48.73500000000001 0 0 0
181 2 10.830000000000005 45.12500000000001 39.71000000000001 0 0 0
182 2 10.830000000000005 46.93000000000001 37.905000000000015 0 0 0
183 5 9.025000000000007 46.93000000000001 43.32000000000001 0 0 0
184 1 10.830000000000005 45.12500000000001 43.32000000000001 0 0 0
185 4 10.830000000000005 46.93000000000001 41.51500000000001 0 0 0
186 3 9.025000000000007 45.12500000000001 45.12500000000001 0 0 0
187 3 9.025000000000007 46.93000000000001 46.93000000000001 0 0 0
188 4 10.830000000000005 45.12500000000001 46.93000000000001 0 0 0
189 3 10.830000000000005 46.93000000000001 45.12500000000001 0 0 0
190 3 9.025000000000007 45.12500000000001 48.73500000000001 0 0 0
191 2 9.025000000000007 46.93000000000001 50.540000000000006 0 0 0
192 3 10.830000000000005 45.12500000000001 50.540000000000006 0 0 0
193 3 10.830000000000005 46.93000000000001 48.73500000000001 0 0 0
209 2 10.830000000000005 48.73500000000001 36.10000000000001 0 0 0
210 1 10.830000000000005 50.540000000000006 34.295000000000016 0 0 0
211 2 9.025000000000007 50.540000000000006 39.71000000000001 0 0 0
212 2 10.830000000000005 48.73500000000001 39.71000000000001 0 0 0
213 2 10.830000000000005 50.540000000000006 37.905000000000015 0 0 0
214 2 9.025000000000007 48.73500000000001 41.51500000000001 0 0 0
215 3 9.025000000000007 50.540000000000006 43.32000000000001 0 0 0
216 3 10.830000000000005 48.73500000000001 43.32000000000001 0 0 0
217 1 10.830000000000005 50.540000000000006 41.51500000000001 0 0 0
218 2 9.025000000000007 48.73500000000001 45.12500000000001 0 0 0
219 1 9.025000000000007 50.540000000000006 46.93000000000001 0 0 0
220 4 10.830000000000005 48.73500000000001 46.93000000000001 0 0 0
221 2 10.830000000000005 50.540000000000006 45.12500000000001 0 0 0
222 2 9.025000000000007 48.73500000000001 48.73500000000001 0 0 0
223 2 9.025000000000007 50.540000000000006 50.540000000000006 0 0 0
224 1 10.830000000000005 48.73500000000001 50.540000000000006 0 0 0
225 3 10.830000000000005 50.540000000000006 48.73500000000001 0 0 0
369 2 12.635000000000005 32.49000000000001 50.540000000000006 0 0 0
370 1 14.440000000000005 30.685000000000013 50.540000000000006 0 0 0
371 4 14.440000000000005 32.49000000000001 48.73500000000001 0 0 0
377 4 12.635000000000005 36.10000000000001 46.93000000000001 0 0 0
378 3 14.440000000000005 34.295000000000016 46.93000000000001 0 0 0
379 5 14.440000000000005 36.10000000000001 45.12500000000001 0 0 0
380 1 12.635000000000005 34.295000000000016 48.73500000000001 0 0 0
381 5 12.635000000000005 36.10000000000001 50.540000000000006 0 0 0
382 3 14.440000000000005 34.295000000000016 50.540000000000006 0 0 0
383 4 14.440000000000005 36.10000000000001 48.73500000000001 0 0 0
393 2 12.635000000000005 39.71000000000001 43.32000000000001 0 0 0
394 4 14.440000000000005 37.905000000000015 43.32000000000001 0 0 0
395 4 14.440000000000005 39.71000000000001 41.51500000000001 0 0 0
396 5 12.635000000000005 37.905000000000015 45.12500000000001 0 0 0
397 4 12.635000000000005 39.71000000000001 46.93000000000001 0 0 0
398 1 14.440000000000005 37.905000000000015 46.93000000000001 0 0 0
399 1 14.440000000000005 39.71000000000001 45.12500000000001 0 0 0
400 1 12.635000000000005 37.905000000000015 48.73500000000001 0 0 0
401 5 12.635000000000005 39.71000000000001 50.540000000000006 0 0 0
402 1 14.440000000000005 37.905000000000015 50.540000000000006 0 0 0
403 1 14.440000000000005 39.71000000000001 48.73500000000001 0 0 0
417 4 12.635000000000005 43.32000000000001 39.71000000000001 0 0 0
418 4 14.440000000000005 41.51500000000001 39.71000000000001 0 0 0
419 2 14.440000000000005 43.32000000000001 37.905000000000015 0 0 0
420 2 12.635000000000005 41.51500000000001 41.51500000000001 0 0 0
421 1 12.635000000000005 43.32000000000001 43.32000000000001 0 0 0
422 2 14.440000000000005 41.51500000000001 43.32000000000001 0 0 0
423 4 14.440000000000005 43.32000000000001 41.51500000000001 0 0 0
424 5 12.635000000000005 41.51500000000001 45.12500000000001 0 0 0
425 2 12.635000000000005 43.32000000000001 46.93000000000001 0 0 0
426 2 14.440000000000005 41.51500000000001 46.93000000000001 0 0 0
427 1 14.440000000000005 43.32000000000001 45.12500000000001 0 0 0
428 5 12.635000000000005 41.51500000000001 48.73500000000001 0 0 0
429 4 12.635000000000005 43.32000000000001 50.540000000000006 0 0 0
430 3 14.440000000000005 41.51500000000001 50.540000000000006 0 0 0
431 1 14.440000000000005 43.32000000000001 48.73500000000001 0 0 0
449 4 12.635000000000005 46.93000000000001 36.10000000000001 0 0 0
450 4 14.440000000000005 45.12500000000001 36.10000000000001 0 0 0
451 2 14.440000000000005 46.93000000000001 34.295000000000016 0 0 0
452 4 12.635000000000005 45.12500000000001 37.905000000000015 0 0 0
453 5 12.635000000000005 46.93000000000001 39.71000000000001 0 0 0
454 3 14.440000000000005 45.12500000000001 39.71000000000001 0 0 0
455 3 14.440000000000005 46.93000000000001 37.905000000000015 0 0 0
456 5 12.635000000000005 45.12500000000001 41.51500000000001 0 0 0
457 5 12.635000000000005 46.93000000000001 43.32000000000001 0 0 0
458 2 14.440000000000005 45.12500000000001 43.32000000000001 0 0 0
459 4 14.440000000000005 46.93000000000001 41.51500000000001 0 0 0
460 4 12.635000000000005 45.12500000000001 45.12500000000001 0 0 0
461 2 12.635000000000005 46.93000000000001 46.93000000000001 0 0 0
462 4 14.440000000000005 45.12500000000001 46.93000000000001 0 0 0
463 4 14.440000000000005 46.93000000000001 45.12500000000001 0 0 0
464 3 12.635000000000005 45.12500000000001 48.73500000000001 0 0 0
465 3 12.635000000000005 46.93000000000001 50.540000000000006 0 0 0
466 2 14.440000000000005 45.12500000000001 50.540000000000006 0 0 0
467 2 14.440000000000005 46.93000000000001 48.73500000000001 0 0 0
489 4 12.635000000000005 50.540000000000006 32.49000000000001 0 0 0
490 5 14.440000000000005 48.73500000000001 32.49000000000001 0 0 0
491 3 14.440000000000005 50.540000000000006 30.685000000000013 0 0 0
492 5 12.635000000000005 48.73500000000001 34.295000000000016 0 0 0
493 5 12.635000000000005 50.540000000000006 36.10000000000001 0 0 0
494 2 14.440000000000005 48.73500000000001 36.10000000000001 0 0 0
495 3 14.440000000000005 50.540000000000006 34.295000000000016 0 0 0
496 4 12.635000000000005 48.73500000000001 37.905000000000015 0 0 0
497 3 12.635000000000005 50.540000000000006 39.71000000000001 0 0 0
498 4 14.440000000000005 48.73500000000001 39.71000000000001 0 0 0
499 4 14.440000000000005 50.540000000000006 37.905000000000015 0 0 0
500 1 12.635000000000005 48.73500000000001 41.51500000000001 0 0 0
501 5 12.635000000000005 50.540000000000006 43.32000000000001 0 0 0
502 3 14.440000000000005 48.73500000000001 43.32000000000001 0 0 0
503 3 14.440000000000005 50.540000000000006 41.51500000000001 0 0 0
504 1 12.635000000000005 48.73500000000001 45.12500000000001 0 0 0
505 2 12.635000000000005 50.540000000000006 46.93000000000001 0 0 0
506 2 14.440000000000005 48.73500000000001 46.93000000000001 0 0 0
507 1 14.440000000000005 50.540000000000006 45.12500000000001 0 0 0
508 5 12.635000000000005 48.73500000000001 48.73500000000001 0 0 0
509 3 12.635000000000005 50.540000000000006 50.540000000000006 0 0 0
510 4 14.440000000000005 48.73500000000001 50.540000000000006 0 0 0
511 5 14.440000000000005 50.540000000000006 48.73500000000001 0 0 0
734 3 16.245000000000015 25.270000000000007 50.540000000000006 0 0 0
735 2 18.050000000000004 23.465000000000007 50.540000000000006 0 0 0
736 3 18.050000000000004 25.270000000000007 48.73500000000001 0 0 0
742 1 16.245000000000015 28.88000000000001 46.93000000000001 0 0 0
743 3 18.050000000000004 27.075000000000006 46.93000000000001 0 0 0
744 2 18.050000000000004 28.88000000000001 45.12500000000001 0 0 0
745 3 16.245000000000015 27.075000000000006 48.73500000000001 0 0 0
746 4 16.245000000000015 28.88000000000001 50.540000000000006 0 0 0
747 2 18.050000000000004 27.075000000000006 50.540000000000006 0 0 0
748 3 18.050000000000004 28.88000000000001 48.73500000000001 0 0 0
758 2 16.245000000000015 32.49000000000001 43.32000000000001 0 0 0
759 2 18.050000000000004 30.685000000000013 43.32000000000001 0 0 0
760 3 18.050000000000004 32.49000000000001 41.51500000000001 0 0 0
761 1 16.245000000000015 30.685000000000013 45.12500000000001 0 0 0
762 4 16.245000000000015 32.49000000000001 46.93000000000001 0 0 0
763 5 18.050000000000004 30.685000000000013 46.93000000000001 0 0 0
764 1 18.050000000000004 32.49000000000001 45.12500000000001 0 0 0
765 5 16.245000000000015 30.685000000000013 48.73500000000001 0 0 0
766 4 16.245000000000015 32.49000000000001 50.540000000000006 0 0 0
767 3 18.050000000000004 30.685000000000013 50.540000000000006 0 0 0
768 2 18.050000000000004 32.49000000000001 48.73500000000001 0 0 0
782 1 16.245000000000015 36.10000000000001 39.71000000000001 0 0 0
783 2 18.050000000000004 34.295000000000016 39.71000000000001 0 0 0
784 4 18.050000000000004 36.10000000000001 37.905000000000015 0 0 0
785 4 16.245000000000015 34.295000000000016 41.51500000000001 0 0 0
786 4 16.245000000000015 36.10000000000001 43.32000000000001 0 0 0
787 2 18.050000000000004 34.295000000000016 43.32000000000001 0 0 0
788 3 18.050000000000004 36.10000000000001 41.51500000000001 0 0 0
789 4 16.245000000000015 34.295000000000016 45.12500000000001 0 0 0
790 3 16.245000000000015 36.10000000000001 46.93000000000001 0 0 0
791 3 18.050000000000004 34.295000000000016 46.93000000000001 0 0 0
792 3 18.050000000000004 36.10000000000001 45.12500000000001 0 0 0
793 3 16.245000000000015 34.295000000000016 48.73500000000001 0 0 0
794 3 16.245000000000015 36.10000000000001 50.540000000000006 0 0 0
795 4 18.050000000000004 34.295000000000016 50.540000000000006 0 0 0
796 5 18.050000000000004 36.10000000000001 48.73500000000001 0 0 0
814 4 16.245000000000015 39.71000000000001 36.10000000000001 0 0 0
815 4 18.050000000000004 37.905000000000015 36.10000000000001 0 0 0
816 5 18.050000000000004 39.71000000000001 34.295000000000016 0 0 0
817 1 16.245000000000015 37.905000000000015 37.905000000000015 0 0 0
818 5 16.245000000000015 39.71000000000001 39.71000000000001 0 0 0
819 5 18.050000000000004 37.905000000000015 39.71000000000001 0 0 0
820 2 18.050000000000004 39.71000000000001 37.905000000000015 0 0 0
821 3 16.245000000000015 37.905000000000015 41.51500000000001 0 0 0
822 4 16.245000000000015 39.71000000000001 43.32000000000001 0 0 0
823 2 18.050000000000004 37.905000000000015 43.32000000000001 0 0 0
824 2 18.050000000000004 39.71000000000001 41.51500000000001 0 0 0
825 1 16.245000000000015 37.905000000000015 45.12500000000001 0 0 0
826 3 16.245000000000015 39.71000000000001 46.93000000000001 0 0 0
827 4 18.050000000000004 37.905000000000015 46.93000000000001 0 0 0
828 5 18.050000000000004 39.71000000000001 45.12500000000001 0 0 0
829 3 16.245000000000015 37.905000000000015 48.73500000000001 0 0 0
830 4 16.245000000000015 39.71000000000001 50.540000000000006 0 0 0
831 2 18.050000000000004 37.905000000000015 50.540000000000006 0 0 0
832 2 18.050000000000004 39.71000000000001 48.73500000000001 0 0 0
854 1 16.245000000000015 43.32000000000001 32.49000000000001 0 0 0
855 3 18.050000000000004 41.51500000000001 32.49000000000001 0 0 0
856 5 18.050000000000004 43.32000000000001 30.685000000000013 0 0 0
857 4 16.245000000000015 41.51500000000001 34.295000000000016 0 0 0
858 5 16.245000000000015 43.32000000000001 36.10000000000001 0 0 0
859 1 18.050000000000004 41.51500000000001 36.10000000000001 0 0 0
860 2 18.050000000000004 43.32000000000001 34.295000000000016 0 0 0
861 5 16.245000000000015 41.51500000000001 37.905000000000015 0 0 0
862 5 16.245000000000015 43.32000000000001 39.71000000000001 0 0 0
863 5 18.050000000000004 41.51500000000001 39.71000000000001 0 0 0
864 4 18.050000000000004 43.32000000000001 37.905000000000015 0 0 0
865 4 16.245000000000015 41.51500000000001 41.51500000000001 0 0 0
866 3 16.245000000000015 43.32000000000001 43.32000000000001 0 0 0
867 3 18.050000000000004 41.51500000000001 43.32000000000001 0 0 0
868 2 18.050000000000004 43.32000000000001 41.51500000000001 0 0 0
869 3 16.245000000000015 41.51500000000001 45.12500000000001 0 0 0
870 4 16.245000000000015 43.32000000000001 46.93000000000001 0 0 0
871 4 18.050000000000004 41.51500000000001 46.93000000000001 0 0 0
872 1 18.050000000000004 43.32000000000001 45.12500000000001 0 0 0
873 2 16.245000000000015 41.51500000000001 48.73500000000001 0 0 0
874 3 16.245000000000015 43.32000000000001 50.540000000000006 0 0 0
875 2 18.050000000000004 41.51500000000001 50.540000000000006 0 0 0
876 5 18.050000000000004 43.32000000000001 48.73500000000001 0 0 0
902 5 16.245000000000015 46.93000000000001 28.88000000000001 0 0 0
903 1 18.050000000000004 45.12500000000001 28.88000000000001 0 0 0
904 3 18.050000000000004 46.93000000000001 27.075000000000006 0 0 0
905 4 16.245000000000015 45.12500000000001 30.685000000000013 0 0 0
906 4 16.245000000000015 46.93000000000001 32.49000000000001 0 0 0
907 4 18.050000000000004 45.12500000000001 32.49000000000001 0 0 0
908 2 18.050000000000004 46.93000000000001 30.685000000000013 0 0 0
909 1 16.245000000000015 45.12500000000001 34.295000000000016 0 0 0
910 1 16.245000000000015 46.93000000000001 36.10000000000001 0 0 0
911 2 18.050000000000004 45.12500000000001 36.10000000000001 0 0 0
912 2 18.050000000000004 46.93000000000001 34.295000000000016 0 0 0
913 3 16.245000000000015 45.12500000000001 37.905000000000015 0 0 0
914 3 16.245000000000015 46.93000000000001 39.71000000000001 0 0 0
915 5 18.050000000000004 45.12500000000001 39.71000000000001 0 0 0
916 3 18.050000000000004 46.93000000000001 37.905000000000015 0 0 0
917 4 16.245000000000015 45.12500000000001 41.51500000000001 0 0 0
918 1 16.245000000000015 46.93000000000001 43.32000000000001 0 0 0
919 2 18.050000000000004 45.12500000000001 43.32000000000001 0 0 0
920 3 18.050000000000004 46.93000000000001 41.51500000000001 0 0 0
921 3 16.245000000000015 45.12500000000001 45.12500000000001 0 0 0
922 3 16.245000000000015 46.93000000000001 46.93000000000001 0 0 0
923 4 18.050000000000004 45.12500000000001 46.93000000000001 0 0 0
924 1 18.050000000000004 46.93000000000001 45.12500000000001 0 0 0
925 4 16.245000000000015 45.12500000000001 48.73500000000001 0 0 0
926 4 16.245000000000015 46.93000000000001 50.540000000000006 0 0 0
927 1 18.050000000000004 45.12500000000001 50.540000000000006 0 0 0
928 1 18.050000000000004 46.93000000000001 48.73500000000001 0 0 0
958 5 16.245000000000015 50.540000000000006 25.270000000000007 0 0 0
959 4 18.050000000000004 48.73500000000001 25.270000000000007 0 0 0
960 3 18.050000000000004 50.540000000000006 23.465000000000007 0 0 0
961 2 16.245000000000015 48.73500000000001 27.075000000000006 0 0 0
962 3 16.245000000000015 50.540000000000006 28.88000000000001 0 0 0
963 4 18.050000000000004 48.73500000000001 28.88000000000001 0 0 0
964 5 18.050000000000004 50.540000000000006 27.075000000000006 0 0 0
965 3 16.245000000000015 48.73500000000001 30.685000000000013 0 0 0
966 5 16.245000000000015 50.540000000000006 32.49000000000001 0 0 0
967 3 18.050000000000004 48.73500000000001 32.49000000000001 0 0 0
968 4 18.050000000000004 50.540000000000006 30.685000000000013 0 0 0
969 1 16.245000000000015 48.73500000000001 34.295000000000016 0 0 0
970 2 16.245000000000015 50.540000000000006 36.10000000000001 0 0 0
971 2 18.050000000000004 48.73500000000001 36.10000000000001 0 0 0
972 3 18.050000000000004 50.540000000000006 34.295000000000016 0 0 0
973 1 16.245000000000015 48.73500000000001 37.905000000000015 0 0 0
974 5 16.245000000000015 50.540000000000006 39.71000000000001 0 0 0
975 3 18.050000000000004 48.73500000000001 39.71000000000001 0 0 0
976 5 18.050000000000004 50.540000000000006 37.905000000000015 0 0 0
977 3 16.245000000000015 48.73500000000001 41.51500000000001 0 0 0
978 1 16.245000000000015 50.540000000000006 43.32000000000001 0 0 0
979 2 18.050000000000004 48.73500000000001 43.32000000000001 0 0 0
980 2 18.050000000000004 50.540000000000006 41.51500000000001 0 0 0
981 4 16.245000000000015 48.73500000000001 45.12500000000001 0 0 0
982 3 16.245000000000015 50.540000000000006 46.93000000000001 0 0 0
983 5 18.050000000000004 48.73500000000001 46.93000000000001 0 0 0
984 3 18.050000000000004 50.540000000000006 45.12500000000001 0 0 0
985 3 16.245000000000015 48.73500000000001 48.73500000000001 0 0 0
986 3 16.245000000000015 50.540000000000006 50.540000000000006 0 0 0
987 1 18.050000000000004 48.73500000000001 50.540000000000006 0 0 0
988 2 18.050000000000004 50.540000000000006 48.73500000000001 0 0 0
1347 3 21.660000000000007 21.660000000000007 45.12500000000001 0 0 0
1348 4 19.85500000000001 21.660000000000007 50.540000000000006 0 0 0
1349 1 21.660000000000007 19.85500000000001 50.540000000000006 0 0 0
1350 5 21.660000000000007 21.660000000000007 48.73500000000001 0 0 0
1357 1 21.660000000000007 23.465000000000007 43.32000000000001 0 0 0
1358 5 21.660000000000007 25.270000000000007 41.51500000000001 0 0 0
1359 2 19.85500000000001 25.270000000000007 46.93000000000001 0 0 0
1360 1 21.660000000000007 23.465000000000007 46.93000000000001 0 0 0
1361 4 21.660000000000007 25.270000000000007 45.12500000000001 0 0 0
1362 3 19.85500000000001 23.465000000000007 48.73500000000001 0 0 0
1363 5 19.85500000000001 25.270000000000007 50.540000000000006 0 0 0
1364 1 21.660000000000007 23.465000000000007 50.540000000000006 0 0 0
1365 4 21.660000000000007 25.270000000000007 48.73500000000001 0 0 0
1377 4 21.660000000000007 27.075000000000006 39.71000000000001 0 0 0
1378 1 21.660000000000007 28.88000000000001 37.905000000000015 0 0 0
1379 5 19.85500000000001 28.88000000000001 43.32000000000001 0 0 0
1380 2 21.660000000000007 27.075000000000006 43.32000000000001 0 0 0
1381 4 21.660000000000007 28.88000000000001 41.51500000000001 0 0 0
1382 1 19.85500000000001 27.075000000000006 45.12500000000001 0 0 0
1383 2 19.85500000000001 28.88000000000001 46.93000000000001 0 0 0
1384 1 21.660000000000007 27.075000000000006 46.93000000000001 0 0 0
1385 5 21.660000000000007 28.88000000000001 45.12500000000001 0 0 0
1386 3 19.85500000000001 27.075000000000006 48.73500000000001 0 0 0
1387 4 19.85500000000001 28.88000000000001 50.540000000000006 0 0 0
1388 1 21.660000000000007 27.075000000000006 50.540000000000006 0 0 0
1389 5 21.660000000000007 28.88000000000001 48.73500000000001 0 0 0
1405 4 21.660000000000007 30.685000000000013 36.10000000000001 0 0 0
1406 2 21.660000000000007 32.49000000000001 34.295000000000016 0 0 0
1407 5 19.85500000000001 32.49000000000001 39.71000000000001 0 0 0
1408 5 21.660000000000007 30.685000000000013 39.71000000000001 0 0 0
1409 4 21.660000000000007 32.49000000000001 37.905000000000015 0 0 0
1410 2 19.85500000000001 30.685000000000013 41.51500000000001 0 0 0
1411 1 19.85500000000001 32.49000000000001 43.32000000000001 0 0 0
1412 1 21.660000000000007 30.685000000000013 43.32000000000001 0 0 0
1413 4 21.660000000000007 32.49000000000001 41.51500000000001 0 0 0
1414 3 19.85500000000001 30.685000000000013 45.12500000000001 0 0 0
1415 2 19.85500000000001 32.49000000000001 46.93000000000001 0 0 0
1416 1 21.660000000000007 30.685000000000013 46.93000000000001 0 0 0
1417 2 21.660000000000007 32.49000000000001 45.12500000000001 0 0 0
1418 2 19.85500000000001 30.685000000000013 48.73500000000001 0 0 0
1419 2 19.85500000000001 32.49000000000001 50.540000000000006 0 0 0
1420 4 21.660000000000007 30.685000000000013 50.540000000000006 0 0 0
1421 3 21.660000000000007 32.49000000000001 48.73500000000001 0 0 0
1441 5 21.660000000000007 34.295000000000016 32.49000000000001 0 0 0
1442 1 21.660000000000007 36.10000000000001 30.685000000000013 0 0 0
1443 2 19.85500000000001 36.10000000000001 36.10000000000001 0 0 0
1444 2 21.660000000000007 34.295000000000016 36.10000000000001 0 0 0
1445 4 21.660000000000007 36.10000000000001 34.295000000000016 0 0 0
1446 3 19.85500000000001 34.295000000000016 37.905000000000015 0 0 0
1447 2 19.85500000000001 36.10000000000001 39.71000000000001 0 0 0
1448 2 21.660000000000007 34.295000000000016 39.71000000000001 0 0 0
1449 1 21.660000000000007 36.10000000000001 37.905000000000015 0 0 0
1450 4 19.85500000000001 34.295000000000016 41.51500000000001 0 0 0
1451 4 19.85500000000001 36.10000000000001 43.32000000000001 0 0 0
1452 5 21.660000000000007 34.295000000000016 43.32000000000001 0 0 0
1453 2 21.660000000000007 36.10000000000001 41.51500000000001 0 0 0
1454 2 19.85500000000001 34.295000000000016 45.12500000000001 0 0 0
1455 3 19.85500000000001 36.10000000000001 46.93000000000001 0 0 0
1456 1 21.660000000000007 34.295000000000016 46.93000000000001 0 0 0
1457 3 21.660000000000007 36.10000000000001 45.12500000000001 0 0 0
1458 4 19.85500000000001 34.295000000000016 48.73500000000001 0 0 0
1459 3 19.85500000000001 36.10000000000001 50.540000000000006 0 0 0
1460 3 21.660000000000007 34.295000000000016 50.540000000000006 0 0 0
1461 2 21.660000000000007 36.10000000000001 48.73500000000001 0 0 0
1485 3 21.660000000000007 37.905000000000015 28.88000000000001 0 0 0
1486 1 21.660000000000007 39.71000000000001 27.075000000000006 0 0 0
1487 1 19.85500000000001 39.71000000000001 32.49000000000001 0 0 0
1488 3 21.660000000000007 37.905000000000015 32.49000000000001 0 0 0
1489 4 21.660000000000007 39.71000000000001 30.685000000000013 0 0 0
1490 5 19.85500000000001 37.905000000000015 34.295000000000016 0 0 0
1491 4 19.85500000000001 39.71000000000001 36.10000000000001 0 0 0
1492 3 21.660000000000007 37.905000000000015 36.10000000000001 0 0 0
1493 4 21.660000000000007 39.71000000000001 34.295000000000016 0 0 0
1494 4 19.85500000000001 37.905000000000015 37.905000000000015 0 0 0
1495 4 19.85500000000001 39.71000000000001 39.71000000000001 0 0 0
1496 1 21.660000000000007 37.905000000000015 39.71000000000001 0 0 0
1497 5 21.660000000000007 39.71000000000001 37.905000000000015 0 0 0
1498 3 19.85500000000001 37.905000000000015 41.51500000000001 0 0 0
1499 2 19.85500000000001 39.71000000000001 43.32000000000001 0 0 0
1500 2 21.660000000000007 37.905000000000015 43.32000000000001 0 0 0
1501 4 21.660000000000007 39.71000000000001 41.51500000000001 0 0 0
1502 1 19.85500000000001 37.905000000000015 45.12500000000001 0 0 0
1503 4 19.85500000000001 39.71000000000001 46.93000000000001 0 0 0
1504 5 21.660000000000007 37.905000000000015 46.93000000000001 0 0 0
1505 3 21.660000000000007 39.71000000000001 45.12500000000001 0 0 0
1506 5 19.85500000000001 37.905000000000015 48.73500000000001 0 0 0
1507 3 19.85500000000001 39.71000000000001 50.540000000000006 0 0 0
1508 5 21.660000000000007 37.905000000000015 50.540000000000006 0 0 0
1509 5 21.660000000000007 39.71000000000001 48.73500000000001 0 0 0
1537 2 21.660000000000007 41.51500000000001 25.270000000000007 0 0 0
1538 2 21.660000000000007 43.32000000000001 23.465000000000007 0 0 0
1539 2 19.85500000000001 43.32000000000001 28.88000000000001 0 0 0
1540 1 21.660000000000007 41.51500000000001 28.88000000000001 0 0 0
1541 2 21.660000000000007 43.32000000000001 27.075000000000006 0 0 0
1542 1 19.85500000000001 41.51500000000001 30.685000000000013 0 0 0
1543 4 19.85500000000001 43.32000000000001 32.49000000000001 0 0 0
1544 1 21.660000000000007 41.51500000000001 32.49000000000001 0 0 0
1545 1 21.660000000000007 43.32000000000001 30.685000000000013 0 0 0
1546 3 19.85500000000001 41.51500000000001 34.295000000000016 0 0 0
1547 1 19.85500000000001 43.32000000000001 36.10000000000001 0 0 0
1548 4 21.660000000000007 41.51500000000001 36.10000000000001 0 0 0
1549 2 21.660000000000007 43.32000000000001 34.295000000000016 0 0 0
1550 1 19.85500000000001 41.51500000000001 37.905000000000015 0 0 0
1551 2 19.85500000000001 43.32000000000001 39.71000000000001 0 0 0
1552 3 21.660000000000007 41.51500000000001 39.71000000000001 0 0 0
1553 3 21.660000000000007 43.32000000000001 37.905000000000015 0 0 0
1554 3 19.85500000000001 41.51500000000001 41.51500000000001 0 0 0
1555 3 19.85500000000001 43.32000000000001 43.32000000000001 0 0 0
1556 1 21.660000000000007 41.51500000000001 43.32000000000001 0 0 0
1557 3 21.660000000000007 43.32000000000001 41.51500000000001 0 0 0
1558 3 19.85500000000001 41.51500000000001 45.12500000000001 0 0 0
1559 3 19.85500000000001 43.32000000000001 46.93000000000001 0 0 0
1560 2 21.660000000000007 41.51500000000001 46.93000000000001 0 0 0
1561 5 21.660000000000007 43.32000000000001 45.12500000000001 0 0 0
1562 3 19.85500000000001 41.51500000000001 48.73500000000001 0 0 0
1563 3 19.85500000000001 43.32000000000001 50.540000000000006 0 0 0
1564 1 21.660000000000007 41.51500000000001 50.540000000000006 0 0 0
1565 1 21.660000000000007 43.32000000000001 48.73500000000001 0 0 0
1597 4 21.660000000000007 45.12500000000001 21.660000000000007 0 0 0
1598 4 19.85500000000001 46.93000000000001 25.270000000000007 0 0 0
1599 3 21.660000000000007 45.12500000000001 25.270000000000007 0 0 0
1600 3 21.660000000000007 46.93000000000001 23.465000000000007 0 0 0
1601 2 19.85500000000001 45.12500000000001 27.075000000000006 0 0 0
1602 1 19.85500000000001 46.93000000000001 28.88000000000001 0 0 0
1603 2 21.660000000000007 45.12500000000001 28.88000000000001 0 0 0
1604 3 21.660000000000007 46.93000000000001 27.075000000000006 0 0 0
1605 1 19.85500000000001 45.12500000000001 30.685000000000013 0 0 0
1606 4 19.85500000000001 46.93000000000001 32.49000000000001 0 0 0
1607 4 21.660000000000007 45.12500000000001 32.49000000000001 0 0 0
1608 4 21.660000000000007 46.93000000000001 30.685000000000013 0 0 0
1609 3 19.85500000000001 45.12500000000001 34.295000000000016 0 0 0
1610 1 19.85500000000001 46.93000000000001 36.10000000000001 0 0 0
1611 5 21.660000000000007 45.12500000000001 36.10000000000001 0 0 0
1612 2 21.660000000000007 46.93000000000001 34.295000000000016 0 0 0
1613 5 19.85500000000001 45.12500000000001 37.905000000000015 0 0 0
1614 4 19.85500000000001 46.93000000000001 39.71000000000001 0 0 0
1615 5 21.660000000000007 45.12500000000001 39.71000000000001 0 0 0
1616 5 21.660000000000007 46.93000000000001 37.905000000000015 0 0 0
1617 4 19.85500000000001 45.12500000000001 41.51500000000001 0 0 0
1618 4 19.85500000000001 46.93000000000001 43.32000000000001 0 0 0
1619 3 21.660000000000007 45.12500000000001 43.32000000000001 0 0 0
1620 2 21.660000000000007 46.93000000000001 41.51500000000001 0 0 0
1621 1 19.85500000000001 45.12500000000001 45.12500000000001 0 0 0
1622 3 19.85500000000001 46.93000000000001 46.93000000000001 0 0 0
1623 1 21.660000000000007 45.12500000000001 46.93000000000001 0 0 0
1624 4 21.660000000000007 46.93000000000001 45.12500000000001 0 0 0
1625 3 19.85500000000001 45.12500000000001 48.73500000000001 0 0 0
1626 1 19.85500000000001 46.93000000000001 50.540000000000006 0 0 0
1627 4 21.660000000000007 45.12500000000001 50.540000000000006 0 0 0
1628 5 21.660000000000007 46.93000000000001 48.73500000000001 0 0 0
1663 5 19.85500000000001 50.540000000000006 21.660000000000007 0 0 0
1664 2 21.660000000000007 48.73500000000001 21.660000000000007 0 0 0
1665 2 21.660000000000007 50.540000000000006 19.85500000000001 0 0 0
1666 2 19.85500000000001 48.73500000000001 23.465000000000007 0 0 0
1667 5 19.85500000000001 50.540000000000006 25.270000000000007 0 0 0
1668 2 21.660000000000007 48.73500000000001 25.270000000000007 0 0 0