model_files/NiFeCrCoAl/NiFeCrCoAl_30000/NiFeCrCoAl_533/NiFeCrCoAl_533_fcc_30085_temp.data (written by ASE) 

30085 	 atoms 
5  atom types
0.0                     104  xlo xhi
0.0                     104  ylo yhi
0.0                     104  zlo zhi


Atoms 

     1   1  7.1054273576010019e-15      50.540000000000006      52.345000000000006
     2   1  7.1054273576010019e-15      52.345000000000006      50.540000000000006
     3   1  7.1054273576010019e-15      52.345000000000006      54.150000000000006
     4   1  7.1054273576010019e-15      54.150000000000006      52.345000000000006
     5   1       3.610000000000007      46.930000000000007      52.345000000000006
     6   1      1.8050000000000068      50.540000000000006      50.540000000000006
     7   1       3.610000000000007      48.735000000000007      50.540000000000006
     8   1       3.610000000000007      50.540000000000006      48.735000000000007
     9   1      1.8050000000000068      48.735000000000007      52.345000000000006
    10   1      1.8050000000000068      50.540000000000006      54.150000000000006
    11   1       3.610000000000007      48.735000000000007      54.150000000000006
    12   1       3.610000000000007      50.540000000000006      52.345000000000006
    13   1       3.610000000000007      50.540000000000006      55.955000000000013
    14   1       3.610000000000007      52.345000000000006      46.930000000000007
    15   1      1.8050000000000068      52.345000000000006      48.735000000000007
    16   1      1.8050000000000068      54.150000000000006      50.540000000000006
    17   1       3.610000000000007      52.345000000000006      50.540000000000006
    18   1       3.610000000000007      54.150000000000006      48.735000000000007
    19   1      1.8050000000000068      52.345000000000006      52.345000000000006
    20   1      1.8050000000000068      54.150000000000006      54.150000000000006
    21   1       3.610000000000007      52.345000000000006      54.150000000000006
    22   1       3.610000000000007      54.150000000000006      52.345000000000006
    23   1      1.8050000000000068      52.345000000000006      55.955000000000013
    24   1       3.610000000000007      52.345000000000006      57.760000000000012
    25   1       3.610000000000007      54.150000000000006      55.955000000000013
    26   1       3.610000000000007      55.955000000000013      50.540000000000006
    27   1      1.8050000000000068      55.955000000000013      52.345000000000006
    28   1       3.610000000000007      55.955000000000013      54.150000000000006
    29   1       3.610000000000007      57.760000000000012      52.345000000000006
    30   1      7.2200000000000069      39.710000000000008      52.345000000000006
    31   1      5.4150000000000063      43.320000000000007      50.540000000000006
    32   1      7.2200000000000069      41.515000000000008      50.540000000000006
    33   1      7.2200000000000069      43.320000000000007      48.735000000000007
    34   1      5.4150000000000063      41.515000000000008      52.345000000000006
    35   1      5.4150000000000063      43.320000000000007      54.150000000000006
    36   1      7.2200000000000069      41.515000000000008      54.150000000000006
    37   1      7.2200000000000069      43.320000000000007      52.345000000000006
    38   1      7.2200000000000069      43.320000000000007      55.955000000000013
    39   1      5.4150000000000063      46.930000000000007      46.930000000000007
    40   1      7.2200000000000069      45.125000000000007      46.930000000000007
    41   1      7.2200000000000069      46.930000000000007      45.125000000000007
    42   1      5.4150000000000063      45.125000000000007      48.735000000000007
    43   1      5.4150000000000063      46.930000000000007      50.540000000000006
    44   1      7.2200000000000069      45.125000000000007      50.540000000000006
    45   1      7.2200000000000069      46.930000000000007      48.735000000000007
    46   1      5.4150000000000063      45.125000000000007      52.345000000000006
    47   1      5.4150000000000063      46.930000000000007      54.150000000000006
    48   1      7.2200000000000069      45.125000000000007      54.150000000000006
    49   1      7.2200000000000069      46.930000000000007      52.345000000000006
    50   1      5.4150000000000063      45.125000000000007      55.955000000000013
    51   1      5.4150000000000063      46.930000000000007      57.760000000000012
    52   1      7.2200000000000069      45.125000000000007      57.760000000000012
    53   1      7.2200000000000069      46.930000000000007      55.955000000000013
    54   1      7.2200000000000069      46.930000000000007      59.565000000000005
    55   1      5.4150000000000063      50.540000000000006      43.320000000000007
    56   1      7.2200000000000069      48.735000000000007      43.320000000000007
    57   1      7.2200000000000069      50.540000000000006      41.515000000000008
    58   1      5.4150000000000063      48.735000000000007      45.125000000000007
    59   1      5.4150000000000063      50.540000000000006      46.930000000000007
    60   1      7.2200000000000069      48.735000000000007      46.930000000000007
    61   1      7.2200000000000069      50.540000000000006      45.125000000000007
    62   1      5.4150000000000063      48.735000000000007      48.735000000000007
    63   1      5.4150000000000063      50.540000000000006      50.540000000000006
    64   1      7.2200000000000069      48.735000000000007      50.540000000000006
    65   1      7.2200000000000069      50.540000000000006      48.735000000000007
    66   1      5.4150000000000063      48.735000000000007      52.345000000000006
    67   1      5.4150000000000063      50.540000000000006      54.150000000000006
    68   1      7.2200000000000069      48.735000000000007      54.150000000000006
    69   1      7.2200000000000069      50.540000000000006      52.345000000000006
    70   1      5.4150000000000063      48.735000000000007      55.955000000000013
    71   1      5.4150000000000063      50.540000000000006      57.760000000000012
    72   1      7.2200000000000069      48.735000000000007      57.760000000000012
    73   1      7.2200000000000069      50.540000000000006      55.955000000000013
    74   1      5.4150000000000063      48.735000000000007      59.565000000000005
    75   1      5.4150000000000063      50.540000000000006      61.370000000000005
    76   1      7.2200000000000069      48.735000000000007      61.370000000000005
    77   1      7.2200000000000069      50.540000000000006      59.565000000000005
    78   1      7.2200000000000069      50.540000000000006      63.175000000000011
    79   1      7.2200000000000069      52.345000000000006      39.710000000000008
    80   1      5.4150000000000063      52.345000000000006      41.515000000000008
    81   1      5.4150000000000063      54.150000000000006      43.320000000000007
    82   1      7.2200000000000069      52.345000000000006      43.320000000000007
    83   1      7.2200000000000069      54.150000000000006      41.515000000000008
    84   1      5.4150000000000063      52.345000000000006      45.125000000000007
    85   1      5.4150000000000063      54.150000000000006      46.930000000000007
    86   1      7.2200000000000069      52.345000000000006      46.930000000000007
    87   1      7.2200000000000069      54.150000000000006      45.125000000000007
    88   1      5.4150000000000063      52.345000000000006      48.735000000000007
    89   1      5.4150000000000063      54.150000000000006      50.540000000000006
    90   1      7.2200000000000069      52.345000000000006      50.540000000000006
    91   1      7.2200000000000069      54.150000000000006      48.735000000000007
    92   1      5.4150000000000063      52.345000000000006      52.345000000000006
    93   1      5.4150000000000063      54.150000000000006      54.150000000000006
    94   1      7.2200000000000069      52.345000000000006      54.150000000000006
    95   1      7.2200000000000069      54.150000000000006      52.345000000000006
    96   1      5.4150000000000063      52.345000000000006      55.955000000000013
    97   1      5.4150000000000063      54.150000000000006      57.760000000000012
    98   1      7.2200000000000069      52.345000000000006      57.760000000000012
    99   1      7.2200000000000069      54.150000000000006      55.955000000000013
   100   1      5.4150000000000063      52.345000000000006      59.565000000000005
   101   1      5.4150000000000063      54.150000000000006      61.370000000000005
   102   1      7.2200000000000069      52.345000000000006      61.370000000000005
   103   1      7.2200000000000069      54.150000000000006      59.565000000000005
   104   1      5.4150000000000063      52.345000000000006      63.175000000000011
   105   1      7.2200000000000069      52.345000000000006      64.980000000000018
   106   1      7.2200000000000069      54.150000000000006      63.175000000000011
   107   1      7.2200000000000069      55.955000000000013      43.320000000000007
   108   1      5.4150000000000063      55.955000000000013      45.125000000000007
   109   1      5.4150000000000063      57.760000000000012      46.930000000000007
   110   1      7.2200000000000069      55.955000000000013      46.930000000000007
   111   1      7.2200000000000069      57.760000000000012      45.125000000000007
   112   1      5.4150000000000063      55.955000000000013      48.735000000000007
   113   1      5.4150000000000063      57.760000000000012      50.540000000000006
   114   1      7.2200000000000069      55.955000000000013      50.540000000000006
   115   1      7.2200000000000069      57.760000000000012      48.735000000000007
   116   1      5.4150000000000063      55.955000000000013      52.345000000000006
   117   1      5.4150000000000063      57.760000000000012      54.150000000000006
   118   1      7.2200000000000069      55.955000000000013      54.150000000000006
   119   1      7.2200000000000069      57.760000000000012      52.345000000000006
   120   1      5.4150000000000063      55.955000000000013      55.955000000000013
   121   1      5.4150000000000063      57.760000000000012      57.760000000000012
   122   1      7.2200000000000069      55.955000000000013      57.760000000000012
   123   1      7.2200000000000069      57.760000000000012      55.955000000000013
   124   1      5.4150000000000063      55.955000000000013      59.565000000000005
   125   1      7.2200000000000069      55.955000000000013      61.370000000000005
   126   1      7.2200000000000069      57.760000000000012      59.565000000000005
   127   1      7.2200000000000069      59.565000000000005      46.930000000000007
   128   1      5.4150000000000063      59.565000000000005      48.735000000000007
   129   1      5.4150000000000063      61.370000000000005      50.540000000000006
   130   1      7.2200000000000069      59.565000000000005      50.540000000000006
   131   1      7.2200000000000069      61.370000000000005      48.735000000000007
   132   1      5.4150000000000063      59.565000000000005      52.345000000000006
   133   1      5.4150000000000063      61.370000000000005      54.150000000000006
   134   1      7.2200000000000069      59.565000000000005      54.150000000000006
   135   1      7.2200000000000069      61.370000000000005      52.345000000000006
   136   1      5.4150000000000063      59.565000000000005      55.955000000000013
   137   1      7.2200000000000069      59.565000000000005      57.760000000000012
   138   1      7.2200000000000069      61.370000000000005      55.955000000000013
   139   1      7.2200000000000069      63.175000000000011      50.540000000000006
   140   1      5.4150000000000063      63.175000000000011      52.345000000000006
   141   1      7.2200000000000069      63.175000000000011      54.150000000000006
   142   1      7.2200000000000069      64.980000000000018      52.345000000000006
   143   1      10.830000000000005      32.490000000000009      52.345000000000006
   144   1      10.830000000000005      34.295000000000016      50.540000000000006
   145   1      10.830000000000005      36.100000000000009      48.735000000000007
   146   1      10.830000000000005      34.295000000000016      54.150000000000006
   147   1      10.830000000000005      36.100000000000009      52.345000000000006
   148   1      10.830000000000005      36.100000000000009      55.955000000000013
   149   1      10.830000000000005      37.905000000000015      46.930000000000007
   150   1      10.830000000000005      39.710000000000008      45.125000000000007
   151   1      9.0250000000000075      39.710000000000008      50.540000000000006
   152   1      10.830000000000005      37.905000000000015      50.540000000000006
   153   1      10.830000000000005      39.710000000000008      48.735000000000007
   154   1      9.0250000000000075      37.905000000000015      52.345000000000006
   155   1      9.0250000000000075      39.710000000000008      54.150000000000006
   156   1      10.830000000000005      37.905000000000015      54.150000000000006
   157   1      10.830000000000005      39.710000000000008      52.345000000000006
   158   1      10.830000000000005      37.905000000000015      57.760000000000012
   159   1      10.830000000000005      39.710000000000008      55.955000000000013
   160   1      10.830000000000005      39.710000000000008      59.565000000000005
   161   1      10.830000000000005      41.515000000000008      43.320000000000007
   162   1      10.830000000000005      43.320000000000007      41.515000000000008
   163   1      9.0250000000000075      43.320000000000007      46.930000000000007
   164   1      10.830000000000005      41.515000000000008      46.930000000000007
   165   1      10.830000000000005      43.320000000000007      45.125000000000007
   166   1      9.0250000000000075      41.515000000000008      48.735000000000007
   167   1      9.0250000000000075      43.320000000000007      50.540000000000006
   168   1      10.830000000000005      41.515000000000008      50.540000000000006
   169   1      10.830000000000005      43.320000000000007      48.735000000000007
   170   1      9.0250000000000075      41.515000000000008      52.345000000000006
   171   1      9.0250000000000075      43.320000000000007      54.150000000000006
   172   1      10.830000000000005      41.515000000000008      54.150000000000006
   173   1      10.830000000000005      43.320000000000007      52.345000000000006
   174   1      9.0250000000000075      41.515000000000008      55.955000000000013
   175   1      9.0250000000000075      43.320000000000007      57.760000000000012
   176   1      10.830000000000005      41.515000000000008      57.760000000000012
   177   1      10.830000000000005      43.320000000000007      55.955000000000013
   178   1      10.830000000000005      41.515000000000008      61.370000000000005
   179   1      10.830000000000005      43.320000000000007      59.565000000000005
   180   1      10.830000000000005      43.320000000000007      63.175000000000011
   181   1      10.830000000000005      45.125000000000007      39.710000000000008
   182   1      10.830000000000005      46.930000000000007      37.905000000000015
   183   1      9.0250000000000075      46.930000000000007      43.320000000000007
   184   1      10.830000000000005      45.125000000000007      43.320000000000007
   185   1      10.830000000000005      46.930000000000007      41.515000000000008
   186   1      9.0250000000000075      45.125000000000007      45.125000000000007
   187   1      9.0250000000000075      46.930000000000007      46.930000000000007
   188   1      10.830000000000005      45.125000000000007      46.930000000000007
   189   1      10.830000000000005      46.930000000000007      45.125000000000007
   190   1      9.0250000000000075      45.125000000000007      48.735000000000007
   191   1      9.0250000000000075      46.930000000000007      50.540000000000006
   192   1      10.830000000000005      45.125000000000007      50.540000000000006
   193   1      10.830000000000005      46.930000000000007      48.735000000000007
   194   1      9.0250000000000075      45.125000000000007      52.345000000000006
   195   1      9.0250000000000075      46.930000000000007      54.150000000000006
   196   1      10.830000000000005      45.125000000000007      54.150000000000006
   197   1      10.830000000000005      46.930000000000007      52.345000000000006
   198   1      9.0250000000000075      45.125000000000007      55.955000000000013
   199   1      9.0250000000000075      46.930000000000007      57.760000000000012
   200   1      10.830000000000005      45.125000000000007      57.760000000000012
   201   1      10.830000000000005      46.930000000000007      55.955000000000013
   202   1      9.0250000000000075      45.125000000000007      59.565000000000005
   203   1      9.0250000000000075      46.930000000000007      61.370000000000005
   204   1      10.830000000000005      45.125000000000007      61.370000000000005
   205   1      10.830000000000005      46.930000000000007      59.565000000000005
   206   1      10.830000000000005      45.125000000000007      64.980000000000018
   207   1      10.830000000000005      46.930000000000007      63.175000000000011
   208   1      10.830000000000005      46.930000000000007      66.785000000000025
   209   1      10.830000000000005      48.735000000000007      36.100000000000009
   210   1      10.830000000000005      50.540000000000006      34.295000000000016
   211   1      9.0250000000000075      50.540000000000006      39.710000000000008
   212   1      10.830000000000005      48.735000000000007      39.710000000000008
   213   1      10.830000000000005      50.540000000000006      37.905000000000015
   214   1      9.0250000000000075      48.735000000000007      41.515000000000008
   215   1      9.0250000000000075      50.540000000000006      43.320000000000007
   216   1      10.830000000000005      48.735000000000007      43.320000000000007
   217   1      10.830000000000005      50.540000000000006      41.515000000000008
   218   1      9.0250000000000075      48.735000000000007      45.125000000000007
   219   1      9.0250000000000075      50.540000000000006      46.930000000000007
   220   1      10.830000000000005      48.735000000000007      46.930000000000007
   221   1      10.830000000000005      50.540000000000006      45.125000000000007
   222   1      9.0250000000000075      48.735000000000007      48.735000000000007
   223   1      9.0250000000000075      50.540000000000006      50.540000000000006
   224   1      10.830000000000005      48.735000000000007      50.540000000000006
   225   1      10.830000000000005      50.540000000000006      48.735000000000007
   226   1      9.0250000000000075      48.735000000000007      52.345000000000006
   227   1      9.0250000000000075      50.540000000000006      54.150000000000006
   228   1      10.830000000000005      48.735000000000007      54.150000000000006
   229   1      10.830000000000005      50.540000000000006      52.345000000000006
   230   1      9.0250000000000075      48.735000000000007      55.955000000000013
   231   1      9.0250000000000075      50.540000000000006      57.760000000000012
   232   1      10.830000000000005      48.735000000000007      57.760000000000012
   233   1      10.830000000000005      50.540000000000006      55.955000000000013
   234   1      9.0250000000000075      48.735000000000007      59.565000000000005
   235   1      9.0250000000000075      50.540000000000006      61.370000000000005
   236   1      10.830000000000005      48.735000000000007      61.370000000000005
   237   1      10.830000000000005      50.540000000000006      59.565000000000005
   238   1      9.0250000000000075      48.735000000000007      63.175000000000011
   239   1      9.0250000000000075      50.540000000000006      64.980000000000018
   240   1      10.830000000000005      48.735000000000007      64.980000000000018
   241   1      10.830000000000005      50.540000000000006      63.175000000000011
   242   1      10.830000000000005      48.735000000000007      68.590000000000032
   243   1      10.830000000000005      50.540000000000006      66.785000000000025
   244   1      10.830000000000005      50.540000000000006       70.39500000000001
   245   1      10.830000000000005      52.345000000000006      32.490000000000009
   246   1      10.830000000000005      52.345000000000006      36.100000000000009
   247   1      10.830000000000005      54.150000000000006      34.295000000000016
   248   1      9.0250000000000075      52.345000000000006      37.905000000000015
   249   1      9.0250000000000075      54.150000000000006      39.710000000000008
   250   1      10.830000000000005      52.345000000000006      39.710000000000008
   251   1      10.830000000000005      54.150000000000006      37.905000000000015
   252   1      9.0250000000000075      52.345000000000006      41.515000000000008
   253   1      9.0250000000000075      54.150000000000006      43.320000000000007
   254   1      10.830000000000005      52.345000000000006      43.320000000000007
   255   1      10.830000000000005      54.150000000000006      41.515000000000008
   256   1      9.0250000000000075      52.345000000000006      45.125000000000007
   257   1      9.0250000000000075      54.150000000000006      46.930000000000007
   258   1      10.830000000000005      52.345000000000006      46.930000000000007
   259   1      10.830000000000005      54.150000000000006      45.125000000000007
   260   1      9.0250000000000075      52.345000000000006      48.735000000000007
   261   1      9.0250000000000075      54.150000000000006      50.540000000000006
   262   1      10.830000000000005      52.345000000000006      50.540000000000006
   263   1      10.830000000000005      54.150000000000006      48.735000000000007
   264   1      9.0250000000000075      52.345000000000006      52.345000000000006
   265   1      9.0250000000000075      54.150000000000006      54.150000000000006
   266   1      10.830000000000005      52.345000000000006      54.150000000000006
   267   1      10.830000000000005      54.150000000000006      52.345000000000006
   268   1      9.0250000000000075      52.345000000000006      55.955000000000013
   269   1      9.0250000000000075      54.150000000000006      57.760000000000012
   270   1      10.830000000000005      52.345000000000006      57.760000000000012
   271   1      10.830000000000005      54.150000000000006      55.955000000000013
   272   1      9.0250000000000075      52.345000000000006      59.565000000000005
   273   1      9.0250000000000075      54.150000000000006      61.370000000000005
   274   1      10.830000000000005      52.345000000000006      61.370000000000005
   275   1      10.830000000000005      54.150000000000006      59.565000000000005
   276   1      9.0250000000000075      52.345000000000006      63.175000000000011
   277   1      9.0250000000000075      54.150000000000006      64.980000000000018
   278   1      10.830000000000005      52.345000000000006      64.980000000000018
   279   1      10.830000000000005      54.150000000000006      63.175000000000011
   280   1      9.0250000000000075      52.345000000000006      66.785000000000025
   281   1      10.830000000000005      52.345000000000006      68.590000000000032
   282   1      10.830000000000005      54.150000000000006      66.785000000000025
   283   1      10.830000000000005      52.345000000000006      72.200000000000017
   284   1      10.830000000000005      54.150000000000006       70.39500000000001
   285   1      10.830000000000005      55.955000000000013      36.100000000000009
   286   1      10.830000000000005      55.955000000000013      39.710000000000008
   287   1      10.830000000000005      57.760000000000012      37.905000000000015
   288   1      9.0250000000000075      55.955000000000013      41.515000000000008
   289   1      9.0250000000000075      57.760000000000012      43.320000000000007
   290   1      10.830000000000005      55.955000000000013      43.320000000000007
   291   1      10.830000000000005      57.760000000000012      41.515000000000008
   292   1      9.0250000000000075      55.955000000000013      45.125000000000007
   293   1      9.0250000000000075      57.760000000000012      46.930000000000007
   294   1      10.830000000000005      55.955000000000013      46.930000000000007
   295   1      10.830000000000005      57.760000000000012      45.125000000000007
   296   1      9.0250000000000075      55.955000000000013      48.735000000000007
   297   1      9.0250000000000075      57.760000000000012      50.540000000000006
   298   1      10.830000000000005      55.955000000000013      50.540000000000006
   299   1      10.830000000000005      57.760000000000012      48.735000000000007
   300   1      9.0250000000000075      55.955000000000013      52.345000000000006
   301   1      9.0250000000000075      57.760000000000012      54.150000000000006
   302   1      10.830000000000005      55.955000000000013      54.150000000000006
   303   1      10.830000000000005      57.760000000000012      52.345000000000006
   304   1      9.0250000000000075      55.955000000000013      55.955000000000013
   305   1      9.0250000000000075      57.760000000000012      57.760000000000012
   306   1      10.830000000000005      55.955000000000013      57.760000000000012
   307   1      10.830000000000005      57.760000000000012      55.955000000000013
   308   1      9.0250000000000075      55.955000000000013      59.565000000000005
   309   1      9.0250000000000075      57.760000000000012      61.370000000000005
   310   1      10.830000000000005      55.955000000000013      61.370000000000005
   311   1      10.830000000000005      57.760000000000012      59.565000000000005
   312   1      9.0250000000000075      55.955000000000013      63.175000000000011
   313   1      10.830000000000005      55.955000000000013      64.980000000000018
   314   1      10.830000000000005      57.760000000000012      63.175000000000011
   315   1      10.830000000000005      55.955000000000013      68.590000000000032
   316   1      10.830000000000005      57.760000000000012      66.785000000000025
   317   1      10.830000000000005      59.565000000000005      39.710000000000008
   318   1      10.830000000000005      59.565000000000005      43.320000000000007
   319   1      10.830000000000005      61.370000000000005      41.515000000000008
   320   1      9.0250000000000075      59.565000000000005      45.125000000000007
   321   1      9.0250000000000075      61.370000000000005      46.930000000000007
   322   1      10.830000000000005      59.565000000000005      46.930000000000007
   323   1      10.830000000000005      61.370000000000005      45.125000000000007
   324   1      9.0250000000000075      59.565000000000005      48.735000000000007
   325   1      9.0250000000000075      61.370000000000005      50.540000000000006
   326   1      10.830000000000005      59.565000000000005      50.540000000000006
   327   1      10.830000000000005      61.370000000000005      48.735000000000007
   328   1      9.0250000000000075      59.565000000000005      52.345000000000006
   329   1      9.0250000000000075      61.370000000000005      54.150000000000006
   330   1      10.830000000000005      59.565000000000005      54.150000000000006
   331   1      10.830000000000005      61.370000000000005      52.345000000000006
   332   1      9.0250000000000075      59.565000000000005      55.955000000000013
   333   1      9.0250000000000075      61.370000000000005      57.760000000000012
   334   1      10.830000000000005      59.565000000000005      57.760000000000012
   335   1      10.830000000000005      61.370000000000005      55.955000000000013
   336   1      9.0250000000000075      59.565000000000005      59.565000000000005
   337   1      10.830000000000005      59.565000000000005      61.370000000000005
   338   1      10.830000000000005      61.370000000000005      59.565000000000005
   339   1      10.830000000000005      59.565000000000005      64.980000000000018
   340   1      10.830000000000005      61.370000000000005      63.175000000000011
   341   1      10.830000000000005      63.175000000000011      43.320000000000007
   342   1      10.830000000000005      63.175000000000011      46.930000000000007
   343   1      10.830000000000005      64.980000000000018      45.125000000000007
   344   1      9.0250000000000075      63.175000000000011      48.735000000000007
   345   1      9.0250000000000075      64.980000000000018      50.540000000000006
   346   1      10.830000000000005      63.175000000000011      50.540000000000006
   347   1      10.830000000000005      64.980000000000018      48.735000000000007
   348   1      9.0250000000000075      63.175000000000011      52.345000000000006
   349   1      9.0250000000000075      64.980000000000018      54.150000000000006
   350   1      10.830000000000005      63.175000000000011      54.150000000000006
   351   1      10.830000000000005      64.980000000000018      52.345000000000006
   352   1      9.0250000000000075      63.175000000000011      55.955000000000013
   353   1      10.830000000000005      63.175000000000011      57.760000000000012
   354   1      10.830000000000005      64.980000000000018      55.955000000000013
   355   1      10.830000000000005      63.175000000000011      61.370000000000005
   356   1      10.830000000000005      64.980000000000018      59.565000000000005
   357   1      10.830000000000005      66.785000000000025      46.930000000000007
   358   1      10.830000000000005      66.785000000000025      50.540000000000006