model_files/CuFeNi/CuFeNi_30000/CuFeNi_411/CuFeNi_411_fcc_29957_temp.data (written by ASE) 

29957 	 atoms 
3  atom types
0.0                      87  xlo xhi
0.0                      87  ylo yhi
0.0                      87  zlo zhi


Atoms 

     1   1      1.7899999999999991      37.590000000000003      42.960000000000001
     2   1      1.7899999999999991      39.380000000000003      41.170000000000002
     3   1      1.7899999999999991      41.170000000000002      39.380000000000003
     4   1      1.7899999999999991      39.380000000000003                   44.75
     5   1      1.7899999999999991      41.170000000000002      42.960000000000001
     6   1      1.7899999999999991      41.170000000000002      46.539999999999999
     7   1      1.7899999999999991      42.960000000000001      37.590000000000003
     8   1      1.7899999999999991      42.960000000000001      41.170000000000002
     9   1      1.7899999999999991                   44.75      39.380000000000003
    10   1                       0      42.960000000000001      42.960000000000001
    11   1      1.7899999999999991      42.960000000000001                   44.75
    12   1      1.7899999999999991                   44.75      42.960000000000001
    13   1      1.7899999999999991      42.960000000000001      48.329999999999998
    14   1      1.7899999999999991                   44.75      46.539999999999999
    15   1      1.7899999999999991      46.539999999999999      41.170000000000002
    16   1      1.7899999999999991      46.539999999999999                   44.75
    17   1      1.7899999999999991      48.329999999999998      42.960000000000001
    18   1      5.3699999999999974                   23.27      42.960000000000001
    19   1      5.3699999999999974      25.060000000000002      41.170000000000002
    20   1      5.3699999999999974      26.850000000000001      39.380000000000003
    21   1      5.3699999999999974      25.060000000000002                   44.75
    22   1      5.3699999999999974      26.850000000000001      42.960000000000001
    23   1      5.3699999999999974      26.850000000000001      46.539999999999999
    24   1      5.3699999999999974      28.640000000000001      37.590000000000003
    25   1      5.3699999999999974                   30.43      35.800000000000004
    26   1      3.5800000000000054                   30.43      41.170000000000002
    27   1      5.3699999999999974      28.640000000000001      41.170000000000002
    28   1      5.3699999999999974                   30.43      39.380000000000003
    29   1      3.5800000000000054      28.640000000000001      42.960000000000001
    30   1      3.5800000000000054                   30.43                   44.75
    31   1      5.3699999999999974      28.640000000000001                   44.75
    32   1      5.3699999999999974                   30.43      42.960000000000001
    33   1      5.3699999999999974      28.640000000000001      48.329999999999998
    34   1      5.3699999999999974                   30.43      46.539999999999999
    35   1      5.3699999999999974                   30.43      50.120000000000005
    36   1      5.3699999999999974      32.219999999999999      34.009999999999998
    37   1      5.3699999999999974      34.009999999999998      32.219999999999999
    38   1      3.5800000000000054      34.009999999999998      37.590000000000003
    39   1      5.3699999999999974      32.219999999999999      37.590000000000003
    40   1      5.3699999999999974      34.009999999999998      35.800000000000004
    41   1      3.5800000000000054      32.219999999999999      39.380000000000003
    42   1      3.5800000000000054      34.009999999999998      41.170000000000002
    43   1      5.3699999999999974      32.219999999999999      41.170000000000002
    44   1      5.3699999999999974      34.009999999999998      39.380000000000003
    45   1      3.5800000000000054      32.219999999999999      42.960000000000001
    46   1      3.5800000000000054      34.009999999999998                   44.75
    47   1      5.3699999999999974      32.219999999999999                   44.75
    48   1      5.3699999999999974      34.009999999999998      42.960000000000001
    49   1      3.5800000000000054      32.219999999999999      46.539999999999999
    50   1      3.5800000000000054      34.009999999999998      48.329999999999998
    51   1      5.3699999999999974      32.219999999999999      48.329999999999998
    52   1      5.3699999999999974      34.009999999999998      46.539999999999999
    53   1      5.3699999999999974      32.219999999999999      51.910000000000004
    54   1      5.3699999999999974      34.009999999999998      50.120000000000005
    55   1      5.3699999999999974      34.009999999999998      53.700000000000003
    56   1      5.3699999999999974      35.800000000000004                   30.43
    57   1      5.3699999999999974      37.590000000000003      28.640000000000001
    58   1      3.5800000000000054      37.590000000000003      34.009999999999998
    59   1      5.3699999999999974      35.800000000000004      34.009999999999998
    60   1      5.3699999999999974      37.590000000000003      32.219999999999999
    61   1      3.5800000000000054      35.800000000000004      35.800000000000004
    62   1      3.5800000000000054      37.590000000000003      37.590000000000003
    63   1      5.3699999999999974      35.800000000000004      37.590000000000003
    64   1      5.3699999999999974      37.590000000000003      35.800000000000004
    65   1      3.5800000000000054      35.800000000000004      39.380000000000003
    66   1      3.5800000000000054      37.590000000000003      41.170000000000002
    67   1      5.3699999999999974      35.800000000000004      41.170000000000002
    68   1      5.3699999999999974      37.590000000000003      39.380000000000003
    69   1      3.5800000000000054      35.800000000000004      42.960000000000001
    70   1      3.5800000000000054      37.590000000000003                   44.75
    71   1      5.3699999999999974      35.800000000000004                   44.75
    72   1      5.3699999999999974      37.590000000000003      42.960000000000001
    73   1      3.5800000000000054      35.800000000000004      46.539999999999999
    74   1      3.5800000000000054      37.590000000000003      48.329999999999998
    75   1      5.3699999999999974      35.800000000000004      48.329999999999998
    76   1      5.3699999999999974      37.590000000000003      46.539999999999999
    77   1      3.5800000000000054      35.800000000000004      50.120000000000005
    78   1      3.5800000000000054      37.590000000000003      51.910000000000004
    79   1      5.3699999999999974      35.800000000000004      51.910000000000004
    80   1      5.3699999999999974      37.590000000000003      50.120000000000005
    81   1      5.3699999999999974      35.800000000000004      55.490000000000002
    82   1      5.3699999999999974      37.590000000000003      53.700000000000003
    83   1      5.3699999999999974      37.590000000000003      57.280000000000001
    84   1      5.3699999999999974      39.380000000000003      26.850000000000001
    85   1      5.3699999999999974      41.170000000000002      25.060000000000002
    86   1      3.5800000000000054      41.170000000000002                   30.43
    87   1      5.3699999999999974      39.380000000000003                   30.43
    88   1      5.3699999999999974      41.170000000000002      28.640000000000001
    89   1      3.5800000000000054      39.380000000000003      32.219999999999999
    90   1      3.5800000000000054      41.170000000000002      34.009999999999998
    91   1      5.3699999999999974      39.380000000000003      34.009999999999998
    92   1      5.3699999999999974      41.170000000000002      32.219999999999999
    93   1      3.5800000000000054      39.380000000000003      35.800000000000004
    94   1      3.5800000000000054      41.170000000000002      37.590000000000003
    95   1      5.3699999999999974      39.380000000000003      37.590000000000003
    96   1      5.3699999999999974      41.170000000000002      35.800000000000004
    97   1      3.5800000000000054      39.380000000000003      39.380000000000003
    98   1      3.5800000000000054      41.170000000000002      41.170000000000002
    99   1      5.3699999999999974      39.380000000000003      41.170000000000002
   100   1      5.3699999999999974      41.170000000000002      39.380000000000003
   101   1      3.5800000000000054      39.380000000000003      42.960000000000001
   102   1      3.5800000000000054      41.170000000000002                   44.75
   103   1      5.3699999999999974      39.380000000000003                   44.75
   104   1      5.3699999999999974      41.170000000000002      42.960000000000001
   105   1      3.5800000000000054      39.380000000000003      46.539999999999999
   106   1      3.5800000000000054      41.170000000000002      48.329999999999998
   107   1      5.3699999999999974      39.380000000000003      48.329999999999998
   108   1      5.3699999999999974      41.170000000000002      46.539999999999999
   109   1      3.5800000000000054      39.380000000000003      50.120000000000005
   110   1      3.5800000000000054      41.170000000000002      51.910000000000004
   111   1      5.3699999999999974      39.380000000000003      51.910000000000004
   112   1      5.3699999999999974      41.170000000000002      50.120000000000005
   113   1      3.5800000000000054      39.380000000000003      53.700000000000003
   114   1      3.5800000000000054      41.170000000000002      55.490000000000002
   115   1      5.3699999999999974      39.380000000000003      55.490000000000002
   116   1      5.3699999999999974      41.170000000000002      53.700000000000003
   117   1      5.3699999999999974      39.380000000000003                   59.07
   118   1      5.3699999999999974      41.170000000000002      57.280000000000001
   119   1      5.3699999999999974      41.170000000000002      60.859999999999999
   120   1      5.3699999999999974      42.960000000000001                   23.27
   121   1      5.3699999999999974      42.960000000000001      26.850000000000001
   122   1      5.3699999999999974                   44.75      25.060000000000002
   123   1      3.5800000000000054      42.960000000000001      28.640000000000001
   124   1      3.5800000000000054                   44.75                   30.43
   125   1      5.3699999999999974      42.960000000000001                   30.43
   126   1      5.3699999999999974                   44.75      28.640000000000001
   127   1      3.5800000000000054      42.960000000000001      32.219999999999999
   128   1      3.5800000000000054                   44.75      34.009999999999998
   129   1      5.3699999999999974      42.960000000000001      34.009999999999998
   130   1      5.3699999999999974                   44.75      32.219999999999999
   131   1      3.5800000000000054      42.960000000000001      35.800000000000004
   132   1      3.5800000000000054                   44.75      37.590000000000003
   133   1      5.3699999999999974      42.960000000000001      37.590000000000003
   134   1      5.3699999999999974                   44.75      35.800000000000004
   135   1      3.5800000000000054      42.960000000000001      39.380000000000003
   136   1      3.5800000000000054                   44.75      41.170000000000002
   137   1      5.3699999999999974      42.960000000000001      41.170000000000002
   138   1      5.3699999999999974                   44.75      39.380000000000003
   139   1      3.5800000000000054      42.960000000000001      42.960000000000001
   140   1      3.5800000000000054                   44.75                   44.75
   141   1      5.3699999999999974      42.960000000000001                   44.75
   142   1      5.3699999999999974                   44.75      42.960000000000001
   143   1      3.5800000000000054      42.960000000000001      46.539999999999999
   144   1      3.5800000000000054                   44.75      48.329999999999998
   145   1      5.3699999999999974      42.960000000000001      48.329999999999998
   146   1      5.3699999999999974                   44.75      46.539999999999999
   147   1      3.5800000000000054      42.960000000000001      50.120000000000005
   148   1      3.5800000000000054                   44.75      51.910000000000004
   149   1      5.3699999999999974      42.960000000000001      51.910000000000004
   150   1      5.3699999999999974                   44.75      50.120000000000005
   151   1      3.5800000000000054      42.960000000000001      53.700000000000003
   152   1      3.5800000000000054                   44.75      55.490000000000002
   153   1      5.3699999999999974      42.960000000000001      55.490000000000002
   154   1      5.3699999999999974                   44.75      53.700000000000003
   155   1      3.5800000000000054      42.960000000000001      57.280000000000001
   156   1      5.3699999999999974      42.960000000000001                   59.07
   157   1      5.3699999999999974                   44.75      57.280000000000001
   158   1      5.3699999999999974      42.960000000000001      62.649999999999999
   159   1      5.3699999999999974                   44.75      60.859999999999999
   160   1      5.3699999999999974      46.539999999999999      26.850000000000001
   161   1      5.3699999999999974      46.539999999999999                   30.43
   162   1      5.3699999999999974      48.329999999999998      28.640000000000001
   163   1      3.5800000000000054      46.539999999999999      32.219999999999999
   164   1      3.5800000000000054      48.329999999999998      34.009999999999998
   165   1      5.3699999999999974      46.539999999999999      34.009999999999998
   166   1      5.3699999999999974      48.329999999999998      32.219999999999999
   167   1      3.5800000000000054      46.539999999999999      35.800000000000004
   168   1      3.5800000000000054      48.329999999999998      37.590000000000003
   169   1      5.3699999999999974      46.539999999999999      37.590000000000003
   170   1      5.3699999999999974      48.329999999999998      35.800000000000004
   171   1      3.5800000000000054      46.539999999999999      39.380000000000003
   172   1      3.5800000000000054      48.329999999999998      41.170000000000002
   173   1      5.3699999999999974      46.539999999999999      41.170000000000002
   174   1      5.3699999999999974      48.329999999999998      39.380000000000003
   175   1      3.5800000000000054      46.539999999999999      42.960000000000001
   176   1      3.5800000000000054      48.329999999999998                   44.75
   177   1      5.3699999999999974      46.539999999999999                   44.75
   178   1      5.3699999999999974      48.329999999999998      42.960000000000001
   179   1      3.5800000000000054      46.539999999999999      46.539999999999999
   180   1      3.5800000000000054      48.329999999999998      48.329999999999998
   181   1      5.3699999999999974      46.539999999999999      48.329999999999998
   182   1      5.3699999999999974      48.329999999999998      46.539999999999999
   183   1      3.5800000000000054      46.539999999999999      50.120000000000005
   184   1      3.5800000000000054      48.329999999999998      51.910000000000004
   185   1      5.3699999999999974      46.539999999999999      51.910000000000004
   186   1      5.3699999999999974      48.329999999999998      50.120000000000005
   187   1      3.5800000000000054      46.539999999999999      53.700000000000003
   188   1      5.3699999999999974      46.539999999999999      55.490000000000002
   189   1      5.3699999999999974      48.329999999999998      53.700000000000003
   190   1      5.3699999999999974      46.539999999999999                   59.07
   191   1      5.3699999999999974      48.329999999999998      57.280000000000001
   192   1      5.3699999999999974      50.120000000000005                   30.43
   193   1      5.3699999999999974      50.120000000000005      34.009999999999998
   194   1      5.3699999999999974      51.910000000000004      32.219999999999999
   195   1      3.5800000000000054      50.120000000000005      35.800000000000004
   196   1      3.5800000000000054      51.910000000000004      37.590000000000003
   197   1      5.3699999999999974      50.120000000000005      37.590000000000003
   198   1      5.3699999999999974      51.910000000000004      35.800000000000004
   199   1      3.5800000000000054      50.120000000000005      39.380000000000003
   200   1      3.5800000000000054      51.910000000000004      41.170000000000002
   201   1      5.3699999999999974      50.120000000000005      41.170000000000002
   202   1      5.3699999999999974      51.910000000000004      39.380000000000003
   203   1      3.5800000000000054      50.120000000000005      42.960000000000001
   204   1      3.5800000000000054      51.910000000000004                   44.75
   205   1      5.3699999999999974      50.120000000000005                   44.75
   206   1      5.3699999999999974      51.910000000000004      42.960000000000001
   207   1      3.5800000000000054      50.120000000000005      46.539999999999999
   208   1      3.5800000000000054      51.910000000000004      48.329999999999998
   209   1      5.3699999999999974      50.120000000000005      48.329999999999998
   210   1      5.3699999999999974      51.910000000000004      46.539999999999999
   211   1      3.5800000000000054      50.120000000000005      50.120000000000005
   212   1      5.3699999999999974      50.120000000000005      51.910000000000004
   213   1      5.3699999999999974      51.910000000000004      50.120000000000005
   214   1      5.3699999999999974      50.120000000000005      55.490000000000002
   215   1      5.3699999999999974      51.910000000000004      53.700000000000003
   216   1      5.3699999999999974      53.700000000000003      34.009999999999998
   217   1      5.3699999999999974      53.700000000000003      37.590000000000003
   218   1      5.3699999999999974      55.490000000000002      35.800000000000004
   219   1      3.5800000000000054      53.700000000000003      39.380000000000003
   220   1      3.5800000000000054      55.490000000000002      41.170000000000002
   221   1      5.3699999999999974      53.700000000000003      41.170000000000002
   222   1      5.3699999999999974      55.490000000000002      39.380000000000003
   223   1      3.5800000000000054      53.700000000000003      42.960000000000001
   224   1      3.5800000000000054      55.490000000000002                   44.75
   225   1      5.3699999999999974      53.700000000000003                   44.75
   226   1      5.3699999999999974      55.490000000000002      42.960000000000001
   227   1      3.5800000000000054      53.700000000000003      46.539999999999999
   228   1      5.3699999999999974      53.700000000000003      48.329999999999998
   229   1      5.3699999999999974      55.490000000000002      46.539999999999999
   230   1      5.3699999999999974      53.700000000000003      51.910000000000004
   231   1      5.3699999999999974      55.490000000000002      50.120000000000005
   232   1      5.3699999999999974      57.280000000000001      37.590000000000003
   233   1      5.3699999999999974      57.280000000000001      41.170000000000002
   234   1      5.3699999999999974                   59.07      39.380000000000003
   235   1      3.5800000000000054      57.280000000000001      42.960000000000001
   236   1      5.3699999999999974      57.280000000000001                   44.75
   237   1      5.3699999999999974                   59.07      42.960000000000001
   238   1      5.3699999999999974      57.280000000000001      48.329999999999998
   239   1      5.3699999999999974                   59.07      46.539999999999999
   240   1      5.3699999999999974      60.859999999999999      41.170000000000002
   241   1      5.3699999999999974      60.859999999999999                   44.75
   242   1      5.3699999999999974      62.649999999999999      42.960000000000001
   243   1      8.9500000000000028      8.9500000000000028      42.960000000000001
   244   1      8.9500000000000028      10.740000000000002      41.170000000000002
   245   1      8.9500000000000028      12.530000000000001      39.380000000000003
   246   1      8.9500000000000028      10.740000000000002                   44.75
   247   1      8.9500000000000028      12.530000000000001      42.960000000000001
   248   1      8.9500000000000028      12.530000000000001      46.539999999999999
   249   1      8.9500000000000028                   14.32      37.590000000000003
   250   1      8.9500000000000028      16.109999999999999      35.800000000000004
   251   1      7.1600000000000037      16.109999999999999      41.170000000000002
   252   1      8.9500000000000028                   14.32      41.170000000000002
   253   1      8.9500000000000028      16.109999999999999      39.380000000000003
   254   1      7.1600000000000037                   14.32      42.960000000000001
   255   1      7.1600000000000037      16.109999999999999                   44.75
   256   1      8.9500000000000028                   14.32                   44.75
   257   1      8.9500000000000028      16.109999999999999      42.960000000000001
   258   1      8.9500000000000028                   14.32      48.329999999999998
   259   1      8.9500000000000028      16.109999999999999      46.539999999999999
   260   1      8.9500000000000028      16.109999999999999      50.120000000000005
   261   1      8.9500000000000028      17.900000000000002      34.009999999999998
   262   1      8.9500000000000028      19.690000000000001      32.219999999999999
   263   1      7.1600000000000037      19.690000000000001      37.590000000000003
   264   1      8.9500000000000028      17.900000000000002      37.590000000000003
   265   1      8.9500000000000028      19.690000000000001      35.800000000000004
   266   1      7.1600000000000037      17.900000000000002      39.380000000000003
   267   1      7.1600000000000037      19.690000000000001      41.170000000000002
   268   1      8.9500000000000028      17.900000000000002      41.170000000000002
   269   1      8.9500000000000028      19.690000000000001      39.380000000000003
   270   1      7.1600000000000037      17.900000000000002      42.960000000000001
   271   1      7.1600000000000037      19.690000000000001                   44.75
   272   1      8.9500000000000028      17.900000000000002                   44.75
   273   1      8.9500000000000028      19.690000000000001      42.960000000000001
   274   1      7.1600000000000037      17.900000000000002      46.539999999999999
   275   1      7.1600000000000037      19.690000000000001      48.329999999999998
   276   1      8.9500000000000028      17.900000000000002      48.329999999999998
   277   1      8.9500000000000028      19.690000000000001      46.539999999999999
   278   1      8.9500000000000028      17.900000000000002      51.910000000000004
   279   1      8.9500000000000028      19.690000000000001      50.120000000000005
   280   1      8.9500000000000028      19.690000000000001      53.700000000000003
   281   1      8.9500000000000028      21.480000000000004                   30.43
   282   1      8.9500000000000028                   23.27      28.640000000000001
   283   1      7.1600000000000037                   23.27      34.009999999999998
   284   1      8.9500000000000028      21.480000000000004      34.009999999999998
   285   1      8.9500000000000028                   23.27      32.219999999999999
   286   1      7.1600000000000037      21.480000000000004      35.800000000000004
   287   1      7.1600000000000037                   23.27      37.590000000000003
   288   1      8.9500000000000028      21.480000000000004      37.590000000000003
   289   1      8.9500000000000028                   23.27      35.800000000000004
   290   1      7.1600000000000037      21.480000000000004      39.380000000000003
   291   1      7.1600000000000037                   23.27      41.170000000000002
   292   1      8.9500000000000028      21.480000000000004      41.170000000000002
   293   1      8.9500000000000028                   23.27      39.380000000000003
   294   1      7.1600000000000037      21.480000000000004      42.960000000000001
   295   1      7.1600000000000037                   23.27                   44.75
   296   1      8.9500000000000028      21.480000000000004                   44.75
   297   1      8.9500000000000028                   23.27      42.960000000000001
   298   1      7.1600000000000037      21.480000000000004      46.539999999999999
   299   1      7.1600000000000037                   23.27      48.329999999999998
   300   1      8.9500000000000028      21.480000000000004      48.329999999999998
   301   1      8.9500000000000028                   23.27      46.539999999999999
   302   1      7.1600000000000037      21.480000000000004      50.120000000000005
   303   1      7.1600000000000037                   23.27      51.910000000000004
   304   1      8.9500000000000028      21.480000000000004      51.910000000000004
   305   1      8.9500000000000028                   23.27      50.120000000000005
   306   1      8.9500000000000028      21.480000000000004      55.490000000000002
   307   1      8.9500000000000028                   23.27      53.700000000000003
   308   1      8.9500000000000028                   23.27      57.280000000000001
   309   1      8.9500000000000028      25.060000000000002      26.850000000000001
   310   1      8.9500000000000028      26.850000000000001      25.060000000000002
   311   1      7.1600000000000037      26.850000000000001                   30.43
   312   1      8.9500000000000028      25.060000000000002                   30.43
   313   1      8.9500000000000028      26.850000000000001      28.640000000000001
   314   1      7.1600000000000037      25.060000000000002      32.219999999999999
   315   1      7.1600000000000037      26.850000000000001      34.009999999999998
   316   1      8.9500000000000028      25.060000000000002      34.009999999999998
   317   1      8.9500000000000028      26.850000000000001      32.219999999999999
   318   1      7.1600000000000037      25.060000000000002      35.800000000000004
   319   1      7.1600000000000037      26.850000000000001      37.590000000000003
   320   1      8.9500000000000028      25.060000000000002      37.590000000000003
   321   1      8.9500000000000028      26.850000000000001      35.800000000000004
   322   1      7.1600000000000037      25.060000000000002      39.380000000000003
   323   1      7.1600000000000037      26.850000000000001      41.170000000000002
   324   1      8.9500000000000028      25.060000000000002      41.170000000000002
   325   1      8.9500000000000028      26.850000000000001      39.380000000000003
   326   1      7.1600000000000037      25.060000000000002      42.960000000000001
   327   1      7.1600000000000037      26.850000000000001                   44.75
   328   1      8.9500000000000028      25.060000000000002                   44.75
   329   1      8.9500000000000028      26.850000000000001      42.960000000000001
   330   1      7.1600000000000037      25.060000000000002      46.539999999999999
   331   1      7.1600000000000037      26.850000000000001      48.329999999999998
   332   1      8.9500000000000028      25.060000000000002      48.329999999999998
   333   1      8.9500000000000028      26.850000000000001      46.539999999999999
   334   1      7.1600000000000037      25.060000000000002      50.120000000000005
   335   1      7.1600000000000037      26.850000000000001      51.910000000000004
   336   1      8.9500000000000028      25.060000000000002      51.910000000000004
   337   1      8.9500000000000028      26.850000000000001      50.120000000000005
   338   1      7.1600000000000037      25.060000000000002      53.700000000000003
   339   1      7.1600000000000037      26.850000000000001      55.490000000000002
   340   1      8.9500000000000028      25.060000000000002      55.490000000000002
   341   1      8.9500000000000028      26.850000000000001      53.700000000000003
   342   1      8.9500000000000028      25.060000000000002                   59.07
   343   1      8.9500000000000028      26.850000000000001      57.280000000000001
   344   1      8.9500000000000028      26.850000000000001      60.859999999999999
   345   1      8.9500000000000028      28.640000000000001                   23.27
   346   1      8.9500000000000028                   30.43      21.480000000000004
   347   1      7.1600000000000037                   30.43      26.850000000000001
   348   1      8.9500000000000028      28.640000000000001      26.850000000000001
   349   1      8.9500000000000028                   30.43      25.060000000000002
   350   1      7.1600000000000037      28.640000000000001      28.640000000000001
   351   1      7.1600000000000037                   30.43                   30.43
   352   1      8.9500000000000028      28.640000000000001                   30.43
   353   1      8.9500000000000028                   30.43      28.640000000000001
   354   1      7.1600000000000037      28.640000000000001      32.219999999999999
   355   1      7.1600000000000037                   30.43      34.009999999999998
   356   1      8.9500000000000028      28.640000000000001      34.009999999999998
   357   1      8.9500000000000028                   30.43      32.219999999999999
   358   1      7.1600000000000037      28.640000000000001      35.800000000000004