model_files/PtCu/PtCu_30000/PtCu_410/PtCu_410_fcc_29755_temp.data (written by ASE) 

29755 	 atoms 
2  atom types
0.0                      84  xlo xhi
0.0                      84  ylo yhi
0.0                      84  zlo zhi


Atoms 

     1   1      1.9249999999999901       30.79999999999999      32.724999999999987
     2   1      1.9249999999999901      32.724999999999987       30.79999999999999
     3   1      1.9249999999999901       30.79999999999999      36.574999999999989
     4   1      1.9249999999999901      32.724999999999987      34.649999999999991
     5   1      1.9249999999999901       30.79999999999999       40.42499999999999
     6   1      1.9249999999999901      32.724999999999987      38.499999999999986
     7   1      1.9249999999999901       30.79999999999999      44.274999999999991
     8   1      1.9249999999999901      32.724999999999987      42.349999999999987
     9   1      1.9249999999999901       30.79999999999999      48.124999999999986
    10   1      1.9249999999999901      32.724999999999987      46.199999999999996
    11   1      1.9249999999999901       30.79999999999999       51.97499999999998
    12   1      1.9249999999999901      32.724999999999987       50.04999999999999
    13   1      1.9249999999999901      32.724999999999987      53.899999999999984
    14   1      1.9249999999999901      34.649999999999991      32.724999999999987
    15   1      1.9249999999999901      36.574999999999989       30.79999999999999
    16   1      1.9249999999999901      34.649999999999991      36.574999999999989
    17   1      1.9249999999999901      36.574999999999989      34.649999999999991
    18   1      1.9249999999999901      34.649999999999991       40.42499999999999
    19   1      1.9249999999999901      36.574999999999989      38.499999999999986
    20   1      1.9249999999999901      34.649999999999991      44.274999999999991
    21   1      1.9249999999999901      36.574999999999989      42.349999999999987
    22   1      1.9249999999999901      34.649999999999991      48.124999999999986
    23   1      1.9249999999999901      36.574999999999989      46.199999999999996
    24   1      1.9249999999999901      34.649999999999991       51.97499999999998
    25   1      1.9249999999999901      36.574999999999989       50.04999999999999
    26   1      1.9249999999999901      36.574999999999989      53.899999999999984
    27   1      1.9249999999999901      38.499999999999986      32.724999999999987
    28   1      1.9249999999999901       40.42499999999999       30.79999999999999
    29   1      1.9249999999999901      38.499999999999986      36.574999999999989
    30   1      1.9249999999999901       40.42499999999999      34.649999999999991
    31   1      83.999999999999986      38.499999999999986      38.499999999999986
    32   1      83.999999999999986       40.42499999999999       40.42499999999999
    33   1      1.9249999999999901      38.499999999999986       40.42499999999999
    34   1      1.9249999999999901       40.42499999999999      38.499999999999986
    35   1      83.999999999999986      38.499999999999986      42.349999999999987
    36   1      83.999999999999986       40.42499999999999      44.274999999999991
    37   1      1.9249999999999901      38.499999999999986      44.274999999999991
    38   1      1.9249999999999901       40.42499999999999      42.349999999999987
    39   1      83.999999999999986      38.499999999999986      46.199999999999996
    40   1      1.9249999999999901      38.499999999999986      48.124999999999986
    41   1      1.9249999999999901       40.42499999999999      46.199999999999996
    42   1      1.9249999999999901      38.499999999999986       51.97499999999998
    43   1      1.9249999999999901       40.42499999999999       50.04999999999999
    44   1      1.9249999999999901       40.42499999999999      53.899999999999984
    45   1      1.9249999999999901      42.349999999999987      32.724999999999987
    46   1      1.9249999999999901      44.274999999999991       30.79999999999999
    47   1      1.9249999999999901      42.349999999999987      36.574999999999989
    48   1      1.9249999999999901      44.274999999999991      34.649999999999991
    49   1      83.999999999999986      42.349999999999987      38.499999999999986
    50   1      83.999999999999986      44.274999999999991       40.42499999999999
    51   1      1.9249999999999901      42.349999999999987       40.42499999999999
    52   1      1.9249999999999901      44.274999999999991      38.499999999999986
    53   1      83.999999999999986      42.349999999999987      42.349999999999987
    54   1      83.999999999999986      44.274999999999991      44.274999999999991
    55   1      1.9249999999999901      42.349999999999987      44.274999999999991
    56   1      1.9249999999999901      44.274999999999991      42.349999999999987
    57   1      83.999999999999986      42.349999999999987      46.199999999999996
    58   1      1.9249999999999901      42.349999999999987      48.124999999999986
    59   1      1.9249999999999901      44.274999999999991      46.199999999999996
    60   1      1.9249999999999901      42.349999999999987       51.97499999999998
    61   1      1.9249999999999901      44.274999999999991       50.04999999999999
    62   1      1.9249999999999901      44.274999999999991      53.899999999999984
    63   1      1.9249999999999901      46.199999999999996      32.724999999999987
    64   1      1.9249999999999901      48.124999999999986       30.79999999999999
    65   1      1.9249999999999901      46.199999999999996      36.574999999999989
    66   1      1.9249999999999901      48.124999999999986      34.649999999999991
    67   1      83.999999999999986      46.199999999999996      38.499999999999986
    68   1      1.9249999999999901      46.199999999999996       40.42499999999999
    69   1      1.9249999999999901      48.124999999999986      38.499999999999986
    70   1      83.999999999999986      46.199999999999996      42.349999999999987
    71   1      1.9249999999999901      46.199999999999996      44.274999999999991
    72   1      1.9249999999999901      48.124999999999986      42.349999999999987
    73   1      83.999999999999986      46.199999999999996      46.199999999999996
    74   1      1.9249999999999901      46.199999999999996      48.124999999999986
    75   1      1.9249999999999901      48.124999999999986      46.199999999999996
    76   1      1.9249999999999901      46.199999999999996       51.97499999999998
    77   1      1.9249999999999901      48.124999999999986       50.04999999999999
    78   1      1.9249999999999901      48.124999999999986      53.899999999999984
    79   1      1.9249999999999901       50.04999999999999      32.724999999999987
    80   1      1.9249999999999901       51.97499999999998       30.79999999999999
    81   1      1.9249999999999901       50.04999999999999      36.574999999999989
    82   1      1.9249999999999901       51.97499999999998      34.649999999999991
    83   1      1.9249999999999901       50.04999999999999       40.42499999999999
    84   1      1.9249999999999901       51.97499999999998      38.499999999999986
    85   1      1.9249999999999901       50.04999999999999      44.274999999999991
    86   1      1.9249999999999901       51.97499999999998      42.349999999999987
    87   1      1.9249999999999901       50.04999999999999      48.124999999999986
    88   1      1.9249999999999901       51.97499999999998      46.199999999999996
    89   1      1.9249999999999901       50.04999999999999       51.97499999999998
    90   1      1.9249999999999901       51.97499999999998       50.04999999999999
    91   1      1.9249999999999901       51.97499999999998      53.899999999999984
    92   1      1.9249999999999901      53.899999999999984      32.724999999999987
    93   1      1.9249999999999901      53.899999999999984      36.574999999999989
    94   1      1.9249999999999901      53.899999999999984       40.42499999999999
    95   1      1.9249999999999901      53.899999999999984      44.274999999999991
    96   1      1.9249999999999901      53.899999999999984      48.124999999999986
    97   1      1.9249999999999901      53.899999999999984       51.97499999999998
    98   1      5.7749999999999915       15.39999999999999      17.324999999999992
    99   1      5.7749999999999915      17.324999999999992       15.39999999999999
   100   1      5.7749999999999915       15.39999999999999      21.174999999999994
   101   1      5.7749999999999915      17.324999999999992      19.249999999999993
   102   1      5.7749999999999915       15.39999999999999      25.024999999999991
   103   1      5.7749999999999915      17.324999999999992      23.099999999999987
   104   1      5.7749999999999915       15.39999999999999      28.874999999999989
   105   1      5.7749999999999915      17.324999999999992      26.949999999999992
   106   1      5.7749999999999915       15.39999999999999      32.724999999999987
   107   1      5.7749999999999915      17.324999999999992       30.79999999999999
   108   1      5.7749999999999915       15.39999999999999      36.574999999999989
   109   1      5.7749999999999915      17.324999999999992      34.649999999999991
   110   1      5.7749999999999915       15.39999999999999       40.42499999999999
   111   1      5.7749999999999915      17.324999999999992      38.499999999999986
   112   1      5.7749999999999915       15.39999999999999      44.274999999999991
   113   1      5.7749999999999915      17.324999999999992      42.349999999999987
   114   1      5.7749999999999915       15.39999999999999      48.124999999999986
   115   1      5.7749999999999915      17.324999999999992      46.199999999999996
   116   1      5.7749999999999915       15.39999999999999       51.97499999999998
   117   1      5.7749999999999915      17.324999999999992       50.04999999999999
   118   1      5.7749999999999915       15.39999999999999      55.824999999999989
   119   1      5.7749999999999915      17.324999999999992      53.899999999999984
   120   1      5.7749999999999915       15.39999999999999      59.674999999999983
   121   1      5.7749999999999915      17.324999999999992      57.749999999999993
   122   1      5.7749999999999915       15.39999999999999      63.524999999999991
   123   1      5.7749999999999915      17.324999999999992      61.599999999999987
   124   1      5.7749999999999915       15.39999999999999      67.374999999999986
   125   1      5.7749999999999915      17.324999999999992      65.449999999999989
   126   1      5.7749999999999915      17.324999999999992      69.299999999999997
   127   1      5.7749999999999915      19.249999999999993      17.324999999999992
   128   1      5.7749999999999915      21.174999999999994       15.39999999999999
   129   1      5.7749999999999915      19.249999999999993      21.174999999999994
   130   1      5.7749999999999915      21.174999999999994      19.249999999999993
   131   1      5.7749999999999915      19.249999999999993      25.024999999999991
   132   1      5.7749999999999915      21.174999999999994      23.099999999999987
   133   1      5.7749999999999915      19.249999999999993      28.874999999999989
   134   1      5.7749999999999915      21.174999999999994      26.949999999999992
   135   1      5.7749999999999915      19.249999999999993      32.724999999999987
   136   1      5.7749999999999915      21.174999999999994       30.79999999999999
   137   1      5.7749999999999915      19.249999999999993      36.574999999999989
   138   1      5.7749999999999915      21.174999999999994      34.649999999999991
   139   1      5.7749999999999915      19.249999999999993       40.42499999999999
   140   1      5.7749999999999915      21.174999999999994      38.499999999999986
   141   1      5.7749999999999915      19.249999999999993      44.274999999999991
   142   1      5.7749999999999915      21.174999999999994      42.349999999999987
   143   1      5.7749999999999915      19.249999999999993      48.124999999999986
   144   1      5.7749999999999915      21.174999999999994      46.199999999999996
   145   1      5.7749999999999915      19.249999999999993       51.97499999999998
   146   1      5.7749999999999915      21.174999999999994       50.04999999999999
   147   1      5.7749999999999915      19.249999999999993      55.824999999999989
   148   1      5.7749999999999915      21.174999999999994      53.899999999999984
   149   1      5.7749999999999915      19.249999999999993      59.674999999999983
   150   1      5.7749999999999915      21.174999999999994      57.749999999999993
   151   1      5.7749999999999915      19.249999999999993      63.524999999999991
   152   1      5.7749999999999915      21.174999999999994      61.599999999999987
   153   1      5.7749999999999915      19.249999999999993      67.374999999999986
   154   1      5.7749999999999915      21.174999999999994      65.449999999999989
   155   1      5.7749999999999915      21.174999999999994      69.299999999999997
   156   1      5.7749999999999915      23.099999999999987      17.324999999999992
   157   1      5.7749999999999915      25.024999999999991       15.39999999999999
   158   1      5.7749999999999915      23.099999999999987      21.174999999999994
   159   1      5.7749999999999915      25.024999999999991      19.249999999999993
   160   1      3.8499999999999939      23.099999999999987      23.099999999999987
   161   1      3.8499999999999939      25.024999999999991      25.024999999999991
   162   1      5.7749999999999915      23.099999999999987      25.024999999999991
   163   1      5.7749999999999915      25.024999999999991      23.099999999999987
   164   1      3.8499999999999939      23.099999999999987      26.949999999999992
   165   1      3.8499999999999939      25.024999999999991      28.874999999999989
   166   1      5.7749999999999915      23.099999999999987      28.874999999999989
   167   1      5.7749999999999915      25.024999999999991      26.949999999999992
   168   1      3.8499999999999939      23.099999999999987       30.79999999999999
   169   1      3.8499999999999939      25.024999999999991      32.724999999999987
   170   1      5.7749999999999915      23.099999999999987      32.724999999999987
   171   1      5.7749999999999915      25.024999999999991       30.79999999999999
   172   1      3.8499999999999939      23.099999999999987      34.649999999999991
   173   1      3.8499999999999939      25.024999999999991      36.574999999999989
   174   1      5.7749999999999915      23.099999999999987      36.574999999999989
   175   1      5.7749999999999915      25.024999999999991      34.649999999999991
   176   1      3.8499999999999939      23.099999999999987      38.499999999999986
   177   1      3.8499999999999939      25.024999999999991       40.42499999999999
   178   1      5.7749999999999915      23.099999999999987       40.42499999999999
   179   1      5.7749999999999915      25.024999999999991      38.499999999999986
   180   1      3.8499999999999939      23.099999999999987      42.349999999999987
   181   1      3.8499999999999939      25.024999999999991      44.274999999999991
   182   1      5.7749999999999915      23.099999999999987      44.274999999999991
   183   1      5.7749999999999915      25.024999999999991      42.349999999999987
   184   1      3.8499999999999939      23.099999999999987      46.199999999999996
   185   1      3.8499999999999939      25.024999999999991      48.124999999999986
   186   1      5.7749999999999915      23.099999999999987      48.124999999999986
   187   1      5.7749999999999915      25.024999999999991      46.199999999999996
   188   1      3.8499999999999939      23.099999999999987       50.04999999999999
   189   1      3.8499999999999939      25.024999999999991       51.97499999999998
   190   1      5.7749999999999915      23.099999999999987       51.97499999999998
   191   1      5.7749999999999915      25.024999999999991       50.04999999999999
   192   1      3.8499999999999939      23.099999999999987      53.899999999999984
   193   1      3.8499999999999939      25.024999999999991      55.824999999999989
   194   1      5.7749999999999915      23.099999999999987      55.824999999999989
   195   1      5.7749999999999915      25.024999999999991      53.899999999999984
   196   1      3.8499999999999939      23.099999999999987      57.749999999999993
   197   1      3.8499999999999939      25.024999999999991      59.674999999999983
   198   1      5.7749999999999915      23.099999999999987      59.674999999999983
   199   1      5.7749999999999915      25.024999999999991      57.749999999999993
   200   1      3.8499999999999939      23.099999999999987      61.599999999999987
   201   1      5.7749999999999915      23.099999999999987      63.524999999999991
   202   1      5.7749999999999915      25.024999999999991      61.599999999999987
   203   1      5.7749999999999915      23.099999999999987      67.374999999999986
   204   1      5.7749999999999915      25.024999999999991      65.449999999999989
   205   1      5.7749999999999915      25.024999999999991      69.299999999999997
   206   1      5.7749999999999915      26.949999999999992      17.324999999999992
   207   1      5.7749999999999915      28.874999999999989       15.39999999999999
   208   1      5.7749999999999915      26.949999999999992      21.174999999999994
   209   1      5.7749999999999915      28.874999999999989      19.249999999999993
   210   1      3.8499999999999939      26.949999999999992      23.099999999999987
   211   1      3.8499999999999939      28.874999999999989      25.024999999999991
   212   1      5.7749999999999915      26.949999999999992      25.024999999999991
   213   1      5.7749999999999915      28.874999999999989      23.099999999999987
   214   1      3.8499999999999939      26.949999999999992      26.949999999999992
   215   1      3.8499999999999939      28.874999999999989      28.874999999999989
   216   1      5.7749999999999915      26.949999999999992      28.874999999999989
   217   1      5.7749999999999915      28.874999999999989      26.949999999999992
   218   1      3.8499999999999939      26.949999999999992       30.79999999999999
   219   1      3.8499999999999939      28.874999999999989      32.724999999999987
   220   1      5.7749999999999915      26.949999999999992      32.724999999999987
   221   1      5.7749999999999915      28.874999999999989       30.79999999999999
   222   1      3.8499999999999939      26.949999999999992      34.649999999999991
   223   1      3.8499999999999939      28.874999999999989      36.574999999999989
   224   1      5.7749999999999915      26.949999999999992      36.574999999999989
   225   1      5.7749999999999915      28.874999999999989      34.649999999999991
   226   1      3.8499999999999939      26.949999999999992      38.499999999999986
   227   1      3.8499999999999939      28.874999999999989       40.42499999999999
   228   1      5.7749999999999915      26.949999999999992       40.42499999999999
   229   1      5.7749999999999915      28.874999999999989      38.499999999999986
   230   1      3.8499999999999939      26.949999999999992      42.349999999999987
   231   1      3.8499999999999939      28.874999999999989      44.274999999999991
   232   1      5.7749999999999915      26.949999999999992      44.274999999999991
   233   1      5.7749999999999915      28.874999999999989      42.349999999999987
   234   1      3.8499999999999939      26.949999999999992      46.199999999999996
   235   1      3.8499999999999939      28.874999999999989      48.124999999999986
   236   1      5.7749999999999915      26.949999999999992      48.124999999999986
   237   1      5.7749999999999915      28.874999999999989      46.199999999999996
   238   1      3.8499999999999939      26.949999999999992       50.04999999999999
   239   1      3.8499999999999939      28.874999999999989       51.97499999999998
   240   1      5.7749999999999915      26.949999999999992       51.97499999999998
   241   1      5.7749999999999915      28.874999999999989       50.04999999999999
   242   1      3.8499999999999939      26.949999999999992      53.899999999999984
   243   1      3.8499999999999939      28.874999999999989      55.824999999999989
   244   1      5.7749999999999915      26.949999999999992      55.824999999999989
   245   1      5.7749999999999915      28.874999999999989      53.899999999999984
   246   1      3.8499999999999939      26.949999999999992      57.749999999999993
   247   1      3.8499999999999939      28.874999999999989      59.674999999999983
   248   1      5.7749999999999915      26.949999999999992      59.674999999999983
   249   1      5.7749999999999915      28.874999999999989      57.749999999999993
   250   1      3.8499999999999939      26.949999999999992      61.599999999999987
   251   1      5.7749999999999915      26.949999999999992      63.524999999999991
   252   1      5.7749999999999915      28.874999999999989      61.599999999999987
   253   1      5.7749999999999915      26.949999999999992      67.374999999999986
   254   1      5.7749999999999915      28.874999999999989      65.449999999999989
   255   1      5.7749999999999915      28.874999999999989      69.299999999999997
   256   1      5.7749999999999915       30.79999999999999      17.324999999999992
   257   1      5.7749999999999915      32.724999999999987       15.39999999999999
   258   1      5.7749999999999915       30.79999999999999      21.174999999999994
   259   1      5.7749999999999915      32.724999999999987      19.249999999999993
   260   1      3.8499999999999939       30.79999999999999      23.099999999999987
   261   1      3.8499999999999939      32.724999999999987      25.024999999999991
   262   1      5.7749999999999915       30.79999999999999      25.024999999999991
   263   1      5.7749999999999915      32.724999999999987      23.099999999999987
   264   1      3.8499999999999939       30.79999999999999      26.949999999999992
   265   1      3.8499999999999939      32.724999999999987      28.874999999999989
   266   1      5.7749999999999915       30.79999999999999      28.874999999999989
   267   1      5.7749999999999915      32.724999999999987      26.949999999999992
   268   1      3.8499999999999939       30.79999999999999       30.79999999999999
   269   1      3.8499999999999939      32.724999999999987      32.724999999999987
   270   1      5.7749999999999915       30.79999999999999      32.724999999999987
   271   1      5.7749999999999915      32.724999999999987       30.79999999999999
   272   1      3.8499999999999939       30.79999999999999      34.649999999999991
   273   1      3.8499999999999939      32.724999999999987      36.574999999999989
   274   1      5.7749999999999915       30.79999999999999      36.574999999999989
   275   1      5.7749999999999915      32.724999999999987      34.649999999999991
   276   1      3.8499999999999939       30.79999999999999      38.499999999999986
   277   1      3.8499999999999939      32.724999999999987       40.42499999999999
   278   1      5.7749999999999915       30.79999999999999       40.42499999999999
   279   1      5.7749999999999915      32.724999999999987      38.499999999999986
   280   1      3.8499999999999939       30.79999999999999      42.349999999999987
   281   1      3.8499999999999939      32.724999999999987      44.274999999999991
   282   1      5.7749999999999915       30.79999999999999      44.274999999999991
   283   1      5.7749999999999915      32.724999999999987      42.349999999999987
   284   1      3.8499999999999939       30.79999999999999      46.199999999999996
   285   1      3.8499999999999939      32.724999999999987      48.124999999999986
   286   1      5.7749999999999915       30.79999999999999      48.124999999999986
   287   1      5.7749999999999915      32.724999999999987      46.199999999999996
   288   1      3.8499999999999939       30.79999999999999       50.04999999999999
   289   1      3.8499999999999939      32.724999999999987       51.97499999999998
   290   1      5.7749999999999915       30.79999999999999       51.97499999999998
   291   1      5.7749999999999915      32.724999999999987       50.04999999999999
   292   1      3.8499999999999939       30.79999999999999      53.899999999999984
   293   1      3.8499999999999939      32.724999999999987      55.824999999999989
   294   1      5.7749999999999915       30.79999999999999      55.824999999999989
   295   1      5.7749999999999915      32.724999999999987      53.899999999999984
   296   1      3.8499999999999939       30.79999999999999      57.749999999999993
   297   1      3.8499999999999939      32.724999999999987      59.674999999999983
   298   1      5.7749999999999915       30.79999999999999      59.674999999999983
   299   1      5.7749999999999915      32.724999999999987      57.749999999999993
   300   1      3.8499999999999939       30.79999999999999      61.599999999999987
   301   1      5.7749999999999915       30.79999999999999      63.524999999999991
   302   1      5.7749999999999915      32.724999999999987      61.599999999999987
   303   1      5.7749999999999915       30.79999999999999      67.374999999999986
   304   1      5.7749999999999915      32.724999999999987      65.449999999999989
   305   1      5.7749999999999915      32.724999999999987      69.299999999999997
   306   1      5.7749999999999915      34.649999999999991      17.324999999999992
   307   1      5.7749999999999915      36.574999999999989       15.39999999999999
   308   1      5.7749999999999915      34.649999999999991      21.174999999999994
   309   1      5.7749999999999915      36.574999999999989      19.249999999999993
   310   1      3.8499999999999939      34.649999999999991      23.099999999999987
   311   1      3.8499999999999939      36.574999999999989      25.024999999999991
   312   1      5.7749999999999915      34.649999999999991      25.024999999999991
   313   1      5.7749999999999915      36.574999999999989      23.099999999999987
   314   1      3.8499999999999939      34.649999999999991      26.949999999999992
   315   1      3.8499999999999939      36.574999999999989      28.874999999999989
   316   1      5.7749999999999915      34.649999999999991      28.874999999999989
   317   1      5.7749999999999915      36.574999999999989      26.949999999999992
   318   1      3.8499999999999939      34.649999999999991       30.79999999999999
   319   1      3.8499999999999939      36.574999999999989      32.724999999999987
   320   1      5.7749999999999915      34.649999999999991      32.724999999999987
   321   1      5.7749999999999915      36.574999999999989       30.79999999999999
   322   1      3.8499999999999939      34.649999999999991      34.649999999999991
   323   1      3.8499999999999939      36.574999999999989      36.574999999999989
   324   1      5.7749999999999915      34.649999999999991      36.574999999999989
   325   1      5.7749999999999915      36.574999999999989      34.649999999999991
   326   1      3.8499999999999939      34.649999999999991      38.499999999999986
   327   1      3.8499999999999939      36.574999999999989       40.42499999999999
   328   1      5.7749999999999915      34.649999999999991       40.42499999999999
   329   1      5.7749999999999915      36.574999999999989      38.499999999999986
   330   1      3.8499999999999939      34.649999999999991      42.349999999999987
   331   1      3.8499999999999939      36.574999999999989      44.274999999999991
   332   1      5.7749999999999915      34.649999999999991      44.274999999999991
   333   1      5.7749999999999915      36.574999999999989      42.349999999999987
   334   1      3.8499999999999939      34.649999999999991      46.199999999999996
   335   1      3.8499999999999939      36.574999999999989      48.124999999999986
   336   1      5.7749999999999915      34.649999999999991      48.124999999999986
   337   1      5.7749999999999915      36.574999999999989      46.199999999999996
   338   1      3.8499999999999939      34.649999999999991       50.04999999999999
   339   1      3.8499999999999939      36.574999999999989       51.97499999999998
   340   1      5.7749999999999915      34.649999999999991       51.97499999999998
   341   1      5.7749999999999915      36.574999999999989       50.04999999999999
   342   1      3.8499999999999939      34.649999999999991      53.899999999999984
   343   1      3.8499999999999939      36.574999999999989      55.824999999999989
   344   1      5.7749999999999915      34.649999999999991      55.824999999999989
   345   1      5.7749999999999915      36.574999999999989      53.899999999999984
   346   1      3.8499999999999939      34.649999999999991      57.749999999999993
   347   1      3.8499999999999939      36.574999999999989      59.674999999999983
   348   1      5.7749999999999915      34.649999999999991      59.674999999999983
   349   1      5.7749999999999915      36.574999999999989      57.749999999999993
   350   1      3.8499999999999939      34.649999999999991      61.599999999999987
   351   1      5.7749999999999915      34.649999999999991      63.524999999999991
   352   1      5.7749999999999915      36.574999999999989      61.599999999999987
   353   1      5.7749999999999915      34.649999999999991      67.374999999999986
   354   1      5.7749999999999915      36.574999999999989      65.449999999999989
   355   1      5.7749999999999915      36.574999999999989      69.299999999999997
   356   1      5.7749999999999915      38.499999999999986      17.324999999999992
   357   1      5.7749999999999915       40.42499999999999       15.39999999999999
   358   1      5.7749999999999915      38.499999999999986      21.174999999999994