model_files/PtFe/PtFe_30000/PtFe_532/PtFe_532_fcc_30213_temp.data (written by ASE) 

30213 	 atoms 
2  atom types
0.0                     107  xlo xhi
0.0                     107  ylo yhi
0.0                     107  zlo zhi


Atoms 

     1   1      1.8799999999999955      46.999999999999986      52.639999999999986
     2   1      1.8799999999999955      48.879999999999995      50.759999999999998
     3   1      1.8799999999999955      50.759999999999998      48.879999999999995
     4   1      1.8799999999999955      48.879999999999995      54.519999999999989
     5   1      1.8799999999999955      50.759999999999998      52.639999999999986
     6   1      1.8799999999999955      50.759999999999998      56.399999999999984
     7   1      1.8799999999999955      52.639999999999986      46.999999999999986
     8   1      1.8799999999999955      52.639999999999986      50.759999999999998
     9   1      1.8799999999999955      54.519999999999989      48.879999999999995
    10   1      106.99999999999999      52.639999999999986      52.639999999999986
    11   1      1.8799999999999955      52.639999999999986      54.519999999999989
    12   1      1.8799999999999955      54.519999999999989      52.639999999999986
    13   1      1.8799999999999955      52.639999999999986      58.279999999999987
    14   1      1.8799999999999955      54.519999999999989      56.399999999999984
    15   1      1.8799999999999955      56.399999999999984      50.759999999999998
    16   1      1.8799999999999955      56.399999999999984      54.519999999999989
    17   1      1.8799999999999955      58.279999999999987      52.639999999999986
    18   1      5.6399999999999935      43.239999999999988      48.879999999999995
    19   1      5.6399999999999935      43.239999999999988      52.639999999999986
    20   1      5.6399999999999935      43.239999999999988      56.399999999999984
    21   1      5.6399999999999935       45.11999999999999      46.999999999999986
    22   1      5.6399999999999935      46.999999999999986       45.11999999999999
    23   1      3.7599999999999976      46.999999999999986      50.759999999999998
    24   1      5.6399999999999935       45.11999999999999      50.759999999999998
    25   1      5.6399999999999935      46.999999999999986      48.879999999999995
    26   1      3.7599999999999976       45.11999999999999      52.639999999999986
    27   1      3.7599999999999976      46.999999999999986      54.519999999999989
    28   1      5.6399999999999935       45.11999999999999      54.519999999999989
    29   1      5.6399999999999935      46.999999999999986      52.639999999999986
    30   1      5.6399999999999935       45.11999999999999      58.279999999999987
    31   1      5.6399999999999935      46.999999999999986      56.399999999999984
    32   1      5.6399999999999935      46.999999999999986      60.159999999999982
    33   1      5.6399999999999935      48.879999999999995      43.239999999999988
    34   1      3.7599999999999976      50.759999999999998      46.999999999999986
    35   1      5.6399999999999935      48.879999999999995      46.999999999999986
    36   1      5.6399999999999935      50.759999999999998       45.11999999999999
    37   1      3.7599999999999976      48.879999999999995      48.879999999999995
    38   1      3.7599999999999976      50.759999999999998      50.759999999999998
    39   1      5.6399999999999935      48.879999999999995      50.759999999999998
    40   1      5.6399999999999935      50.759999999999998      48.879999999999995
    41   1      3.7599999999999976      48.879999999999995      52.639999999999986
    42   1      3.7599999999999976      50.759999999999998      54.519999999999989
    43   1      5.6399999999999935      48.879999999999995      54.519999999999989
    44   1      5.6399999999999935      50.759999999999998      52.639999999999986
    45   1      3.7599999999999976      48.879999999999995      56.399999999999984
    46   1      3.7599999999999976      50.759999999999998      58.279999999999987
    47   1      5.6399999999999935      48.879999999999995      58.279999999999987
    48   1      5.6399999999999935      50.759999999999998      56.399999999999984
    49   1      5.6399999999999935      48.879999999999995      62.039999999999985
    50   1      5.6399999999999935      50.759999999999998      60.159999999999982
    51   1      5.6399999999999935      52.639999999999986      43.239999999999988
    52   1      3.7599999999999976      52.639999999999986       45.11999999999999
    53   1      3.7599999999999976      54.519999999999989      46.999999999999986
    54   1      5.6399999999999935      52.639999999999986      46.999999999999986
    55   1      5.6399999999999935      54.519999999999989       45.11999999999999
    56   1      3.7599999999999976      52.639999999999986      48.879999999999995
    57   1      3.7599999999999976      54.519999999999989      50.759999999999998
    58   1      5.6399999999999935      52.639999999999986      50.759999999999998
    59   1      5.6399999999999935      54.519999999999989      48.879999999999995
    60   1      3.7599999999999976      52.639999999999986      52.639999999999986
    61   1      3.7599999999999976      54.519999999999989      54.519999999999989
    62   1      5.6399999999999935      52.639999999999986      54.519999999999989
    63   1      5.6399999999999935      54.519999999999989      52.639999999999986
    64   1      3.7599999999999976      52.639999999999986      56.399999999999984
    65   1      3.7599999999999976      54.519999999999989      58.279999999999987
    66   1      5.6399999999999935      52.639999999999986      58.279999999999987
    67   1      5.6399999999999935      54.519999999999989      56.399999999999984
    68   1      3.7599999999999976      52.639999999999986      60.159999999999982
    69   1      5.6399999999999935      52.639999999999986      62.039999999999985
    70   1      5.6399999999999935      54.519999999999989      60.159999999999982
    71   1      5.6399999999999935      56.399999999999984      43.239999999999988
    72   1      5.6399999999999935      56.399999999999984      46.999999999999986
    73   1      5.6399999999999935      58.279999999999987       45.11999999999999
    74   1      3.7599999999999976      56.399999999999984      48.879999999999995
    75   1      3.7599999999999976      58.279999999999987      50.759999999999998
    76   1      5.6399999999999935      56.399999999999984      50.759999999999998
    77   1      5.6399999999999935      58.279999999999987      48.879999999999995
    78   1      3.7599999999999976      56.399999999999984      52.639999999999986
    79   1      3.7599999999999976      58.279999999999987      54.519999999999989
    80   1      5.6399999999999935      56.399999999999984      54.519999999999989
    81   1      5.6399999999999935      58.279999999999987      52.639999999999986
    82   1      3.7599999999999976      56.399999999999984      56.399999999999984
    83   1      5.6399999999999935      56.399999999999984      58.279999999999987
    84   1      5.6399999999999935      58.279999999999987      56.399999999999984
    85   1      5.6399999999999935      56.399999999999984      62.039999999999985
    86   1      5.6399999999999935      58.279999999999987      60.159999999999982
    87   1      5.6399999999999935      60.159999999999982      46.999999999999986
    88   1      5.6399999999999935      60.159999999999982      50.759999999999998
    89   1      5.6399999999999935      62.039999999999985      48.879999999999995
    90   1      3.7599999999999976      60.159999999999982      52.639999999999986
    91   1      5.6399999999999935      60.159999999999982      54.519999999999989
    92   1      5.6399999999999935      62.039999999999985      52.639999999999986
    93   1      5.6399999999999935      60.159999999999982      58.279999999999987
    94   1      5.6399999999999935      62.039999999999985      56.399999999999984
    95   1      9.3999999999999986      35.719999999999992      52.639999999999986
    96   1      9.3999999999999986       39.47999999999999       45.11999999999999
    97   1      7.5199999999999951       39.47999999999999      50.759999999999998
    98   1      9.3999999999999986      37.599999999999994      50.759999999999998
    99   1      9.3999999999999986       39.47999999999999      48.879999999999995
   100   1      7.5199999999999951      37.599999999999994      52.639999999999986
   101   1      7.5199999999999951       39.47999999999999      54.519999999999989
   102   1      9.3999999999999986      37.599999999999994      54.519999999999989
   103   1      9.3999999999999986       39.47999999999999      52.639999999999986
   104   1      9.3999999999999986       39.47999999999999      56.399999999999984
   105   1      9.3999999999999986       39.47999999999999      60.159999999999982
   106   1      9.3999999999999986      41.359999999999992      43.239999999999988
   107   1      9.3999999999999986      43.239999999999988      41.359999999999992
   108   1      7.5199999999999951      43.239999999999988      46.999999999999986
   109   1      9.3999999999999986      41.359999999999992      46.999999999999986
   110   1      9.3999999999999986      43.239999999999988       45.11999999999999
   111   1      7.5199999999999951      41.359999999999992      48.879999999999995
   112   1      7.5199999999999951      43.239999999999988      50.759999999999998
   113   1      9.3999999999999986      41.359999999999992      50.759999999999998
   114   1      9.3999999999999986      43.239999999999988      48.879999999999995
   115   1      7.5199999999999951      41.359999999999992      52.639999999999986
   116   1      7.5199999999999951      43.239999999999988      54.519999999999989
   117   1      9.3999999999999986      41.359999999999992      54.519999999999989
   118   1      9.3999999999999986      43.239999999999988      52.639999999999986
   119   1      7.5199999999999951      41.359999999999992      56.399999999999984
   120   1      7.5199999999999951      43.239999999999988      58.279999999999987
   121   1      9.3999999999999986      41.359999999999992      58.279999999999987
   122   1      9.3999999999999986      43.239999999999988      56.399999999999984
   123   1      9.3999999999999986      41.359999999999992      62.039999999999985
   124   1      9.3999999999999986      43.239999999999988      60.159999999999982
   125   1      9.3999999999999986      43.239999999999988       63.91999999999998
   126   1      9.3999999999999986       45.11999999999999       39.47999999999999
   127   1      7.5199999999999951      46.999999999999986      43.239999999999988
   128   1      9.3999999999999986       45.11999999999999      43.239999999999988
   129   1      9.3999999999999986      46.999999999999986      41.359999999999992
   130   1      7.5199999999999951       45.11999999999999       45.11999999999999
   131   1      7.5199999999999951      46.999999999999986      46.999999999999986
   132   1      9.3999999999999986       45.11999999999999      46.999999999999986
   133   1      9.3999999999999986      46.999999999999986       45.11999999999999
   134   1      7.5199999999999951       45.11999999999999      48.879999999999995
   135   1      7.5199999999999951      46.999999999999986      50.759999999999998
   136   1      9.3999999999999986       45.11999999999999      50.759999999999998
   137   1      9.3999999999999986      46.999999999999986      48.879999999999995
   138   1      7.5199999999999951       45.11999999999999      52.639999999999986
   139   1      7.5199999999999951      46.999999999999986      54.519999999999989
   140   1      9.3999999999999986       45.11999999999999      54.519999999999989
   141   1      9.3999999999999986      46.999999999999986      52.639999999999986
   142   1      7.5199999999999951       45.11999999999999      56.399999999999984
   143   1      7.5199999999999951      46.999999999999986      58.279999999999987
   144   1      9.3999999999999986       45.11999999999999      58.279999999999987
   145   1      9.3999999999999986      46.999999999999986      56.399999999999984
   146   1      7.5199999999999951       45.11999999999999      60.159999999999982
   147   1      7.5199999999999951      46.999999999999986      62.039999999999985
   148   1      9.3999999999999986       45.11999999999999      62.039999999999985
   149   1      9.3999999999999986      46.999999999999986      60.159999999999982
   150   1      9.3999999999999986       45.11999999999999      65.799999999999983
   151   1      9.3999999999999986      46.999999999999986       63.91999999999998
   152   1      7.5199999999999951      50.759999999999998       39.47999999999999
   153   1      9.3999999999999986      48.879999999999995       39.47999999999999
   154   1      9.3999999999999986      50.759999999999998      37.599999999999994
   155   1      7.5199999999999951      48.879999999999995      41.359999999999992
   156   1      7.5199999999999951      50.759999999999998      43.239999999999988
   157   1      9.3999999999999986      48.879999999999995      43.239999999999988
   158   1      9.3999999999999986      50.759999999999998      41.359999999999992
   159   1      7.5199999999999951      48.879999999999995       45.11999999999999
   160   1      7.5199999999999951      50.759999999999998      46.999999999999986
   161   1      9.3999999999999986      48.879999999999995      46.999999999999986
   162   1      9.3999999999999986      50.759999999999998       45.11999999999999
   163   1      7.5199999999999951      48.879999999999995      48.879999999999995
   164   1      7.5199999999999951      50.759999999999998      50.759999999999998
   165   1      9.3999999999999986      48.879999999999995      50.759999999999998
   166   1      9.3999999999999986      50.759999999999998      48.879999999999995
   167   1      7.5199999999999951      48.879999999999995      52.639999999999986
   168   1      7.5199999999999951      50.759999999999998      54.519999999999989
   169   1      9.3999999999999986      48.879999999999995      54.519999999999989
   170   1      9.3999999999999986      50.759999999999998      52.639999999999986
   171   1      7.5199999999999951      48.879999999999995      56.399999999999984
   172   1      7.5199999999999951      50.759999999999998      58.279999999999987
   173   1      9.3999999999999986      48.879999999999995      58.279999999999987
   174   1      9.3999999999999986      50.759999999999998      56.399999999999984
   175   1      7.5199999999999951      48.879999999999995      60.159999999999982
   176   1      7.5199999999999951      50.759999999999998      62.039999999999985
   177   1      9.3999999999999986      48.879999999999995      62.039999999999985
   178   1      9.3999999999999986      50.759999999999998      60.159999999999982
   179   1      7.5199999999999951      48.879999999999995       63.91999999999998
   180   1      7.5199999999999951      50.759999999999998      65.799999999999983
   181   1      9.3999999999999986      48.879999999999995      65.799999999999983
   182   1      9.3999999999999986      50.759999999999998       63.91999999999998
   183   1      9.3999999999999986      50.759999999999998      67.679999999999993
   184   1      9.3999999999999986      52.639999999999986      35.719999999999992
   185   1      7.5199999999999951      52.639999999999986      37.599999999999994
   186   1      7.5199999999999951      54.519999999999989       39.47999999999999
   187   1      9.3999999999999986      52.639999999999986       39.47999999999999
   188   1      9.3999999999999986      54.519999999999989      37.599999999999994
   189   1      7.5199999999999951      52.639999999999986      41.359999999999992
   190   1      7.5199999999999951      54.519999999999989      43.239999999999988
   191   1      9.3999999999999986      52.639999999999986      43.239999999999988
   192   1      9.3999999999999986      54.519999999999989      41.359999999999992
   193   1      7.5199999999999951      52.639999999999986       45.11999999999999
   194   1      7.5199999999999951      54.519999999999989      46.999999999999986
   195   1      9.3999999999999986      52.639999999999986      46.999999999999986
   196   1      9.3999999999999986      54.519999999999989       45.11999999999999
   197   1      7.5199999999999951      52.639999999999986      48.879999999999995
   198   1      7.5199999999999951      54.519999999999989      50.759999999999998
   199   1      9.3999999999999986      52.639999999999986      50.759999999999998
   200   1      9.3999999999999986      54.519999999999989      48.879999999999995
   201   1      7.5199999999999951      52.639999999999986      52.639999999999986
   202   1      7.5199999999999951      54.519999999999989      54.519999999999989
   203   1      9.3999999999999986      52.639999999999986      54.519999999999989
   204   1      9.3999999999999986      54.519999999999989      52.639999999999986
   205   1      7.5199999999999951      52.639999999999986      56.399999999999984
   206   1      7.5199999999999951      54.519999999999989      58.279999999999987
   207   1      9.3999999999999986      52.639999999999986      58.279999999999987
   208   1      9.3999999999999986      54.519999999999989      56.399999999999984
   209   1      7.5199999999999951      52.639999999999986      60.159999999999982
   210   1      7.5199999999999951      54.519999999999989      62.039999999999985
   211   1      9.3999999999999986      52.639999999999986      62.039999999999985
   212   1      9.3999999999999986      54.519999999999989      60.159999999999982
   213   1      7.5199999999999951      52.639999999999986       63.91999999999998
   214   1      7.5199999999999951      54.519999999999989      65.799999999999983
   215   1      9.3999999999999986      52.639999999999986      65.799999999999983
   216   1      9.3999999999999986      54.519999999999989       63.91999999999998
   217   1      7.5199999999999951      52.639999999999986      67.679999999999993
   218   1      9.3999999999999986      52.639999999999986      69.559999999999974
   219   1      9.3999999999999986      54.519999999999989      67.679999999999993
   220   1      9.3999999999999986      56.399999999999984       39.47999999999999
   221   1      7.5199999999999951      56.399999999999984      41.359999999999992
   222   1      7.5199999999999951      58.279999999999987      43.239999999999988
   223   1      9.3999999999999986      56.399999999999984      43.239999999999988
   224   1      9.3999999999999986      58.279999999999987      41.359999999999992
   225   1      7.5199999999999951      56.399999999999984       45.11999999999999
   226   1      7.5199999999999951      58.279999999999987      46.999999999999986
   227   1      9.3999999999999986      56.399999999999984      46.999999999999986
   228   1      9.3999999999999986      58.279999999999987       45.11999999999999
   229   1      7.5199999999999951      56.399999999999984      48.879999999999995
   230   1      7.5199999999999951      58.279999999999987      50.759999999999998
   231   1      9.3999999999999986      56.399999999999984      50.759999999999998
   232   1      9.3999999999999986      58.279999999999987      48.879999999999995
   233   1      7.5199999999999951      56.399999999999984      52.639999999999986
   234   1      7.5199999999999951      58.279999999999987      54.519999999999989
   235   1      9.3999999999999986      56.399999999999984      54.519999999999989
   236   1      9.3999999999999986      58.279999999999987      52.639999999999986
   237   1      7.5199999999999951      56.399999999999984      56.399999999999984
   238   1      7.5199999999999951      58.279999999999987      58.279999999999987
   239   1      9.3999999999999986      56.399999999999984      58.279999999999987
   240   1      9.3999999999999986      58.279999999999987      56.399999999999984
   241   1      7.5199999999999951      56.399999999999984      60.159999999999982
   242   1      7.5199999999999951      58.279999999999987      62.039999999999985
   243   1      9.3999999999999986      56.399999999999984      62.039999999999985
   244   1      9.3999999999999986      58.279999999999987      60.159999999999982
   245   1      7.5199999999999951      56.399999999999984       63.91999999999998
   246   1      9.3999999999999986      56.399999999999984      65.799999999999983
   247   1      9.3999999999999986      58.279999999999987       63.91999999999998
   248   1      9.3999999999999986      60.159999999999982       39.47999999999999
   249   1      9.3999999999999986      60.159999999999982      43.239999999999988
   250   1      9.3999999999999986      62.039999999999985      41.359999999999992
   251   1      7.5199999999999951      60.159999999999982       45.11999999999999
   252   1      7.5199999999999951      62.039999999999985      46.999999999999986
   253   1      9.3999999999999986      60.159999999999982      46.999999999999986
   254   1      9.3999999999999986      62.039999999999985       45.11999999999999
   255   1      7.5199999999999951      60.159999999999982      48.879999999999995
   256   1      7.5199999999999951      62.039999999999985      50.759999999999998
   257   1      9.3999999999999986      60.159999999999982      50.759999999999998
   258   1      9.3999999999999986      62.039999999999985      48.879999999999995
   259   1      7.5199999999999951      60.159999999999982      52.639999999999986
   260   1      7.5199999999999951      62.039999999999985      54.519999999999989
   261   1      9.3999999999999986      60.159999999999982      54.519999999999989
   262   1      9.3999999999999986      62.039999999999985      52.639999999999986
   263   1      7.5199999999999951      60.159999999999982      56.399999999999984
   264   1      7.5199999999999951      62.039999999999985      58.279999999999987
   265   1      9.3999999999999986      60.159999999999982      58.279999999999987
   266   1      9.3999999999999986      62.039999999999985      56.399999999999984
   267   1      7.5199999999999951      60.159999999999982      60.159999999999982
   268   1      9.3999999999999986      60.159999999999982      62.039999999999985
   269   1      9.3999999999999986      62.039999999999985      60.159999999999982
   270   1      9.3999999999999986      60.159999999999982      65.799999999999983
   271   1      9.3999999999999986      62.039999999999985       63.91999999999998
   272   1      9.3999999999999986       63.91999999999998      43.239999999999988
   273   1      9.3999999999999986       63.91999999999998      46.999999999999986
   274   1      9.3999999999999986      65.799999999999983       45.11999999999999
   275   1      7.5199999999999951       63.91999999999998      48.879999999999995
   276   1      7.5199999999999951      65.799999999999983      50.759999999999998
   277   1      9.3999999999999986       63.91999999999998      50.759999999999998
   278   1      9.3999999999999986      65.799999999999983      48.879999999999995
   279   1      7.5199999999999951       63.91999999999998      52.639999999999986
   280   1      7.5199999999999951      65.799999999999983      54.519999999999989
   281   1      9.3999999999999986       63.91999999999998      54.519999999999989
   282   1      9.3999999999999986      65.799999999999983      52.639999999999986
   283   1      7.5199999999999951       63.91999999999998      56.399999999999984
   284   1      9.3999999999999986       63.91999999999998      58.279999999999987
   285   1      9.3999999999999986      65.799999999999983      56.399999999999984
   286   1      9.3999999999999986       63.91999999999998      62.039999999999985
   287   1      9.3999999999999986      65.799999999999983      60.159999999999982
   288   1      9.3999999999999986      67.679999999999993      50.759999999999998
   289   1      7.5199999999999951      67.679999999999993      52.639999999999986
   290   1      9.3999999999999986      67.679999999999993      54.519999999999989
   291   1      9.3999999999999986      69.559999999999974      52.639999999999986
   292   1      13.159999999999988      28.199999999999989      52.639999999999986
   293   1      13.159999999999988      30.079999999999988      50.759999999999998
   294   1      13.159999999999988       31.95999999999999      48.879999999999995
   295   1      13.159999999999988      30.079999999999988      54.519999999999989
   296   1      13.159999999999988       31.95999999999999      52.639999999999986
   297   1      13.159999999999988       31.95999999999999      56.399999999999984
   298   1      13.159999999999988      35.719999999999992      41.359999999999992
   299   1      11.279999999999992      35.719999999999992      46.999999999999986
   300   1      13.159999999999988      33.839999999999982      46.999999999999986
   301   1      13.159999999999988      35.719999999999992       45.11999999999999
   302   1      11.279999999999992      33.839999999999982      48.879999999999995
   303   1      11.279999999999992      35.719999999999992      50.759999999999998
   304   1      13.159999999999988      33.839999999999982      50.759999999999998
   305   1      13.159999999999988      35.719999999999992      48.879999999999995
   306   1      11.279999999999992      33.839999999999982      52.639999999999986
   307   1      11.279999999999992      35.719999999999992      54.519999999999989
   308   1      13.159999999999988      33.839999999999982      54.519999999999989
   309   1      13.159999999999988      35.719999999999992      52.639999999999986
   310   1      11.279999999999992      33.839999999999982      56.399999999999984
   311   1      11.279999999999992      35.719999999999992      58.279999999999987
   312   1      13.159999999999988      33.839999999999982      58.279999999999987
   313   1      13.159999999999988      35.719999999999992      56.399999999999984
   314   1      13.159999999999988      35.719999999999992      60.159999999999982
   315   1      13.159999999999988      35.719999999999992       63.91999999999998
   316   1      13.159999999999988      37.599999999999994       39.47999999999999
   317   1      13.159999999999988       39.47999999999999      37.599999999999994
   318   1      11.279999999999992       39.47999999999999      43.239999999999988
   319   1      13.159999999999988      37.599999999999994      43.239999999999988
   320   1      13.159999999999988       39.47999999999999      41.359999999999992
   321   1      11.279999999999992      37.599999999999994       45.11999999999999
   322   1      11.279999999999992       39.47999999999999      46.999999999999986
   323   1      13.159999999999988      37.599999999999994      46.999999999999986
   324   1      13.159999999999988       39.47999999999999       45.11999999999999
   325   1      11.279999999999992      37.599999999999994      48.879999999999995
   326   1      11.279999999999992       39.47999999999999      50.759999999999998
   327   1      13.159999999999988      37.599999999999994      50.759999999999998
   328   1      13.159999999999988       39.47999999999999      48.879999999999995
   329   1      11.279999999999992      37.599999999999994      52.639999999999986
   330   1      11.279999999999992       39.47999999999999      54.519999999999989
   331   1      13.159999999999988      37.599999999999994      54.519999999999989
   332   1      13.159999999999988       39.47999999999999      52.639999999999986
   333   1      11.279999999999992      37.599999999999994      56.399999999999984
   334   1      11.279999999999992       39.47999999999999      58.279999999999987
   335   1      13.159999999999988      37.599999999999994      58.279999999999987
   336   1      13.159999999999988       39.47999999999999      56.399999999999984
   337   1      11.279999999999992      37.599999999999994      60.159999999999982
   338   1      11.279999999999992       39.47999999999999      62.039999999999985
   339   1      13.159999999999988      37.599999999999994      62.039999999999985
   340   1      13.159999999999988       39.47999999999999      60.159999999999982
   341   1      13.159999999999988      37.599999999999994      65.799999999999983
   342   1      13.159999999999988       39.47999999999999       63.91999999999998
   343   1      13.159999999999988       39.47999999999999      67.679999999999993
   344   1      13.159999999999988      41.359999999999992      35.719999999999992
   345   1      11.279999999999992      43.239999999999988       39.47999999999999
   346   1      13.159999999999988      41.359999999999992       39.47999999999999
   347   1      13.159999999999988      43.239999999999988      37.599999999999994
   348   1      11.279999999999992      41.359999999999992      41.359999999999992
   349   1      11.279999999999992      43.239999999999988      43.239999999999988
   350   1      13.159999999999988      41.359999999999992      43.239999999999988
   351   1      13.159999999999988      43.239999999999988      41.359999999999992
   352   1      11.279999999999992      41.359999999999992       45.11999999999999
   353   1      11.279999999999992      43.239999999999988      46.999999999999986
   354   1      13.159999999999988      41.359999999999992      46.999999999999986
   355   1      13.159999999999988      43.239999999999988       45.11999999999999
   356   1      11.279999999999992      41.359999999999992      48.879999999999995
   357   1      11.279999999999992      43.239999999999988      50.759999999999998
   358   1      13.159999999999988      41.359999999999992      50.759999999999998