model_files/Pt/Pt_3000/Pt_542/data.Pt_542_fcc_2959 (written by ASE) 

2959 	 atoms 
1  atom types
0.0                      54  xlo xhi
0.0                      54  ylo yhi
0.0                      54  zlo zhi


Atoms 

     1   1      1.9599999999999971      25.479999999999993      27.439999999999998
     2   1      1.9599999999999971      27.439999999999998      25.479999999999993
     3   1                       0      27.439999999999998      27.439999999999998
     4   1      1.9599999999999971      27.439999999999998      29.399999999999999
     5   1      1.9599999999999971      29.399999999999999      27.439999999999998
     6   1       5.879999999999999      21.559999999999995      23.519999999999996
     7   1       5.879999999999999      21.559999999999995      27.439999999999998
     8   1       5.879999999999999      21.559999999999995      31.359999999999996
     9   1       5.879999999999999      23.519999999999996      21.559999999999995
    10   1      3.9199999999999982      25.479999999999993      25.479999999999993
    11   1       5.879999999999999      23.519999999999996      25.479999999999993
    12   1       5.879999999999999      25.479999999999993      23.519999999999996
    13   1      3.9199999999999982      23.519999999999996      27.439999999999998
    14   1      3.9199999999999982      25.479999999999993      29.399999999999999
    15   1       5.879999999999999      23.519999999999996      29.399999999999999
    16   1       5.879999999999999      25.479999999999993      27.439999999999998
    17   1       5.879999999999999      23.519999999999996                   33.32
    18   1       5.879999999999999      25.479999999999993      31.359999999999996
    19   1       5.879999999999999      27.439999999999998      21.559999999999995
    20   1      3.9199999999999982      27.439999999999998      23.519999999999996
    21   1      3.9199999999999982      29.399999999999999      25.479999999999993
    22   1       5.879999999999999      27.439999999999998      25.479999999999993
    23   1       5.879999999999999      29.399999999999999      23.519999999999996
    24   1      3.9199999999999982      27.439999999999998      27.439999999999998
    25   1      3.9199999999999982      29.399999999999999      29.399999999999999
    26   1       5.879999999999999      27.439999999999998      29.399999999999999
    27   1       5.879999999999999      29.399999999999999      27.439999999999998
    28   1      3.9199999999999982      27.439999999999998      31.359999999999996
    29   1       5.879999999999999      27.439999999999998                   33.32
    30   1       5.879999999999999      29.399999999999999      31.359999999999996
    31   1       5.879999999999999      31.359999999999996      21.559999999999995
    32   1       5.879999999999999      31.359999999999996      25.479999999999993
    33   1       5.879999999999999                   33.32      23.519999999999996
    34   1      3.9199999999999982      31.359999999999996      27.439999999999998
    35   1       5.879999999999999      31.359999999999996      29.399999999999999
    36   1       5.879999999999999                   33.32      27.439999999999998
    37   1       5.879999999999999      31.359999999999996                   33.32
    38   1       5.879999999999999                   33.32      31.359999999999996
    39   1      9.7999999999999954      15.679999999999998      25.479999999999993
    40   1      9.7999999999999954      17.640000000000001      23.519999999999996
    41   1      9.7999999999999954      15.679999999999998      29.399999999999999
    42   1      9.7999999999999954      17.640000000000001      27.439999999999998
    43   1      9.7999999999999954      17.640000000000001      31.359999999999996
    44   1      7.8399999999999963      21.559999999999995      21.559999999999995
    45   1      9.7999999999999954      19.599999999999994      21.559999999999995
    46   1      9.7999999999999954      21.559999999999995      19.599999999999994
    47   1      7.8399999999999963      19.599999999999994      23.519999999999996
    48   1      7.8399999999999963      21.559999999999995      25.479999999999993
    49   1      9.7999999999999954      19.599999999999994      25.479999999999993
    50   1      9.7999999999999954      21.559999999999995      23.519999999999996
    51   1      7.8399999999999963      19.599999999999994      27.439999999999998
    52   1      7.8399999999999963      21.559999999999995      29.399999999999999
    53   1      9.7999999999999954      19.599999999999994      29.399999999999999
    54   1      9.7999999999999954      21.559999999999995      27.439999999999998
    55   1      7.8399999999999963      19.599999999999994      31.359999999999996
    56   1      7.8399999999999963      21.559999999999995                   33.32
    57   1      9.7999999999999954      19.599999999999994                   33.32
    58   1      9.7999999999999954      21.559999999999995      31.359999999999996
    59   1      9.7999999999999954      21.559999999999995      35.280000000000001
    60   1      9.7999999999999954      23.519999999999996      17.640000000000001
    61   1      9.7999999999999954      25.479999999999993      15.679999999999998
    62   1      7.8399999999999963      23.519999999999996      19.599999999999994
    63   1      7.8399999999999963      25.479999999999993      21.559999999999995
    64   1      9.7999999999999954      23.519999999999996      21.559999999999995
    65   1      9.7999999999999954      25.479999999999993      19.599999999999994
    66   1      7.8399999999999963      23.519999999999996      23.519999999999996
    67   1      7.8399999999999963      25.479999999999993      25.479999999999993
    68   1      9.7999999999999954      23.519999999999996      25.479999999999993
    69   1      9.7999999999999954      25.479999999999993      23.519999999999996
    70   1      7.8399999999999963      23.519999999999996      27.439999999999998
    71   1      7.8399999999999963      25.479999999999993      29.399999999999999
    72   1      9.7999999999999954      23.519999999999996      29.399999999999999
    73   1      9.7999999999999954      25.479999999999993      27.439999999999998
    74   1      7.8399999999999963      23.519999999999996      31.359999999999996
    75   1      7.8399999999999963      25.479999999999993                   33.32
    76   1      9.7999999999999954      23.519999999999996                   33.32
    77   1      9.7999999999999954      25.479999999999993      31.359999999999996
    78   1      7.8399999999999963      23.519999999999996      35.280000000000001
    79   1      9.7999999999999954      23.519999999999996      37.239999999999995
    80   1      9.7999999999999954      25.479999999999993      35.280000000000001
    81   1      9.7999999999999954      25.479999999999993      39.199999999999989
    82   1      9.7999999999999954      27.439999999999998      17.640000000000001
    83   1      9.7999999999999954      29.399999999999999      15.679999999999998
    84   1      7.8399999999999963      27.439999999999998      19.599999999999994
    85   1      7.8399999999999963      29.399999999999999      21.559999999999995
    86   1      9.7999999999999954      27.439999999999998      21.559999999999995
    87   1      9.7999999999999954      29.399999999999999      19.599999999999994
    88   1      7.8399999999999963      27.439999999999998      23.519999999999996
    89   1      7.8399999999999963      29.399999999999999      25.479999999999993
    90   1      9.7999999999999954      27.439999999999998      25.479999999999993
    91   1      9.7999999999999954      29.399999999999999      23.519999999999996
    92   1      7.8399999999999963      27.439999999999998      27.439999999999998
    93   1      7.8399999999999963      29.399999999999999      29.399999999999999
    94   1      9.7999999999999954      27.439999999999998      29.399999999999999
    95   1      9.7999999999999954      29.399999999999999      27.439999999999998
    96   1      7.8399999999999963      27.439999999999998      31.359999999999996
    97   1      7.8399999999999963      29.399999999999999                   33.32
    98   1      9.7999999999999954      27.439999999999998                   33.32
    99   1      9.7999999999999954      29.399999999999999      31.359999999999996
   100   1      7.8399999999999963      27.439999999999998      35.280000000000001
   101   1      9.7999999999999954      27.439999999999998      37.239999999999995
   102   1      9.7999999999999954      29.399999999999999      35.280000000000001
   103   1      9.7999999999999954      29.399999999999999      39.199999999999989
   104   1      9.7999999999999954      31.359999999999996      17.640000000000001
   105   1      7.8399999999999963      31.359999999999996      19.599999999999994
   106   1      7.8399999999999963                   33.32      21.559999999999995
   107   1      9.7999999999999954      31.359999999999996      21.559999999999995
   108   1      9.7999999999999954                   33.32      19.599999999999994
   109   1      7.8399999999999963      31.359999999999996      23.519999999999996
   110   1      7.8399999999999963                   33.32      25.479999999999993
   111   1      9.7999999999999954      31.359999999999996      25.479999999999993
   112   1      9.7999999999999954                   33.32      23.519999999999996
   113   1      7.8399999999999963      31.359999999999996      27.439999999999998
   114   1      7.8399999999999963                   33.32      29.399999999999999
   115   1      9.7999999999999954      31.359999999999996      29.399999999999999
   116   1      9.7999999999999954                   33.32      27.439999999999998
   117   1      7.8399999999999963      31.359999999999996      31.359999999999996
   118   1      7.8399999999999963                   33.32                   33.32
   119   1      9.7999999999999954      31.359999999999996                   33.32
   120   1      9.7999999999999954                   33.32      31.359999999999996
   121   1      7.8399999999999963      31.359999999999996      35.280000000000001
   122   1      9.7999999999999954      31.359999999999996      37.239999999999995
   123   1      9.7999999999999954                   33.32      35.280000000000001
   124   1      9.7999999999999954      35.280000000000001      21.559999999999995
   125   1      7.8399999999999963      35.280000000000001      23.519999999999996
   126   1      9.7999999999999954      35.280000000000001      25.479999999999993
   127   1      9.7999999999999954      37.239999999999995      23.519999999999996
   128   1      7.8399999999999963      35.280000000000001      27.439999999999998
   129   1      9.7999999999999954      35.280000000000001      29.399999999999999
   130   1      9.7999999999999954      37.239999999999995      27.439999999999998
   131   1      7.8399999999999963      35.280000000000001      31.359999999999996
   132   1      9.7999999999999954      35.280000000000001                   33.32
   133   1      9.7999999999999954      37.239999999999995      31.359999999999996
   134   1      9.7999999999999954      39.199999999999989      25.479999999999993
   135   1      9.7999999999999954      39.199999999999989      29.399999999999999
   136   1      13.719999999999999      13.719999999999999      19.599999999999994
   137   1      11.759999999999998      13.719999999999999      25.479999999999993
   138   1      13.719999999999999      11.759999999999998      25.479999999999993
   139   1      13.719999999999999      13.719999999999999      23.519999999999996
   140   1      11.759999999999998      13.719999999999999      29.399999999999999
   141   1      13.719999999999999      11.759999999999998      29.399999999999999
   142   1      13.719999999999999      13.719999999999999      27.439999999999998
   143   1      13.719999999999999      13.719999999999999      31.359999999999996
   144   1      13.719999999999999      13.719999999999999      35.280000000000001
   145   1      11.759999999999998      17.640000000000001      17.640000000000001
   146   1      13.719999999999999      15.679999999999998      17.640000000000001
   147   1      13.719999999999999      17.640000000000001      15.679999999999998
   148   1      11.759999999999998      17.640000000000001      21.559999999999995
   149   1      13.719999999999999      15.679999999999998      21.559999999999995
   150   1      13.719999999999999      17.640000000000001      19.599999999999994
   151   1      11.759999999999998      15.679999999999998      23.519999999999996
   152   1      11.759999999999998      17.640000000000001      25.479999999999993
   153   1      13.719999999999999      15.679999999999998      25.479999999999993
   154   1      13.719999999999999      17.640000000000001      23.519999999999996
   155   1      11.759999999999998      15.679999999999998      27.439999999999998
   156   1      11.759999999999998      17.640000000000001      29.399999999999999
   157   1      13.719999999999999      15.679999999999998      29.399999999999999
   158   1      13.719999999999999      17.640000000000001      27.439999999999998
   159   1      11.759999999999998      15.679999999999998      31.359999999999996
   160   1      11.759999999999998      17.640000000000001                   33.32
   161   1      13.719999999999999      15.679999999999998                   33.32
   162   1      13.719999999999999      17.640000000000001      31.359999999999996
   163   1      11.759999999999998      17.640000000000001      37.239999999999995
   164   1      13.719999999999999      15.679999999999998      37.239999999999995
   165   1      13.719999999999999      17.640000000000001      35.280000000000001
   166   1      13.719999999999999      17.640000000000001      39.199999999999989
   167   1      13.719999999999999      19.599999999999994      13.719999999999999
   168   1      11.759999999999998      21.559999999999995      17.640000000000001
   169   1      13.719999999999999      19.599999999999994      17.640000000000001
   170   1      13.719999999999999      21.559999999999995      15.679999999999998
   171   1      11.759999999999998      19.599999999999994      19.599999999999994
   172   1      11.759999999999998      21.559999999999995      21.559999999999995
   173   1      13.719999999999999      19.599999999999994      21.559999999999995
   174   1      13.719999999999999      21.559999999999995      19.599999999999994
   175   1      11.759999999999998      19.599999999999994      23.519999999999996
   176   1      11.759999999999998      21.559999999999995      25.479999999999993
   177   1      13.719999999999999      19.599999999999994      25.479999999999993
   178   1      13.719999999999999      21.559999999999995      23.519999999999996
   179   1      11.759999999999998      19.599999999999994      27.439999999999998
   180   1      11.759999999999998      21.559999999999995      29.399999999999999
   181   1      13.719999999999999      19.599999999999994      29.399999999999999
   182   1      13.719999999999999      21.559999999999995      27.439999999999998
   183   1      11.759999999999998      19.599999999999994      31.359999999999996
   184   1      11.759999999999998      21.559999999999995                   33.32
   185   1      13.719999999999999      19.599999999999994                   33.32
   186   1      13.719999999999999      21.559999999999995      31.359999999999996
   187   1      11.759999999999998      19.599999999999994      35.280000000000001
   188   1      11.759999999999998      21.559999999999995      37.239999999999995
   189   1      13.719999999999999      19.599999999999994      37.239999999999995
   190   1      13.719999999999999      21.559999999999995      35.280000000000001
   191   1      13.719999999999999      19.599999999999994      41.159999999999997
   192   1      13.719999999999999      21.559999999999995      39.199999999999989
   193   1      11.759999999999998      25.479999999999993      13.719999999999999
   194   1      13.719999999999999      23.519999999999996      13.719999999999999
   195   1      13.719999999999999      25.479999999999993      11.759999999999998
   196   1      11.759999999999998      23.519999999999996      15.679999999999998
   197   1      11.759999999999998      25.479999999999993      17.640000000000001
   198   1      13.719999999999999      23.519999999999996      17.640000000000001
   199   1      13.719999999999999      25.479999999999993      15.679999999999998
   200   1      11.759999999999998      23.519999999999996      19.599999999999994
   201   1      11.759999999999998      25.479999999999993      21.559999999999995
   202   1      13.719999999999999      23.519999999999996      21.559999999999995
   203   1      13.719999999999999      25.479999999999993      19.599999999999994
   204   1      11.759999999999998      23.519999999999996      23.519999999999996
   205   1      11.759999999999998      25.479999999999993      25.479999999999993
   206   1      13.719999999999999      23.519999999999996      25.479999999999993
   207   1      13.719999999999999      25.479999999999993      23.519999999999996
   208   1      11.759999999999998      23.519999999999996      27.439999999999998
   209   1      11.759999999999998      25.479999999999993      29.399999999999999
   210   1      13.719999999999999      23.519999999999996      29.399999999999999
   211   1      13.719999999999999      25.479999999999993      27.439999999999998
   212   1      11.759999999999998      23.519999999999996      31.359999999999996
   213   1      11.759999999999998      25.479999999999993                   33.32
   214   1      13.719999999999999      23.519999999999996                   33.32
   215   1      13.719999999999999      25.479999999999993      31.359999999999996
   216   1      11.759999999999998      23.519999999999996      35.280000000000001
   217   1      11.759999999999998      25.479999999999993      37.239999999999995
   218   1      13.719999999999999      23.519999999999996      37.239999999999995
   219   1      13.719999999999999      25.479999999999993      35.280000000000001
   220   1      11.759999999999998      23.519999999999996      39.199999999999989
   221   1      11.759999999999998      25.479999999999993      41.159999999999997
   222   1      13.719999999999999      23.519999999999996      41.159999999999997
   223   1      13.719999999999999      25.479999999999993      39.199999999999989
   224   1      13.719999999999999      25.479999999999993       43.11999999999999
   225   1      11.759999999999998      29.399999999999999      13.719999999999999
   226   1      13.719999999999999      27.439999999999998      13.719999999999999
   227   1      13.719999999999999      29.399999999999999      11.759999999999998
   228   1      11.759999999999998      27.439999999999998      15.679999999999998
   229   1      11.759999999999998      29.399999999999999      17.640000000000001
   230   1      13.719999999999999      27.439999999999998      17.640000000000001
   231   1      13.719999999999999      29.399999999999999      15.679999999999998
   232   1      11.759999999999998      27.439999999999998      19.599999999999994
   233   1      11.759999999999998      29.399999999999999      21.559999999999995
   234   1      13.719999999999999      27.439999999999998      21.559999999999995
   235   1      13.719999999999999      29.399999999999999      19.599999999999994
   236   1      11.759999999999998      27.439999999999998      23.519999999999996
   237   1      11.759999999999998      29.399999999999999      25.479999999999993
   238   1      13.719999999999999      27.439999999999998      25.479999999999993
   239   1      13.719999999999999      29.399999999999999      23.519999999999996
   240   1      11.759999999999998      27.439999999999998      27.439999999999998
   241   1      11.759999999999998      29.399999999999999      29.399999999999999
   242   1      13.719999999999999      27.439999999999998      29.399999999999999
   243   1      13.719999999999999      29.399999999999999      27.439999999999998
   244   1      11.759999999999998      27.439999999999998      31.359999999999996
   245   1      11.759999999999998      29.399999999999999                   33.32
   246   1      13.719999999999999      27.439999999999998                   33.32
   247   1      13.719999999999999      29.399999999999999      31.359999999999996
   248   1      11.759999999999998      27.439999999999998      35.280000000000001
   249   1      11.759999999999998      29.399999999999999      37.239999999999995
   250   1      13.719999999999999      27.439999999999998      37.239999999999995
   251   1      13.719999999999999      29.399999999999999      35.280000000000001
   252   1      11.759999999999998      27.439999999999998      39.199999999999989
   253   1      11.759999999999998      29.399999999999999      41.159999999999997
   254   1      13.719999999999999      27.439999999999998      41.159999999999997
   255   1      13.719999999999999      29.399999999999999      39.199999999999989
   256   1      13.719999999999999      29.399999999999999       43.11999999999999
   257   1      13.719999999999999      31.359999999999996      13.719999999999999
   258   1      11.759999999999998      31.359999999999996      15.679999999999998
   259   1      11.759999999999998                   33.32      17.640000000000001
   260   1      13.719999999999999      31.359999999999996      17.640000000000001
   261   1      13.719999999999999                   33.32      15.679999999999998
   262   1      11.759999999999998      31.359999999999996      19.599999999999994
   263   1      11.759999999999998                   33.32      21.559999999999995
   264   1      13.719999999999999      31.359999999999996      21.559999999999995
   265   1      13.719999999999999                   33.32      19.599999999999994
   266   1      11.759999999999998      31.359999999999996      23.519999999999996
   267   1      11.759999999999998                   33.32      25.479999999999993
   268   1      13.719999999999999      31.359999999999996      25.479999999999993
   269   1      13.719999999999999                   33.32      23.519999999999996
   270   1      11.759999999999998      31.359999999999996      27.439999999999998
   271   1      11.759999999999998                   33.32      29.399999999999999
   272   1      13.719999999999999      31.359999999999996      29.399999999999999
   273   1      13.719999999999999                   33.32      27.439999999999998
   274   1      11.759999999999998      31.359999999999996      31.359999999999996
   275   1      11.759999999999998                   33.32                   33.32
   276   1      13.719999999999999      31.359999999999996                   33.32
   277   1      13.719999999999999                   33.32      31.359999999999996
   278   1      11.759999999999998      31.359999999999996      35.280000000000001
   279   1      11.759999999999998                   33.32      37.239999999999995
   280   1      13.719999999999999      31.359999999999996      37.239999999999995
   281   1      13.719999999999999                   33.32      35.280000000000001
   282   1      11.759999999999998      31.359999999999996      39.199999999999989
   283   1      13.719999999999999      31.359999999999996      41.159999999999997
   284   1      13.719999999999999                   33.32      39.199999999999989
   285   1      13.719999999999999      35.280000000000001      13.719999999999999
   286   1      11.759999999999998      37.239999999999995      17.640000000000001
   287   1      13.719999999999999      35.280000000000001      17.640000000000001
   288   1      13.719999999999999      37.239999999999995      15.679999999999998
   289   1      11.759999999999998      35.280000000000001      19.599999999999994
   290   1      11.759999999999998      37.239999999999995      21.559999999999995
   291   1      13.719999999999999      35.280000000000001      21.559999999999995
   292   1      13.719999999999999      37.239999999999995      19.599999999999994
   293   1      11.759999999999998      35.280000000000001      23.519999999999996
   294   1      11.759999999999998      37.239999999999995      25.479999999999993
   295   1      13.719999999999999      35.280000000000001      25.479999999999993
   296   1      13.719999999999999      37.239999999999995      23.519999999999996
   297   1      11.759999999999998      35.280000000000001      27.439999999999998
   298   1      11.759999999999998      37.239999999999995      29.399999999999999
   299   1      13.719999999999999      35.280000000000001      29.399999999999999
   300   1      13.719999999999999      37.239999999999995      27.439999999999998
   301   1      11.759999999999998      35.280000000000001      31.359999999999996
   302   1      11.759999999999998      37.239999999999995                   33.32
   303   1      13.719999999999999      35.280000000000001                   33.32
   304   1      13.719999999999999      37.239999999999995      31.359999999999996
   305   1      11.759999999999998      35.280000000000001      35.280000000000001
   306   1      11.759999999999998      37.239999999999995      37.239999999999995
   307   1      13.719999999999999      35.280000000000001      37.239999999999995
   308   1      13.719999999999999      37.239999999999995      35.280000000000001
   309   1      13.719999999999999      35.280000000000001      41.159999999999997
   310   1      13.719999999999999      37.239999999999995      39.199999999999989
   311   1      13.719999999999999      39.199999999999989      17.640000000000001
   312   1      13.719999999999999      39.199999999999989      21.559999999999995
   313   1      13.719999999999999      41.159999999999997      19.599999999999994
   314   1      11.759999999999998      39.199999999999989      23.519999999999996
   315   1      11.759999999999998      41.159999999999997      25.479999999999993
   316   1      13.719999999999999      39.199999999999989      25.479999999999993
   317   1      13.719999999999999      41.159999999999997      23.519999999999996
   318   1      11.759999999999998      39.199999999999989      27.439999999999998
   319   1      11.759999999999998      41.159999999999997      29.399999999999999
   320   1      13.719999999999999      39.199999999999989      29.399999999999999
   321   1      13.719999999999999      41.159999999999997      27.439999999999998
   322   1      11.759999999999998      39.199999999999989      31.359999999999996
   323   1      13.719999999999999      39.199999999999989                   33.32
   324   1      13.719999999999999      41.159999999999997      31.359999999999996
   325   1      13.719999999999999      39.199999999999989      37.239999999999995
   326   1      13.719999999999999      41.159999999999997      35.280000000000001
   327   1      13.719999999999999       43.11999999999999      25.479999999999993
   328   1      13.719999999999999       43.11999999999999      29.399999999999999
   329   1      15.679999999999998      9.7999999999999954      25.479999999999993
   330   1      17.640000000000001      9.7999999999999954      23.519999999999996
   331   1      15.679999999999998      9.7999999999999954      29.399999999999999
   332   1      17.640000000000001      9.7999999999999954      27.439999999999998
   333   1      17.640000000000001      9.7999999999999954      31.359999999999996
   334   1      15.679999999999998      13.719999999999999      17.640000000000001
   335   1      17.640000000000001      11.759999999999998      17.640000000000001
   336   1      17.640000000000001      13.719999999999999      15.679999999999998
   337   1      15.679999999999998      13.719999999999999      21.559999999999995
   338   1      17.640000000000001      11.759999999999998      21.559999999999995
   339   1      17.640000000000001      13.719999999999999      19.599999999999994
   340   1      15.679999999999998      11.759999999999998      23.519999999999996
   341   1      15.679999999999998      13.719999999999999      25.479999999999993
   342   1      17.640000000000001      11.759999999999998      25.479999999999993
   343   1      17.640000000000001      13.719999999999999      23.519999999999996
   344   1      15.679999999999998      11.759999999999998      27.439999999999998
   345   1      15.679999999999998      13.719999999999999      29.399999999999999
   346   1      17.640000000000001      11.759999999999998      29.399999999999999
   347   1      17.640000000000001      13.719999999999999      27.439999999999998
   348   1      15.679999999999998      11.759999999999998      31.359999999999996
   349   1      15.679999999999998      13.719999999999999                   33.32
   350   1      17.640000000000001      11.759999999999998                   33.32
   351   1      17.640000000000001      13.719999999999999      31.359999999999996
   352   1      15.679999999999998      13.719999999999999      37.239999999999995
   353   1      17.640000000000001      11.759999999999998      37.239999999999995
   354   1      17.640000000000001      13.719999999999999      35.280000000000001
   355   1      17.640000000000001      13.719999999999999      39.199999999999989
   356   1      15.679999999999998      17.640000000000001      13.719999999999999
   357   1      17.640000000000001      15.679999999999998      13.719999999999999
   358   1      17.640000000000001      17.640000000000001      11.759999999999998