model_files/CuFeNi/CuFeNi_30000/CuFeNi_421/CuFeNi_421_fcc_30423_temp.data (written by ASE) 

30423 	 atoms 
3  atom types
0.0                      95  xlo xhi
0.0                      95  ylo yhi
0.0                      95  zlo zhi


Atoms 

     1   1      1.7899999999999849      41.169999999999987      42.959999999999987
     2   1      1.7899999999999849      41.169999999999987      46.539999999999992
     3   1      1.7899999999999849      41.169999999999987       50.11999999999999
     4   1      1.7899999999999849      42.959999999999987      41.169999999999987
     5   1      94.999999999999986      44.749999999999986      44.749999999999986
     6   1      1.7899999999999849      42.959999999999987      44.749999999999986
     7   1      1.7899999999999849      44.749999999999986      42.959999999999987
     8   1      94.999999999999986      42.959999999999987      46.539999999999992
     9   1      94.999999999999986      44.749999999999986      48.329999999999991
    10   1      1.7899999999999849      42.959999999999987      48.329999999999991
    11   1      1.7899999999999849      44.749999999999986      46.539999999999992
    12   1      1.7899999999999849      42.959999999999987      51.909999999999989
    13   1      1.7899999999999849      44.749999999999986       50.11999999999999
    14   1      1.7899999999999849      46.539999999999992      41.169999999999987
    15   1      94.999999999999986      46.539999999999992      42.959999999999987
    16   1      94.999999999999986      48.329999999999991      44.749999999999986
    17   1      1.7899999999999849      46.539999999999992      44.749999999999986
    18   1      1.7899999999999849      48.329999999999991      42.959999999999987
    19   1      94.999999999999986      46.539999999999992      46.539999999999992
    20   1      94.999999999999986      48.329999999999991      48.329999999999991
    21   1      1.7899999999999849      46.539999999999992      48.329999999999991
    22   1      1.7899999999999849      48.329999999999991      46.539999999999992
    23   1      94.999999999999986      46.539999999999992       50.11999999999999
    24   1      1.7899999999999849      46.539999999999992      51.909999999999989
    25   1      1.7899999999999849      48.329999999999991       50.11999999999999
    26   1      1.7899999999999849       50.11999999999999      41.169999999999987
    27   1      1.7899999999999849       50.11999999999999      44.749999999999986
    28   1      1.7899999999999849      51.909999999999989      42.959999999999987
    29   1      94.999999999999986       50.11999999999999      46.539999999999992
    30   1      1.7899999999999849       50.11999999999999      48.329999999999991
    31   1      1.7899999999999849      51.909999999999989      46.539999999999992
    32   1      1.7899999999999849       50.11999999999999      51.909999999999989
    33   1      1.7899999999999849      51.909999999999989       50.11999999999999
    34   1      5.3699999999999903      34.009999999999984      42.959999999999987
    35   1      5.3699999999999903      34.009999999999984      46.539999999999992
    36   1      5.3699999999999903      34.009999999999984       50.11999999999999
    37   1      5.3699999999999903       35.79999999999999      41.169999999999987
    38   1      5.3699999999999903      37.589999999999989      39.379999999999988
    39   1      3.5799999999999836      37.589999999999989      44.749999999999986
    40   1      5.3699999999999903       35.79999999999999      44.749999999999986
    41   1      5.3699999999999903      37.589999999999989      42.959999999999987
    42   1      3.5799999999999836       35.79999999999999      46.539999999999992
    43   1      3.5799999999999836      37.589999999999989      48.329999999999991
    44   1      5.3699999999999903       35.79999999999999      48.329999999999991
    45   1      5.3699999999999903      37.589999999999989      46.539999999999992
    46   1      5.3699999999999903       35.79999999999999      51.909999999999989
    47   1      5.3699999999999903      37.589999999999989       50.11999999999999
    48   1      5.3699999999999903      37.589999999999989      53.699999999999989
    49   1      5.3699999999999903      39.379999999999988      37.589999999999989
    50   1      5.3699999999999903      41.169999999999987       35.79999999999999
    51   1      3.5799999999999836      39.379999999999988      39.379999999999988
    52   1      3.5799999999999836      41.169999999999987      41.169999999999987
    53   1      5.3699999999999903      39.379999999999988      41.169999999999987
    54   1      5.3699999999999903      41.169999999999987      39.379999999999988
    55   1      3.5799999999999836      39.379999999999988      42.959999999999987
    56   1      3.5799999999999836      41.169999999999987      44.749999999999986
    57   1      5.3699999999999903      39.379999999999988      44.749999999999986
    58   1      5.3699999999999903      41.169999999999987      42.959999999999987
    59   1      3.5799999999999836      39.379999999999988      46.539999999999992
    60   1      3.5799999999999836      41.169999999999987      48.329999999999991
    61   1      5.3699999999999903      39.379999999999988      48.329999999999991
    62   1      5.3699999999999903      41.169999999999987      46.539999999999992
    63   1      3.5799999999999836      39.379999999999988       50.11999999999999
    64   1      3.5799999999999836      41.169999999999987      51.909999999999989
    65   1      5.3699999999999903      39.379999999999988      51.909999999999989
    66   1      5.3699999999999903      41.169999999999987       50.11999999999999
    67   1      3.5799999999999836      39.379999999999988      53.699999999999989
    68   1      5.3699999999999903      39.379999999999988      55.489999999999988
    69   1      5.3699999999999903      41.169999999999987      53.699999999999989
    70   1      5.3699999999999903      41.169999999999987       57.27999999999998
    71   1      5.3699999999999903      42.959999999999987      34.009999999999984
    72   1      3.5799999999999836      44.749999999999986      37.589999999999989
    73   1      5.3699999999999903      42.959999999999987      37.589999999999989
    74   1      5.3699999999999903      44.749999999999986       35.79999999999999
    75   1      3.5799999999999836      42.959999999999987      39.379999999999988
    76   1      3.5799999999999836      44.749999999999986      41.169999999999987
    77   1      5.3699999999999903      42.959999999999987      41.169999999999987
    78   1      5.3699999999999903      44.749999999999986      39.379999999999988
    79   1      3.5799999999999836      42.959999999999987      42.959999999999987
    80   1      3.5799999999999836      44.749999999999986      44.749999999999986
    81   1      5.3699999999999903      42.959999999999987      44.749999999999986
    82   1      5.3699999999999903      44.749999999999986      42.959999999999987
    83   1      3.5799999999999836      42.959999999999987      46.539999999999992
    84   1      3.5799999999999836      44.749999999999986      48.329999999999991
    85   1      5.3699999999999903      42.959999999999987      48.329999999999991
    86   1      5.3699999999999903      44.749999999999986      46.539999999999992
    87   1      3.5799999999999836      42.959999999999987       50.11999999999999
    88   1      3.5799999999999836      44.749999999999986      51.909999999999989
    89   1      5.3699999999999903      42.959999999999987      51.909999999999989
    90   1      5.3699999999999903      44.749999999999986       50.11999999999999
    91   1      3.5799999999999836      42.959999999999987      53.699999999999989
    92   1      3.5799999999999836      44.749999999999986      55.489999999999988
    93   1      5.3699999999999903      42.959999999999987      55.489999999999988
    94   1      5.3699999999999903      44.749999999999986      53.699999999999989
    95   1      5.3699999999999903      42.959999999999987      59.069999999999979
    96   1      5.3699999999999903      44.749999999999986       57.27999999999998
    97   1      5.3699999999999903      46.539999999999992      34.009999999999984
    98   1      3.5799999999999836      46.539999999999992       35.79999999999999
    99   1      3.5799999999999836      48.329999999999991      37.589999999999989
   100   1      5.3699999999999903      46.539999999999992      37.589999999999989
   101   1      5.3699999999999903      48.329999999999991       35.79999999999999
   102   1      3.5799999999999836      46.539999999999992      39.379999999999988
   103   1      3.5799999999999836      48.329999999999991      41.169999999999987
   104   1      5.3699999999999903      46.539999999999992      41.169999999999987
   105   1      5.3699999999999903      48.329999999999991      39.379999999999988
   106   1      3.5799999999999836      46.539999999999992      42.959999999999987
   107   1      3.5799999999999836      48.329999999999991      44.749999999999986
   108   1      5.3699999999999903      46.539999999999992      44.749999999999986
   109   1      5.3699999999999903      48.329999999999991      42.959999999999987
   110   1      3.5799999999999836      46.539999999999992      46.539999999999992
   111   1      3.5799999999999836      48.329999999999991      48.329999999999991
   112   1      5.3699999999999903      46.539999999999992      48.329999999999991
   113   1      5.3699999999999903      48.329999999999991      46.539999999999992
   114   1      3.5799999999999836      46.539999999999992       50.11999999999999
   115   1      3.5799999999999836      48.329999999999991      51.909999999999989
   116   1      5.3699999999999903      46.539999999999992      51.909999999999989
   117   1      5.3699999999999903      48.329999999999991       50.11999999999999
   118   1      3.5799999999999836      46.539999999999992      53.699999999999989
   119   1      3.5799999999999836      48.329999999999991      55.489999999999988
   120   1      5.3699999999999903      46.539999999999992      55.489999999999988
   121   1      5.3699999999999903      48.329999999999991      53.699999999999989
   122   1      3.5799999999999836      46.539999999999992       57.27999999999998
   123   1      5.3699999999999903      46.539999999999992      59.069999999999979
   124   1      5.3699999999999903      48.329999999999991       57.27999999999998
   125   1      5.3699999999999903       50.11999999999999      34.009999999999984
   126   1      5.3699999999999903       50.11999999999999      37.589999999999989
   127   1      5.3699999999999903      51.909999999999989       35.79999999999999
   128   1      3.5799999999999836       50.11999999999999      39.379999999999988
   129   1      3.5799999999999836      51.909999999999989      41.169999999999987
   130   1      5.3699999999999903       50.11999999999999      41.169999999999987
   131   1      5.3699999999999903      51.909999999999989      39.379999999999988
   132   1      3.5799999999999836       50.11999999999999      42.959999999999987
   133   1      3.5799999999999836      51.909999999999989      44.749999999999986
   134   1      5.3699999999999903       50.11999999999999      44.749999999999986
   135   1      5.3699999999999903      51.909999999999989      42.959999999999987
   136   1      3.5799999999999836       50.11999999999999      46.539999999999992
   137   1      3.5799999999999836      51.909999999999989      48.329999999999991
   138   1      5.3699999999999903       50.11999999999999      48.329999999999991
   139   1      5.3699999999999903      51.909999999999989      46.539999999999992
   140   1      3.5799999999999836       50.11999999999999       50.11999999999999
   141   1      3.5799999999999836      51.909999999999989      51.909999999999989
   142   1      5.3699999999999903       50.11999999999999      51.909999999999989
   143   1      5.3699999999999903      51.909999999999989       50.11999999999999
   144   1      3.5799999999999836       50.11999999999999      53.699999999999989
   145   1      5.3699999999999903       50.11999999999999      55.489999999999988
   146   1      5.3699999999999903      51.909999999999989      53.699999999999989
   147   1      5.3699999999999903       50.11999999999999      59.069999999999979
   148   1      5.3699999999999903      51.909999999999989       57.27999999999998
   149   1      5.3699999999999903      53.699999999999989      37.589999999999989
   150   1      3.5799999999999836      53.699999999999989      39.379999999999988
   151   1      5.3699999999999903      53.699999999999989      41.169999999999987
   152   1      5.3699999999999903      55.489999999999988      39.379999999999988
   153   1      3.5799999999999836      53.699999999999989      42.959999999999987
   154   1      3.5799999999999836      55.489999999999988      44.749999999999986
   155   1      5.3699999999999903      53.699999999999989      44.749999999999986
   156   1      5.3699999999999903      55.489999999999988      42.959999999999987
   157   1      3.5799999999999836      53.699999999999989      46.539999999999992
   158   1      3.5799999999999836      55.489999999999988      48.329999999999991
   159   1      5.3699999999999903      53.699999999999989      48.329999999999991
   160   1      5.3699999999999903      55.489999999999988      46.539999999999992
   161   1      3.5799999999999836      53.699999999999989       50.11999999999999
   162   1      5.3699999999999903      53.699999999999989      51.909999999999989
   163   1      5.3699999999999903      55.489999999999988       50.11999999999999
   164   1      3.5799999999999836      53.699999999999989      53.699999999999989
   165   1      5.3699999999999903      53.699999999999989      55.489999999999988
   166   1      5.3699999999999903      55.489999999999988      53.699999999999989
   167   1      5.3699999999999903       57.27999999999998      41.169999999999987
   168   1      5.3699999999999903       57.27999999999998      44.749999999999986
   169   1      5.3699999999999903      59.069999999999979      42.959999999999987
   170   1      3.5799999999999836       57.27999999999998      46.539999999999992
   171   1      5.3699999999999903       57.27999999999998      48.329999999999991
   172   1      5.3699999999999903      59.069999999999979      46.539999999999992
   173   1      5.3699999999999903       57.27999999999998      51.909999999999989
   174   1      5.3699999999999903      59.069999999999979       50.11999999999999
   175   1      8.9499999999999886      26.849999999999987      42.959999999999987
   176   1      8.9499999999999886      26.849999999999987      46.539999999999992
   177   1      8.9499999999999886      26.849999999999987       50.11999999999999
   178   1      8.9499999999999886      30.429999999999986       35.79999999999999
   179   1      8.9499999999999886      28.639999999999986      41.169999999999987
   180   1      8.9499999999999886      30.429999999999986      39.379999999999988
   181   1      7.1599999999999886      30.429999999999986      44.749999999999986
   182   1      8.9499999999999886      28.639999999999986      44.749999999999986
   183   1      8.9499999999999886      30.429999999999986      42.959999999999987
   184   1      7.1599999999999886      28.639999999999986      46.539999999999992
   185   1      7.1599999999999886      30.429999999999986      48.329999999999991
   186   1      8.9499999999999886      28.639999999999986      48.329999999999991
   187   1      8.9499999999999886      30.429999999999986      46.539999999999992
   188   1      8.9499999999999886      28.639999999999986      51.909999999999989
   189   1      8.9499999999999886      30.429999999999986       50.11999999999999
   190   1      8.9499999999999886      30.429999999999986      53.699999999999989
   191   1      8.9499999999999886      30.429999999999986       57.27999999999998
   192   1      8.9499999999999886      32.219999999999985      34.009999999999984
   193   1      8.9499999999999886      34.009999999999984      32.219999999999985
   194   1      7.1599999999999886      34.009999999999984      37.589999999999989
   195   1      8.9499999999999886      32.219999999999985      37.589999999999989
   196   1      8.9499999999999886      34.009999999999984       35.79999999999999
   197   1      7.1599999999999886      32.219999999999985      39.379999999999988
   198   1      7.1599999999999886      34.009999999999984      41.169999999999987
   199   1      8.9499999999999886      32.219999999999985      41.169999999999987
   200   1      8.9499999999999886      34.009999999999984      39.379999999999988
   201   1      7.1599999999999886      32.219999999999985      42.959999999999987
   202   1      7.1599999999999886      34.009999999999984      44.749999999999986
   203   1      8.9499999999999886      32.219999999999985      44.749999999999986
   204   1      8.9499999999999886      34.009999999999984      42.959999999999987
   205   1      7.1599999999999886      32.219999999999985      46.539999999999992
   206   1      7.1599999999999886      34.009999999999984      48.329999999999991
   207   1      8.9499999999999886      32.219999999999985      48.329999999999991
   208   1      8.9499999999999886      34.009999999999984      46.539999999999992
   209   1      7.1599999999999886      32.219999999999985       50.11999999999999
   210   1      7.1599999999999886      34.009999999999984      51.909999999999989
   211   1      8.9499999999999886      32.219999999999985      51.909999999999989
   212   1      8.9499999999999886      34.009999999999984       50.11999999999999
   213   1      7.1599999999999886      32.219999999999985      53.699999999999989
   214   1      7.1599999999999886      34.009999999999984      55.489999999999988
   215   1      8.9499999999999886      32.219999999999985      55.489999999999988
   216   1      8.9499999999999886      34.009999999999984      53.699999999999989
   217   1      8.9499999999999886      32.219999999999985      59.069999999999979
   218   1      8.9499999999999886      34.009999999999984       57.27999999999998
   219   1      8.9499999999999886      34.009999999999984      60.859999999999978
   220   1      8.9499999999999886       35.79999999999999      30.429999999999986
   221   1      7.1599999999999886      37.589999999999989      34.009999999999984
   222   1      8.9499999999999886       35.79999999999999      34.009999999999984
   223   1      8.9499999999999886      37.589999999999989      32.219999999999985
   224   1      7.1599999999999886       35.79999999999999       35.79999999999999
   225   1      7.1599999999999886      37.589999999999989      37.589999999999989
   226   1      8.9499999999999886       35.79999999999999      37.589999999999989
   227   1      8.9499999999999886      37.589999999999989       35.79999999999999
   228   1      7.1599999999999886       35.79999999999999      39.379999999999988
   229   1      7.1599999999999886      37.589999999999989      41.169999999999987
   230   1      8.9499999999999886       35.79999999999999      41.169999999999987
   231   1      8.9499999999999886      37.589999999999989      39.379999999999988
   232   1      7.1599999999999886       35.79999999999999      42.959999999999987
   233   1      7.1599999999999886      37.589999999999989      44.749999999999986
   234   1      8.9499999999999886       35.79999999999999      44.749999999999986
   235   1      8.9499999999999886      37.589999999999989      42.959999999999987
   236   1      7.1599999999999886       35.79999999999999      46.539999999999992
   237   1      7.1599999999999886      37.589999999999989      48.329999999999991
   238   1      8.9499999999999886       35.79999999999999      48.329999999999991
   239   1      8.9499999999999886      37.589999999999989      46.539999999999992
   240   1      7.1599999999999886       35.79999999999999       50.11999999999999
   241   1      7.1599999999999886      37.589999999999989      51.909999999999989
   242   1      8.9499999999999886       35.79999999999999      51.909999999999989
   243   1      8.9499999999999886      37.589999999999989       50.11999999999999
   244   1      7.1599999999999886       35.79999999999999      53.699999999999989
   245   1      7.1599999999999886      37.589999999999989      55.489999999999988
   246   1      8.9499999999999886       35.79999999999999      55.489999999999988
   247   1      8.9499999999999886      37.589999999999989      53.699999999999989
   248   1      7.1599999999999886       35.79999999999999       57.27999999999998
   249   1      7.1599999999999886      37.589999999999989      59.069999999999979
   250   1      8.9499999999999886       35.79999999999999      59.069999999999979
   251   1      8.9499999999999886      37.589999999999989       57.27999999999998
   252   1      8.9499999999999886       35.79999999999999      62.649999999999991
   253   1      8.9499999999999886      37.589999999999989      60.859999999999978
   254   1      8.9499999999999886      39.379999999999988      30.429999999999986
   255   1      8.9499999999999886      41.169999999999987      28.639999999999986
   256   1      7.1599999999999886      39.379999999999988      32.219999999999985
   257   1      7.1599999999999886      41.169999999999987      34.009999999999984
   258   1      8.9499999999999886      39.379999999999988      34.009999999999984
   259   1      8.9499999999999886      41.169999999999987      32.219999999999985
   260   1      7.1599999999999886      39.379999999999988       35.79999999999999
   261   1      7.1599999999999886      41.169999999999987      37.589999999999989
   262   1      8.9499999999999886      39.379999999999988      37.589999999999989
   263   1      8.9499999999999886      41.169999999999987       35.79999999999999
   264   1      7.1599999999999886      39.379999999999988      39.379999999999988
   265   1      7.1599999999999886      41.169999999999987      41.169999999999987
   266   1      8.9499999999999886      39.379999999999988      41.169999999999987
   267   1      8.9499999999999886      41.169999999999987      39.379999999999988
   268   1      7.1599999999999886      39.379999999999988      42.959999999999987
   269   1      7.1599999999999886      41.169999999999987      44.749999999999986
   270   1      8.9499999999999886      39.379999999999988      44.749999999999986
   271   1      8.9499999999999886      41.169999999999987      42.959999999999987
   272   1      7.1599999999999886      39.379999999999988      46.539999999999992
   273   1      7.1599999999999886      41.169999999999987      48.329999999999991
   274   1      8.9499999999999886      39.379999999999988      48.329999999999991
   275   1      8.9499999999999886      41.169999999999987      46.539999999999992
   276   1      7.1599999999999886      39.379999999999988       50.11999999999999
   277   1      7.1599999999999886      41.169999999999987      51.909999999999989
   278   1      8.9499999999999886      39.379999999999988      51.909999999999989
   279   1      8.9499999999999886      41.169999999999987       50.11999999999999
   280   1      7.1599999999999886      39.379999999999988      53.699999999999989
   281   1      7.1599999999999886      41.169999999999987      55.489999999999988
   282   1      8.9499999999999886      39.379999999999988      55.489999999999988
   283   1      8.9499999999999886      41.169999999999987      53.699999999999989
   284   1      7.1599999999999886      39.379999999999988       57.27999999999998
   285   1      7.1599999999999886      41.169999999999987      59.069999999999979
   286   1      8.9499999999999886      39.379999999999988      59.069999999999979
   287   1      8.9499999999999886      41.169999999999987       57.27999999999998
   288   1      7.1599999999999886      39.379999999999988      60.859999999999978
   289   1      8.9499999999999886      39.379999999999988      62.649999999999991
   290   1      8.9499999999999886      41.169999999999987      60.859999999999978
   291   1      8.9499999999999886      41.169999999999987      64.439999999999984
   292   1      8.9499999999999886      42.959999999999987      26.849999999999987
   293   1      7.1599999999999886      44.749999999999986      30.429999999999986
   294   1      8.9499999999999886      42.959999999999987      30.429999999999986
   295   1      8.9499999999999886      44.749999999999986      28.639999999999986
   296   1      7.1599999999999886      42.959999999999987      32.219999999999985
   297   1      7.1599999999999886      44.749999999999986      34.009999999999984
   298   1      8.9499999999999886      42.959999999999987      34.009999999999984
   299   1      8.9499999999999886      44.749999999999986      32.219999999999985
   300   1      7.1599999999999886      42.959999999999987       35.79999999999999
   301   1      7.1599999999999886      44.749999999999986      37.589999999999989
   302   1      8.9499999999999886      42.959999999999987      37.589999999999989
   303   1      8.9499999999999886      44.749999999999986       35.79999999999999
   304   1      7.1599999999999886      42.959999999999987      39.379999999999988
   305   1      7.1599999999999886      44.749999999999986      41.169999999999987
   306   1      8.9499999999999886      42.959999999999987      41.169999999999987
   307   1      8.9499999999999886      44.749999999999986      39.379999999999988
   308   1      7.1599999999999886      42.959999999999987      42.959999999999987
   309   1      7.1599999999999886      44.749999999999986      44.749999999999986
   310   1      8.9499999999999886      42.959999999999987      44.749999999999986
   311   1      8.9499999999999886      44.749999999999986      42.959999999999987
   312   1      7.1599999999999886      42.959999999999987      46.539999999999992
   313   1      7.1599999999999886      44.749999999999986      48.329999999999991
   314   1      8.9499999999999886      42.959999999999987      48.329999999999991
   315   1      8.9499999999999886      44.749999999999986      46.539999999999992
   316   1      7.1599999999999886      42.959999999999987       50.11999999999999
   317   1      7.1599999999999886      44.749999999999986      51.909999999999989
   318   1      8.9499999999999886      42.959999999999987      51.909999999999989
   319   1      8.9499999999999886      44.749999999999986       50.11999999999999
   320   1      7.1599999999999886      42.959999999999987      53.699999999999989
   321   1      7.1599999999999886      44.749999999999986      55.489999999999988
   322   1      8.9499999999999886      42.959999999999987      55.489999999999988
   323   1      8.9499999999999886      44.749999999999986      53.699999999999989
   324   1      7.1599999999999886      42.959999999999987       57.27999999999998
   325   1      7.1599999999999886      44.749999999999986      59.069999999999979
   326   1      8.9499999999999886      42.959999999999987      59.069999999999979
   327   1      8.9499999999999886      44.749999999999986       57.27999999999998
   328   1      7.1599999999999886      42.959999999999987      60.859999999999978
   329   1      7.1599999999999886      44.749999999999986      62.649999999999991
   330   1      8.9499999999999886      42.959999999999987      62.649999999999991
   331   1      8.9499999999999886      44.749999999999986      60.859999999999978
   332   1      8.9499999999999886      42.959999999999987       66.22999999999999
   333   1      8.9499999999999886      44.749999999999986      64.439999999999984
   334   1      8.9499999999999886      46.539999999999992      26.849999999999987
   335   1      7.1599999999999886      46.539999999999992      28.639999999999986
   336   1      7.1599999999999886      48.329999999999991      30.429999999999986
   337   1      8.9499999999999886      46.539999999999992      30.429999999999986
   338   1      8.9499999999999886      48.329999999999991      28.639999999999986
   339   1      7.1599999999999886      46.539999999999992      32.219999999999985
   340   1      7.1599999999999886      48.329999999999991      34.009999999999984
   341   1      8.9499999999999886      46.539999999999992      34.009999999999984
   342   1      8.9499999999999886      48.329999999999991      32.219999999999985
   343   1      7.1599999999999886      46.539999999999992       35.79999999999999
   344   1      7.1599999999999886      48.329999999999991      37.589999999999989
   345   1      8.9499999999999886      46.539999999999992      37.589999999999989
   346   1      8.9499999999999886      48.329999999999991       35.79999999999999
   347   1      7.1599999999999886      46.539999999999992      39.379999999999988
   348   1      7.1599999999999886      48.329999999999991      41.169999999999987
   349   1      8.9499999999999886      46.539999999999992      41.169999999999987
   350   1      8.9499999999999886      48.329999999999991      39.379999999999988
   351   1      7.1599999999999886      46.539999999999992      42.959999999999987
   352   1      7.1599999999999886      48.329999999999991      44.749999999999986
   353   1      8.9499999999999886      46.539999999999992      44.749999999999986
   354   1      8.9499999999999886      48.329999999999991      42.959999999999987
   355   1      7.1599999999999886      46.539999999999992      46.539999999999992
   356   1      7.1599999999999886      48.329999999999991      48.329999999999991
   357   1      8.9499999999999886      46.539999999999992      48.329999999999991
   358   1      8.9499999999999886      48.329999999999991      46.539999999999992