model_files/NiFeCrCoAl/NiFeCrCoAl_30000/NiFeCrCoAl_433/NiFeCrCoAl_433_fcc_30337_temp.data (written by ASE) 

30337 	 atoms 
5  atom types
0.0                     117  xlo xhi
0.0                     117  ylo yhi
0.0                     117  zlo zhi


Atoms 

     1   1      1.8049999999999999      55.955000000000005      57.760000000000005
     2   1      1.8049999999999999      57.760000000000005      55.955000000000005
     3   1                       0      57.760000000000005      57.760000000000005
     4   1      1.8049999999999999      57.760000000000005      59.565000000000005
     5   1      1.8049999999999999      59.565000000000005      57.760000000000005
     6   1                   5.415      52.344999999999999      57.760000000000005
     7   1      3.6099999999999999      55.955000000000005      55.955000000000005
     8   1                   5.415      54.150000000000006      55.955000000000005
     9   1                   5.415      55.955000000000005      54.150000000000006
    10   1      3.6099999999999999      54.150000000000006      57.760000000000005
    11   1      3.6099999999999999      55.955000000000005      59.565000000000005
    12   1                   5.415      54.150000000000006      59.565000000000005
    13   1                   5.415      55.955000000000005      57.760000000000005
    14   1                   5.415      55.955000000000005      61.370000000000005
    15   1                   5.415      57.760000000000005      52.344999999999999
    16   1      3.6099999999999999      57.760000000000005      54.150000000000006
    17   1      3.6099999999999999      59.565000000000005      55.955000000000005
    18   1                   5.415      57.760000000000005      55.955000000000005
    19   1                   5.415      59.565000000000005      54.150000000000006
    20   1      3.6099999999999999      57.760000000000005      57.760000000000005
    21   1      3.6099999999999999      59.565000000000005      59.565000000000005
    22   1                   5.415      57.760000000000005      59.565000000000005
    23   1                   5.415      59.565000000000005      57.760000000000005
    24   1      3.6099999999999999      57.760000000000005      61.370000000000005
    25   1                   5.415      57.760000000000005      63.175000000000026
    26   1                   5.415      59.565000000000005      61.370000000000005
    27   1                   5.415      61.370000000000005      55.955000000000005
    28   1      3.6099999999999999      61.370000000000005      57.760000000000005
    29   1                   5.415      61.370000000000005      59.565000000000005
    30   1                   5.415      63.175000000000026      57.760000000000005
    31   1      9.0249999999999986      48.735000000000007      57.760000000000005
    32   1      7.2199999999999998      52.344999999999999      55.955000000000005
    33   1      9.0249999999999986      50.540000000000006      55.955000000000005
    34   1      9.0249999999999986      52.344999999999999      54.150000000000006
    35   1      7.2199999999999998      50.540000000000006      57.760000000000005
    36   1      7.2199999999999998      52.344999999999999      59.565000000000005
    37   1      9.0249999999999986      50.540000000000006      59.565000000000005
    38   1      9.0249999999999986      52.344999999999999      57.760000000000005
    39   1      9.0249999999999986      52.344999999999999      61.370000000000005
    40   1      7.2199999999999998      55.955000000000005      52.344999999999999
    41   1      9.0249999999999986      54.150000000000006      52.344999999999999
    42   1      9.0249999999999986      55.955000000000005      50.540000000000006
    43   1      7.2199999999999998      54.150000000000006      54.150000000000006
    44   1      7.2199999999999998      55.955000000000005      55.955000000000005
    45   1      9.0249999999999986      54.150000000000006      55.955000000000005
    46   1      9.0249999999999986      55.955000000000005      54.150000000000006
    47   1      7.2199999999999998      54.150000000000006      57.760000000000005
    48   1      7.2199999999999998      55.955000000000005      59.565000000000005
    49   1      9.0249999999999986      54.150000000000006      59.565000000000005
    50   1      9.0249999999999986      55.955000000000005      57.760000000000005
    51   1      7.2199999999999998      54.150000000000006      61.370000000000005
    52   1      7.2199999999999998      55.955000000000005      63.175000000000026
    53   1      9.0249999999999986      54.150000000000006      63.175000000000026
    54   1      9.0249999999999986      55.955000000000005      61.370000000000005
    55   1      9.0249999999999986      55.955000000000005      64.980000000000004
    56   1      9.0249999999999986      57.760000000000005      48.735000000000007
    57   1      7.2199999999999998      57.760000000000005      50.540000000000006
    58   1      7.2199999999999998      59.565000000000005      52.344999999999999
    59   1      9.0249999999999986      57.760000000000005      52.344999999999999
    60   1      9.0249999999999986      59.565000000000005      50.540000000000006
    61   1      7.2199999999999998      57.760000000000005      54.150000000000006
    62   1      7.2199999999999998      59.565000000000005      55.955000000000005
    63   1      9.0249999999999986      57.760000000000005      55.955000000000005
    64   1      9.0249999999999986      59.565000000000005      54.150000000000006
    65   1      7.2199999999999998      57.760000000000005      57.760000000000005
    66   1      7.2199999999999998      59.565000000000005      59.565000000000005
    67   1      9.0249999999999986      57.760000000000005      59.565000000000005
    68   1      9.0249999999999986      59.565000000000005      57.760000000000005
    69   1      7.2199999999999998      57.760000000000005      61.370000000000005
    70   1      7.2199999999999998      59.565000000000005      63.175000000000026
    71   1      9.0249999999999986      57.760000000000005      63.175000000000026
    72   1      9.0249999999999986      59.565000000000005      61.370000000000005
    73   1      7.2199999999999998      57.760000000000005      64.980000000000004
    74   1      9.0249999999999986      57.760000000000005      66.785000000000011
    75   1      9.0249999999999986      59.565000000000005      64.980000000000004
    76   1      9.0249999999999986      61.370000000000005      52.344999999999999
    77   1      7.2199999999999998      61.370000000000005      54.150000000000006
    78   1      7.2199999999999998      63.175000000000026      55.955000000000005
    79   1      9.0249999999999986      61.370000000000005      55.955000000000005
    80   1      9.0249999999999986      63.175000000000026      54.150000000000006
    81   1      7.2199999999999998      61.370000000000005      57.760000000000005
    82   1      7.2199999999999998      63.175000000000026      59.565000000000005
    83   1      9.0249999999999986      61.370000000000005      59.565000000000005
    84   1      9.0249999999999986      63.175000000000026      57.760000000000005
    85   1      7.2199999999999998      61.370000000000005      61.370000000000005
    86   1      9.0249999999999986      61.370000000000005      63.175000000000026
    87   1      9.0249999999999986      63.175000000000026      61.370000000000005
    88   1      9.0249999999999986      64.980000000000004      55.955000000000005
    89   1      7.2199999999999998      64.980000000000004      57.760000000000005
    90   1      9.0249999999999986      64.980000000000004      59.565000000000005
    91   1      9.0249999999999986      66.785000000000011      57.760000000000005
    92   1                  12.635      41.515000000000008      57.760000000000005
    93   1                   10.83                  45.125      55.955000000000005
    94   1                  12.635      43.320000000000007      55.955000000000005
    95   1                  12.635                  45.125      54.150000000000006
    96   1                   10.83      43.320000000000007      57.760000000000005
    97   1                   10.83                  45.125      59.565000000000005
    98   1                  12.635      43.320000000000007      59.565000000000005
    99   1                  12.635                  45.125      57.760000000000005
   100   1                  12.635                  45.125      61.370000000000005
   101   1                   10.83      48.735000000000007      52.344999999999999
   102   1                  12.635      46.930000000000007      52.344999999999999
   103   1                  12.635      48.735000000000007      50.540000000000006
   104   1                   10.83      46.930000000000007      54.150000000000006
   105   1                   10.83      48.735000000000007      55.955000000000005
   106   1                  12.635      46.930000000000007      55.955000000000005
   107   1                  12.635      48.735000000000007      54.150000000000006
   108   1                   10.83      46.930000000000007      57.760000000000005
   109   1                   10.83      48.735000000000007      59.565000000000005
   110   1                  12.635      46.930000000000007      59.565000000000005
   111   1                  12.635      48.735000000000007      57.760000000000005
   112   1                   10.83      46.930000000000007      61.370000000000005
   113   1                   10.83      48.735000000000007      63.175000000000026
   114   1                  12.635      46.930000000000007      63.175000000000026
   115   1                  12.635      48.735000000000007      61.370000000000005
   116   1                  12.635      48.735000000000007      64.980000000000004
   117   1                   10.83      52.344999999999999      48.735000000000007
   118   1                  12.635      50.540000000000006      48.735000000000007
   119   1                  12.635      52.344999999999999      46.930000000000007
   120   1                   10.83      50.540000000000006      50.540000000000006
   121   1                   10.83      52.344999999999999      52.344999999999999
   122   1                  12.635      50.540000000000006      52.344999999999999
   123   1                  12.635      52.344999999999999      50.540000000000006
   124   1                   10.83      50.540000000000006      54.150000000000006
   125   1                   10.83      52.344999999999999      55.955000000000005
   126   1                  12.635      50.540000000000006      55.955000000000005
   127   1                  12.635      52.344999999999999      54.150000000000006
   128   1                   10.83      50.540000000000006      57.760000000000005
   129   1                   10.83      52.344999999999999      59.565000000000005
   130   1                  12.635      50.540000000000006      59.565000000000005
   131   1                  12.635      52.344999999999999      57.760000000000005
   132   1                   10.83      50.540000000000006      61.370000000000005
   133   1                   10.83      52.344999999999999      63.175000000000026
   134   1                  12.635      50.540000000000006      63.175000000000026
   135   1                  12.635      52.344999999999999      61.370000000000005
   136   1                   10.83      50.540000000000006      64.980000000000004
   137   1                   10.83      52.344999999999999      66.785000000000011
   138   1                  12.635      50.540000000000006      66.785000000000011
   139   1                  12.635      52.344999999999999      64.980000000000004
   140   1                  12.635      52.344999999999999      68.590000000000018
   141   1                   10.83      55.955000000000005                  45.125
   142   1                  12.635      54.150000000000006                  45.125
   143   1                  12.635      55.955000000000005      43.320000000000007
   144   1                   10.83      54.150000000000006      46.930000000000007
   145   1                   10.83      55.955000000000005      48.735000000000007
   146   1                  12.635      54.150000000000006      48.735000000000007
   147   1                  12.635      55.955000000000005      46.930000000000007
   148   1                   10.83      54.150000000000006      50.540000000000006
   149   1                   10.83      55.955000000000005      52.344999999999999
   150   1                  12.635      54.150000000000006      52.344999999999999
   151   1                  12.635      55.955000000000005      50.540000000000006
   152   1                   10.83      54.150000000000006      54.150000000000006
   153   1                   10.83      55.955000000000005      55.955000000000005
   154   1                  12.635      54.150000000000006      55.955000000000005
   155   1                  12.635      55.955000000000005      54.150000000000006
   156   1                   10.83      54.150000000000006      57.760000000000005
   157   1                   10.83      55.955000000000005      59.565000000000005
   158   1                  12.635      54.150000000000006      59.565000000000005
   159   1                  12.635      55.955000000000005      57.760000000000005
   160   1                   10.83      54.150000000000006      61.370000000000005
   161   1                   10.83      55.955000000000005      63.175000000000026
   162   1                  12.635      54.150000000000006      63.175000000000026
   163   1                  12.635      55.955000000000005      61.370000000000005
   164   1                   10.83      54.150000000000006      64.980000000000004
   165   1                   10.83      55.955000000000005      66.785000000000011
   166   1                  12.635      54.150000000000006      66.785000000000011
   167   1                  12.635      55.955000000000005      64.980000000000004
   168   1                   10.83      54.150000000000006      68.590000000000018
   169   1                   10.83      55.955000000000005       70.39500000000001
   170   1                  12.635      54.150000000000006       70.39500000000001
   171   1                  12.635      55.955000000000005      68.590000000000018
   172   1                  12.635      55.955000000000005      72.200000000000017
   173   1                  12.635      57.760000000000005      41.515000000000008
   174   1                   10.83      57.760000000000005      43.320000000000007
   175   1                   10.83      59.565000000000005                  45.125
   176   1                  12.635      57.760000000000005                  45.125
   177   1                  12.635      59.565000000000005      43.320000000000007
   178   1                   10.83      57.760000000000005      46.930000000000007
   179   1                   10.83      59.565000000000005      48.735000000000007
   180   1                  12.635      57.760000000000005      48.735000000000007
   181   1                  12.635      59.565000000000005      46.930000000000007
   182   1                   10.83      57.760000000000005      50.540000000000006
   183   1                   10.83      59.565000000000005      52.344999999999999
   184   1                  12.635      57.760000000000005      52.344999999999999
   185   1                  12.635      59.565000000000005      50.540000000000006
   186   1                   10.83      57.760000000000005      54.150000000000006
   187   1                   10.83      59.565000000000005      55.955000000000005
   188   1                  12.635      57.760000000000005      55.955000000000005
   189   1                  12.635      59.565000000000005      54.150000000000006
   190   1                   10.83      57.760000000000005      57.760000000000005
   191   1                   10.83      59.565000000000005      59.565000000000005
   192   1                  12.635      57.760000000000005      59.565000000000005
   193   1                  12.635      59.565000000000005      57.760000000000005
   194   1                   10.83      57.760000000000005      61.370000000000005
   195   1                   10.83      59.565000000000005      63.175000000000026
   196   1                  12.635      57.760000000000005      63.175000000000026
   197   1                  12.635      59.565000000000005      61.370000000000005
   198   1                   10.83      57.760000000000005      64.980000000000004
   199   1                   10.83      59.565000000000005      66.785000000000011
   200   1                  12.635      57.760000000000005      66.785000000000011
   201   1                  12.635      59.565000000000005      64.980000000000004
   202   1                   10.83      57.760000000000005      68.590000000000018
   203   1                   10.83      59.565000000000005       70.39500000000001
   204   1                  12.635      57.760000000000005       70.39500000000001
   205   1                  12.635      59.565000000000005      68.590000000000018
   206   1                   10.83      57.760000000000005      72.200000000000017
   207   1                  12.635      57.760000000000005      74.005000000000024
   208   1                  12.635      59.565000000000005      72.200000000000017
   209   1                  12.635      61.370000000000005                  45.125
   210   1                   10.83      61.370000000000005      46.930000000000007
   211   1                   10.83      63.175000000000026      48.735000000000007
   212   1                  12.635      61.370000000000005      48.735000000000007
   213   1                  12.635      63.175000000000026      46.930000000000007
   214   1                   10.83      61.370000000000005      50.540000000000006
   215   1                   10.83      63.175000000000026      52.344999999999999
   216   1                  12.635      61.370000000000005      52.344999999999999
   217   1                  12.635      63.175000000000026      50.540000000000006
   218   1                   10.83      61.370000000000005      54.150000000000006
   219   1                   10.83      63.175000000000026      55.955000000000005
   220   1                  12.635      61.370000000000005      55.955000000000005
   221   1                  12.635      63.175000000000026      54.150000000000006
   222   1                   10.83      61.370000000000005      57.760000000000005
   223   1                   10.83      63.175000000000026      59.565000000000005
   224   1                  12.635      61.370000000000005      59.565000000000005
   225   1                  12.635      63.175000000000026      57.760000000000005
   226   1                   10.83      61.370000000000005      61.370000000000005
   227   1                   10.83      63.175000000000026      63.175000000000026
   228   1                  12.635      61.370000000000005      63.175000000000026
   229   1                  12.635      63.175000000000026      61.370000000000005
   230   1                   10.83      61.370000000000005      64.980000000000004
   231   1                   10.83      63.175000000000026      66.785000000000011
   232   1                  12.635      61.370000000000005      66.785000000000011
   233   1                  12.635      63.175000000000026      64.980000000000004
   234   1                   10.83      61.370000000000005      68.590000000000018
   235   1                  12.635      61.370000000000005       70.39500000000001
   236   1                  12.635      63.175000000000026      68.590000000000018
   237   1                  12.635      64.980000000000004      48.735000000000007
   238   1                   10.83      64.980000000000004      50.540000000000006
   239   1                   10.83      66.785000000000011      52.344999999999999
   240   1                  12.635      64.980000000000004      52.344999999999999
   241   1                  12.635      66.785000000000011      50.540000000000006
   242   1                   10.83      64.980000000000004      54.150000000000006
   243   1                   10.83      66.785000000000011      55.955000000000005
   244   1                  12.635      64.980000000000004      55.955000000000005
   245   1                  12.635      66.785000000000011      54.150000000000006
   246   1                   10.83      64.980000000000004      57.760000000000005
   247   1                   10.83      66.785000000000011      59.565000000000005
   248   1                  12.635      64.980000000000004      59.565000000000005
   249   1                  12.635      66.785000000000011      57.760000000000005
   250   1                   10.83      64.980000000000004      61.370000000000005
   251   1                   10.83      66.785000000000011      63.175000000000026
   252   1                  12.635      64.980000000000004      63.175000000000026
   253   1                  12.635      66.785000000000011      61.370000000000005
   254   1                   10.83      64.980000000000004      64.980000000000004
   255   1                  12.635      64.980000000000004      66.785000000000011
   256   1                  12.635      66.785000000000011      64.980000000000004
   257   1                  12.635      68.590000000000018      52.344999999999999
   258   1                   10.83      68.590000000000018      54.150000000000006
   259   1                   10.83       70.39500000000001      55.955000000000005
   260   1                  12.635      68.590000000000018      55.955000000000005
   261   1                  12.635       70.39500000000001      54.150000000000006
   262   1                   10.83      68.590000000000018      57.760000000000005
   263   1                   10.83       70.39500000000001      59.565000000000005
   264   1                  12.635      68.590000000000018      59.565000000000005
   265   1                  12.635       70.39500000000001      57.760000000000005
   266   1                   10.83      68.590000000000018      61.370000000000005
   267   1                  12.635      68.590000000000018      63.175000000000026
   268   1                  12.635       70.39500000000001      61.370000000000005
   269   1                  12.635      72.200000000000017      55.955000000000005
   270   1                   10.83      72.200000000000017      57.760000000000005
   271   1                  12.635      72.200000000000017      59.565000000000005
   272   1                  12.635      74.005000000000024      57.760000000000005
   273   1      16.245000000000001      37.905000000000001      57.760000000000005
   274   1      14.440000000000007      41.515000000000008      55.955000000000005
   275   1      16.245000000000001      39.710000000000008      55.955000000000005
   276   1      16.245000000000001      41.515000000000008      54.150000000000006
   277   1      14.440000000000007      39.710000000000008      57.760000000000005
   278   1      14.440000000000007      41.515000000000008      59.565000000000005
   279   1      16.245000000000001      39.710000000000008      59.565000000000005
   280   1      16.245000000000001      41.515000000000008      57.760000000000005
   281   1      16.245000000000001      41.515000000000008      61.370000000000005
   282   1      14.440000000000007                  45.125      52.344999999999999
   283   1      16.245000000000001      43.320000000000007      52.344999999999999
   284   1      16.245000000000001                  45.125      50.540000000000006
   285   1      14.440000000000007      43.320000000000007      54.150000000000006
   286   1      14.440000000000007                  45.125      55.955000000000005
   287   1      16.245000000000001      43.320000000000007      55.955000000000005
   288   1      16.245000000000001                  45.125      54.150000000000006
   289   1      14.440000000000007      43.320000000000007      57.760000000000005
   290   1      14.440000000000007                  45.125      59.565000000000005
   291   1      16.245000000000001      43.320000000000007      59.565000000000005
   292   1      16.245000000000001                  45.125      57.760000000000005
   293   1      14.440000000000007      43.320000000000007      61.370000000000005
   294   1      14.440000000000007                  45.125      63.175000000000026
   295   1      16.245000000000001      43.320000000000007      63.175000000000026
   296   1      16.245000000000001                  45.125      61.370000000000005
   297   1      16.245000000000001                  45.125      64.980000000000004
   298   1      14.440000000000007      48.735000000000007      48.735000000000007
   299   1      16.245000000000001      46.930000000000007      48.735000000000007
   300   1      16.245000000000001      48.735000000000007      46.930000000000007
   301   1      14.440000000000007      46.930000000000007      50.540000000000006
   302   1      14.440000000000007      48.735000000000007      52.344999999999999
   303   1      16.245000000000001      46.930000000000007      52.344999999999999
   304   1      16.245000000000001      48.735000000000007      50.540000000000006
   305   1      14.440000000000007      46.930000000000007      54.150000000000006
   306   1      14.440000000000007      48.735000000000007      55.955000000000005
   307   1      16.245000000000001      46.930000000000007      55.955000000000005
   308   1      16.245000000000001      48.735000000000007      54.150000000000006
   309   1      14.440000000000007      46.930000000000007      57.760000000000005
   310   1      14.440000000000007      48.735000000000007      59.565000000000005
   311   1      16.245000000000001      46.930000000000007      59.565000000000005
   312   1      16.245000000000001      48.735000000000007      57.760000000000005
   313   1      14.440000000000007      46.930000000000007      61.370000000000005
   314   1      14.440000000000007      48.735000000000007      63.175000000000026
   315   1      16.245000000000001      46.930000000000007      63.175000000000026
   316   1      16.245000000000001      48.735000000000007      61.370000000000005
   317   1      14.440000000000007      46.930000000000007      64.980000000000004
   318   1      14.440000000000007      48.735000000000007      66.785000000000011
   319   1      16.245000000000001      46.930000000000007      66.785000000000011
   320   1      16.245000000000001      48.735000000000007      64.980000000000004
   321   1      16.245000000000001      48.735000000000007      68.590000000000018
   322   1      14.440000000000007      52.344999999999999                  45.125
   323   1      16.245000000000001      50.540000000000006                  45.125
   324   1      16.245000000000001      52.344999999999999      43.320000000000007
   325   1      14.440000000000007      50.540000000000006      46.930000000000007
   326   1      14.440000000000007      52.344999999999999      48.735000000000007
   327   1      16.245000000000001      50.540000000000006      48.735000000000007
   328   1      16.245000000000001      52.344999999999999      46.930000000000007
   329   1      14.440000000000007      50.540000000000006      50.540000000000006
   330   1      14.440000000000007      52.344999999999999      52.344999999999999
   331   1      16.245000000000001      50.540000000000006      52.344999999999999
   332   1      16.245000000000001      52.344999999999999      50.540000000000006
   333   1      14.440000000000007      50.540000000000006      54.150000000000006
   334   1      14.440000000000007      52.344999999999999      55.955000000000005
   335   1      16.245000000000001      50.540000000000006      55.955000000000005
   336   1      16.245000000000001      52.344999999999999      54.150000000000006
   337   1      14.440000000000007      50.540000000000006      57.760000000000005
   338   1      14.440000000000007      52.344999999999999      59.565000000000005
   339   1      16.245000000000001      50.540000000000006      59.565000000000005
   340   1      16.245000000000001      52.344999999999999      57.760000000000005
   341   1      14.440000000000007      50.540000000000006      61.370000000000005
   342   1      14.440000000000007      52.344999999999999      63.175000000000026
   343   1      16.245000000000001      50.540000000000006      63.175000000000026
   344   1      16.245000000000001      52.344999999999999      61.370000000000005
   345   1      14.440000000000007      50.540000000000006      64.980000000000004
   346   1      14.440000000000007      52.344999999999999      66.785000000000011
   347   1      16.245000000000001      50.540000000000006      66.785000000000011
   348   1      16.245000000000001      52.344999999999999      64.980000000000004
   349   1      14.440000000000007      50.540000000000006      68.590000000000018
   350   1      14.440000000000007      52.344999999999999       70.39500000000001
   351   1      16.245000000000001      50.540000000000006       70.39500000000001
   352   1      16.245000000000001      52.344999999999999      68.590000000000018
   353   1      16.245000000000001      52.344999999999999      72.200000000000017
   354   1      14.440000000000007      55.955000000000005      41.515000000000008
   355   1      16.245000000000001      54.150000000000006      41.515000000000008
   356   1      16.245000000000001      55.955000000000005      39.710000000000008
   357   1      14.440000000000007      54.150000000000006      43.320000000000007
   358   1      14.440000000000007      55.955000000000005                  45.125