LAMMPS data file via write_data, version 30 Nov 2020, timestep = 0

30029 atoms
3 atom types

0 93 xlo xhi
0 93 ylo yhi
0 93 zlo zhi

Masses

1 63.546
2 55.845
3 58.6934

Atoms # atomic

1 2 1.900000000000006 39.89999999999999 41.8 0 0 0
2 1 1.900000000000006 39.89999999999999 45.599999999999994 0 0 0
4 3 1.900000000000006 41.8 39.89999999999999 0 0 0
5 1 0 43.7 43.7 0 0 0
6 1 1.900000000000006 41.8 43.7 0 0 0
7 1 1.900000000000006 43.7 41.8 0 0 0
10 1 1.900000000000006 43.7 45.599999999999994 0 0 0
13 1 1.900000000000006 45.599999999999994 39.89999999999999 0 0 0
15 2 1.900000000000006 45.599999999999994 43.7 0 0 0
17 1 0 45.599999999999994 45.599999999999994 0 0 0
30 1 5.700000000000004 30.400000000000002 32.3 0 0 0
31 1 5.700000000000004 32.3 30.400000000000002 0 0 0
32 3 5.700000000000004 30.400000000000002 36.099999999999994 0 0 0
33 1 5.700000000000004 32.3 34.2 0 0 0
34 1 5.700000000000004 30.400000000000002 39.89999999999999 0 0 0
35 2 5.700000000000004 32.3 38 0 0 0
36 1 5.700000000000004 30.400000000000002 43.7 0 0 0
37 1 5.700000000000004 32.3 41.8 0 0 0
39 3 5.700000000000004 32.3 45.599999999999994 0 0 0
47 1 5.700000000000004 34.2 32.3 0 0 0
48 1 5.700000000000004 36.099999999999994 30.400000000000002 0 0 0
49 1 3.8000000000000047 34.2 34.2 0 0 0
50 1 3.8000000000000047 36.099999999999994 36.099999999999994 0 0 0
51 3 5.700000000000004 34.2 36.099999999999994 0 0 0
52 3 5.700000000000004 36.099999999999994 34.2 0 0 0
53 1 3.8000000000000047 34.2 38 0 0 0
54 2 3.8000000000000047 36.099999999999994 39.89999999999999 0 0 0
55 3 5.700000000000004 34.2 39.89999999999999 0 0 0
56 1 5.700000000000004 36.099999999999994 38 0 0 0
57 1 3.8000000000000047 34.2 41.8 0 0 0
58 2 3.8000000000000047 36.099999999999994 43.7 0 0 0
59 3 5.700000000000004 34.2 43.7 0 0 0
60 2 5.700000000000004 36.099999999999994 41.8 0 0 0
61 3 3.8000000000000047 34.2 45.599999999999994 0 0 0
64 3 5.700000000000004 36.099999999999994 45.599999999999994 0 0 0
77 1 5.700000000000004 38 32.3 0 0 0
78 1 5.700000000000004 39.89999999999999 30.400000000000002 0 0 0
79 1 3.8000000000000047 38 34.2 0 0 0
80 1 3.8000000000000047 39.89999999999999 36.099999999999994 0 0 0
81 1 5.700000000000004 38 36.099999999999994 0 0 0
82 1 5.700000000000004 39.89999999999999 34.2 0 0 0
83 2 3.8000000000000047 38 38 0 0 0
84 1 3.8000000000000047 39.89999999999999 39.89999999999999 0 0 0
85 1 5.700000000000004 38 39.89999999999999 0 0 0
86 2 5.700000000000004 39.89999999999999 38 0 0 0
87 1 3.8000000000000047 38 41.8 0 0 0
88 1 3.8000000000000047 39.89999999999999 43.7 0 0 0
89 1 5.700000000000004 38 43.7 0 0 0
90 3 5.700000000000004 39.89999999999999 41.8 0 0 0
91 2 3.8000000000000047 38 45.599999999999994 0 0 0
94 3 5.700000000000004 39.89999999999999 45.599999999999994 0 0 0
107 1 5.700000000000004 41.8 32.3 0 0 0
108 1 5.700000000000004 43.7 30.400000000000002 0 0 0
109 1 3.8000000000000047 41.8 34.2 0 0 0
110 2 3.8000000000000047 43.7 36.099999999999994 0 0 0
111 3 5.700000000000004 41.8 36.099999999999994 0 0 0
112 2 5.700000000000004 43.7 34.2 0 0 0
113 1 3.8000000000000047 41.8 38 0 0 0
114 3 3.8000000000000047 43.7 39.89999999999999 0 0 0
115 1 5.700000000000004 41.8 39.89999999999999 0 0 0
116 2 5.700000000000004 43.7 38 0 0 0
117 2 3.8000000000000047 41.8 41.8 0 0 0
118 1 3.8000000000000047 43.7 43.7 0 0 0
119 3 5.700000000000004 41.8 43.7 0 0 0
120 1 5.700000000000004 43.7 41.8 0 0 0
121 1 3.8000000000000047 41.8 45.599999999999994 0 0 0
124 3 5.700000000000004 43.7 45.599999999999994 0 0 0
137 2 5.700000000000004 45.599999999999994 32.3 0 0 0
139 1 3.8000000000000047 45.599999999999994 34.2 0 0 0
141 3 5.700000000000004 45.599999999999994 36.099999999999994 0 0 0
143 1 3.8000000000000047 45.599999999999994 38 0 0 0
145 3 5.700000000000004 45.599999999999994 39.89999999999999 0 0 0
147 2 3.8000000000000047 45.599999999999994 41.8 0 0 0
149 3 5.700000000000004 45.599999999999994 43.7 0 0 0
151 1 3.8000000000000047 45.599999999999994 45.599999999999994 0 0 0
259 1 9.5 20.9 22.799999999999997 0 0 0
260 1 9.5 20.9 26.599999999999998 0 0 0
261 3 9.5 20.9 30.400000000000002 0 0 0
262 1 9.5 20.9 34.2 0 0 0
263 1 9.5 20.9 38 0 0 0
264 1 9.5 20.9 41.8 0 0 0
265 1 9.5 20.9 45.599999999999994 0 0 0
272 2 9.5 22.799999999999997 20.9 0 0 0
273 2 7.600000000000001 24.7 24.7 0 0 0
274 2 9.5 22.799999999999997 24.7 0 0 0
275 3 9.5 24.7 22.799999999999997 0 0 0
276 3 7.600000000000001 24.7 28.5 0 0 0
277 3 9.5 22.799999999999997 28.5 0 0 0
278 2 9.5 24.7 26.599999999999998 0 0 0
279 3 7.600000000000001 24.7 32.3 0 0 0
280 1 9.5 22.799999999999997 32.3 0 0 0
281 1 9.5 24.7 30.400000000000002 0 0 0
282 1 7.600000000000001 24.7 36.099999999999994 0 0 0
283 1 9.5 22.799999999999997 36.099999999999994 0 0 0
284 1 9.5 24.7 34.2 0 0 0
285 1 7.600000000000001 24.7 39.89999999999999 0 0 0
286 2 9.5 22.799999999999997 39.89999999999999 0 0 0
287 1 9.5 24.7 38 0 0 0
288 3 7.600000000000001 24.7 43.7 0 0 0
289 1 9.5 22.799999999999997 43.7 0 0 0
290 1 9.5 24.7 41.8 0 0 0
293 3 9.5 24.7 45.599999999999994 0 0 0
311 1 9.5 26.599999999999998 20.9 0 0 0
312 2 7.600000000000001 28.5 24.7 0 0 0
313 1 9.5 26.599999999999998 24.7 0 0 0
314 1 9.5 28.5 22.799999999999997 0 0 0
315 1 7.600000000000001 26.599999999999998 26.599999999999998 0 0 0
316 1 7.600000000000001 28.5 28.5 0 0 0
317 1 9.5 26.599999999999998 28.5 0 0 0
318 1 9.5 28.5 26.599999999999998 0 0 0
319 1 7.600000000000001 26.599999999999998 30.400000000000002 0 0 0
320 1 7.600000000000001 28.5 32.3 0 0 0
321 2 9.5 26.599999999999998 32.3 0 0 0
322 1 9.5 28.5 30.400000000000002 0 0 0
323 1 7.600000000000001 26.599999999999998 34.2 0 0 0
324 3 7.600000000000001 28.5 36.099999999999994 0 0 0
325 2 9.5 26.599999999999998 36.099999999999994 0 0 0
326 3 9.5 28.5 34.2 0 0 0
327 1 7.600000000000001 26.599999999999998 38 0 0 0
328 1 7.600000000000001 28.5 39.89999999999999 0 0 0
329 1 9.5 26.599999999999998 39.89999999999999 0 0 0
330 1 9.5 28.5 38 0 0 0
331 2 7.600000000000001 26.599999999999998 41.8 0 0 0
332 1 7.600000000000001 28.5 43.7 0 0 0
333 2 9.5 26.599999999999998 43.7 0 0 0
334 1 9.5 28.5 41.8 0 0 0
335 1 7.600000000000001 26.599999999999998 45.599999999999994 0 0 0
338 1 9.5 28.5 45.599999999999994 0 0 0
361 1 9.5 30.400000000000002 20.9 0 0 0
362 2 7.600000000000001 32.3 24.7 0 0 0
363 1 9.5 30.400000000000002 24.7 0 0 0
364 1 9.5 32.3 22.799999999999997 0 0 0
365 1 7.600000000000001 30.400000000000002 26.599999999999998 0 0 0
366 1 7.600000000000001 32.3 28.5 0 0 0
367 2 9.5 30.400000000000002 28.5 0 0 0
368 3 9.5 32.3 26.599999999999998 0 0 0
369 1 7.600000000000001 30.400000000000002 30.400000000000002 0 0 0
370 2 7.600000000000001 32.3 32.3 0 0 0
371 1 9.5 30.400000000000002 32.3 0 0 0
372 3 9.5 32.3 30.400000000000002 0 0 0
373 1 7.600000000000001 30.400000000000002 34.2 0 0 0
374 1 7.600000000000001 32.3 36.099999999999994 0 0 0
375 1 9.5 30.400000000000002 36.099999999999994 0 0 0
376 3 9.5 32.3 34.2 0 0 0
377 1 7.600000000000001 30.400000000000002 38 0 0 0
378 2 7.600000000000001 32.3 39.89999999999999 0 0 0
379 2 9.5 30.400000000000002 39.89999999999999 0 0 0
380 3 9.5 32.3 38 0 0 0
381 1 7.600000000000001 30.400000000000002 41.8 0 0 0
382 2 7.600000000000001 32.3 43.7 0 0 0
383 1 9.5 30.400000000000002 43.7 0 0 0
384 1 9.5 32.3 41.8 0 0 0
385 3 7.600000000000001 30.400000000000002 45.599999999999994 0 0 0
388 3 9.5 32.3 45.599999999999994 0 0 0
411 3 9.5 34.2 20.9 0 0 0
412 1 7.600000000000001 36.099999999999994 24.7 0 0 0
413 1 9.5 34.2 24.7 0 0 0
414 1 9.5 36.099999999999994 22.799999999999997 0 0 0
415 1 7.600000000000001 34.2 26.599999999999998 0 0 0
416 3 7.600000000000001 36.099999999999994 28.5 0 0 0
417 1 9.5 34.2 28.5 0 0 0
418 3 9.5 36.099999999999994 26.599999999999998 0 0 0
419 1 7.600000000000001 34.2 30.400000000000002 0 0 0
420 1 7.600000000000001 36.099999999999994 32.3 0 0 0
421 1 9.5 34.2 32.3 0 0 0
422 3 9.5 36.099999999999994 30.400000000000002 0 0 0
423 3 7.600000000000001 34.2 34.2 0 0 0
424 1 7.600000000000001 36.099999999999994 36.099999999999994 0 0 0
425 1 9.5 34.2 36.099999999999994 0 0 0
426 1 9.5 36.099999999999994 34.2 0 0 0
427 1 7.600000000000001 34.2 38 0 0 0
428 1 7.600000000000001 36.099999999999994 39.89999999999999 0 0 0
429 1 9.5 34.2 39.89999999999999 0 0 0
430 1 9.5 36.099999999999994 38 0 0 0
431 1 7.600000000000001 34.2 41.8 0 0 0
432 2 7.600000000000001 36.099999999999994 43.7 0 0 0
433 3 9.5 34.2 43.7 0 0 0
434 1 9.5 36.099999999999994 41.8 0 0 0
435 1 7.600000000000001 34.2 45.599999999999994 0 0 0
438 2 9.5 36.099999999999994 45.599999999999994 0 0 0
461 3 9.5 38 20.9 0 0 0
462 1 7.600000000000001 39.89999999999999 24.7 0 0 0
463 3 9.5 38 24.7 0 0 0
464 2 9.5 39.89999999999999 22.799999999999997 0 0 0
465 1 7.600000000000001 38 26.599999999999998 0 0 0
466 3 7.600000000000001 39.89999999999999 28.5 0 0 0
467 1 9.5 38 28.5 0 0 0
468 1 9.5 39.89999999999999 26.599999999999998 0 0 0
469 3 7.600000000000001 38 30.400000000000002 0 0 0
470 1 7.600000000000001 39.89999999999999 32.3 0 0 0
471 1 9.5 38 32.3 0 0 0
472 3 9.5 39.89999999999999 30.400000000000002 0 0 0
473 1 7.600000000000001 38 34.2 0 0 0
474 1 7.600000000000001 39.89999999999999 36.099999999999994 0 0 0
475 3 9.5 38 36.099999999999994 0 0 0
476 1 9.5 39.89999999999999 34.2 0 0 0
477 2 7.600000000000001 38 38 0 0 0
478 3 7.600000000000001 39.89999999999999 39.89999999999999 0 0 0
479 2 9.5 38 39.89999999999999 0 0 0
480 2 9.5 39.89999999999999 38 0 0 0
481 1 7.600000000000001 38 41.8 0 0 0
482 3 7.600000000000001 39.89999999999999 43.7 0 0 0
483 3 9.5 38 43.7 0 0 0
484 3 9.5 39.89999999999999 41.8 0 0 0
485 1 7.600000000000001 38 45.599999999999994 0 0 0
488 2 9.5 39.89999999999999 45.599999999999994 0 0 0
511 3 9.5 41.8 20.9 0 0 0
512 1 7.600000000000001 43.7 24.7 0 0 0
513 3 9.5 41.8 24.7 0 0 0
514 2 9.5 43.7 22.799999999999997 0 0 0
515 1 7.600000000000001 41.8 26.599999999999998 0 0 0
516 1 7.600000000000001 43.7 28.5 0 0 0
517 1 9.5 41.8 28.5 0 0 0
518 1 9.5 43.7 26.599999999999998 0 0 0
519 2 7.600000000000001 41.8 30.400000000000002 0 0 0
520 3 7.600000000000001 43.7 32.3 0 0 0
521 2 9.5 41.8 32.3 0 0 0
522 3 9.5 43.7 30.400000000000002 0 0 0
523 2 7.600000000000001 41.8 34.2 0 0 0
524 1 7.600000000000001 43.7 36.099999999999994 0 0 0
525 3 9.5 41.8 36.099999999999994 0 0 0
526 1 9.5 43.7 34.2 0 0 0
527 1 7.600000000000001 41.8 38 0 0 0
528 1 7.600000000000001 43.7 39.89999999999999 0 0 0
529 1 9.5 41.8 39.89999999999999 0 0 0
530 3 9.5 43.7 38 0 0 0
531 3 7.600000000000001 41.8 41.8 0 0 0
532 1 7.600000000000001 43.7 43.7 0 0 0
533 2 9.5 41.8 43.7 0 0 0
534 1 9.5 43.7 41.8 0 0 0
535 1 7.600000000000001 41.8 45.599999999999994 0 0 0
538 2 9.5 43.7 45.599999999999994 0 0 0
561 3 9.5 45.599999999999994 20.9 0 0 0
563 3 9.5 45.599999999999994 24.7 0 0 0
565 1 7.600000000000001 45.599999999999994 26.599999999999998 0 0 0
567 3 9.5 45.599999999999994 28.5 0 0 0
569 2 7.600000000000001 45.599999999999994 30.400000000000002 0 0 0
571 1 9.5 45.599999999999994 32.3 0 0 0
573 2 7.600000000000001 45.599999999999994 34.2 0 0 0
575 1 9.5 45.599999999999994 36.099999999999994 0 0 0
577 3 7.600000000000001 45.599999999999994 38 0 0 0
579 1 9.5 45.599999999999994 39.89999999999999 0 0 0
581 1 7.600000000000001 45.599999999999994 41.8 0 0 0
583 1 9.5 45.599999999999994 43.7 0 0 0
585 1 7.600000000000001 45.599999999999994 45.599999999999994 0 0 0
888 3 13.299999999999997 13.299999999999997 15.200000000000001 0 0 0
889 3 13.299999999999997 13.299999999999997 19 0 0 0
890 1 13.299999999999997 13.299999999999997 22.799999999999997 0 0 0
891 2 13.299999999999997 13.299999999999997 26.599999999999998 0 0 0
892 1 13.299999999999997 13.299999999999997 30.400000000000002 0 0 0
893 1 13.299999999999997 13.299999999999997 34.2 0 0 0
894 1 13.299999999999997 13.299999999999997 38 0 0 0
895 1 13.299999999999997 13.299999999999997 41.8 0 0 0
896 1 13.299999999999997 13.299999999999997 45.599999999999994 0 0 0
905 1 13.299999999999997 15.200000000000001 13.299999999999997 0 0 0
906 1 11.399999999999999 15.200000000000001 15.200000000000001 0 0 0
907 2 11.399999999999999 17.1 17.1 0 0 0
908 1 13.299999999999997 15.200000000000001 17.1 0 0 0
909 3 13.299999999999997 17.1 15.200000000000001 0 0 0
910 1 11.399999999999999 15.200000000000001 19 0 0 0
911 3 11.399999999999999 17.1 20.9 0 0 0
912 1 13.299999999999997 15.200000000000001 20.9 0 0 0
913 2 13.299999999999997 17.1 19 0 0 0
914 1 11.399999999999999 15.200000000000001 22.799999999999997 0 0 0
915 1 11.399999999999999 17.1 24.7 0 0 0
916 3 13.299999999999997 15.200000000000001 24.7 0 0 0
917 1 13.299999999999997 17.1 22.799999999999997 0 0 0
918 1 11.399999999999999 15.200000000000001 26.599999999999998 0 0 0
919 3 11.399999999999999 17.1 28.5 0 0 0
920 1 13.299999999999997 15.200000000000001 28.5 0 0 0
921 1 13.299999999999997 17.1 26.599999999999998 0 0 0
922 2 11.399999999999999 15.200000000000001 30.400000000000002 0 0 0
923 1 11.399999999999999 17.1 32.3 0 0 0
924 1 13.299999999999997 15.200000000000001 32.3 0 0 0
925 1 13.299999999999997 17.1 30.400000000000002 0 0 0
926 3 11.399999999999999 15.200000000000001 34.2 0 0 0
927 1 11.399999999999999 17.1 36.099999999999994 0 0 0
928 1 13.299999999999997 15.200000000000001 36.099999999999994 0 0 0
929 1 13.299999999999997 17.1 34.2 0 0 0
930 3 11.399999999999999 15.200000000000001 38 0 0 0
931 1 11.399999999999999 17.1 39.89999999999999 0 0 0
932 1 13.299999999999997 15.200000000000001 39.89999999999999 0 0 0
933 3 13.299999999999997 17.1 38 0 0 0
934 2 11.399999999999999 15.200000000000001 41.8 0 0 0
935 1 11.399999999999999 17.1 43.7 0 0 0
936 3 13.299999999999997 15.200000000000001 43.7 0 0 0
937 3 13.299999999999997 17.1 41.8 0 0 0
938 3 11.399999999999999 15.200000000000001 45.599999999999994 0 0 0
941 3 13.299999999999997 17.1 45.599999999999994 0 0 0
973 1 13.299999999999997 19 13.299999999999997 0 0 0
974 1 11.399999999999999 19 15.200000000000001 0 0 0
975 1 11.399999999999999 20.9 17.1 0 0 0
976 1 13.299999999999997 19 17.1 0 0 0
977 2 13.299999999999997 20.9 15.200000000000001 0 0 0
978 1 11.399999999999999 19 19 0 0 0
979 2 11.399999999999999 20.9 20.9 0 0 0
980 3 13.299999999999997 19 20.9 0 0 0
981 2 13.299999999999997 20.9 19 0 0 0
982 1 11.399999999999999 19 22.799999999999997 0 0 0
983 1 11.399999999999999 20.9 24.7 0 0 0
984 1 13.299999999999997 19 24.7 0 0 0
985 1 13.299999999999997 20.9 22.799999999999997 0 0 0
986 1 11.399999999999999 19 26.599999999999998 0 0 0
987 3 11.399999999999999 20.9 28.5 0 0 0
988 3 13.299999999999997 19 28.5 0 0 0
989 2 13.299999999999997 20.9 26.599999999999998 0 0 0
990 2 11.399999999999999 19 30.400000000000002 0 0 0
991 2 11.399999999999999 20.9 32.3 0 0 0
992 1 13.299999999999997 19 32.3 0 0 0
993 1 13.299999999999997 20.9 30.400000000000002 0 0 0
994 1 11.399999999999999 19 34.2 0 0 0
995 2 11.399999999999999 20.9 36.099999999999994 0 0 0
996 1 13.299999999999997 19 36.099999999999994 0 0 0
997 3 13.299999999999997 20.9 34.2 0 0 0
998 1 11.399999999999999 19 38 0 0 0
999 2 11.399999999999999 20.9 39.89999999999999 0 0 0
1000 1 13.299999999999997 19 39.89999999999999 0 0 0
1001 1 13.299999999999997 20.9 38 0 0 0
1002 1 11.399999999999999 19 41.8 0 0 0
1003 1 11.399999999999999 20.9 43.7 0 0 0
1004 3 13.299999999999997 19 43.7 0 0 0
1005 3 13.299999999999997 20.9 41.8 0 0 0
1006 2 11.399999999999999 19 45.599999999999994 0 0 0
1009 3 13.299999999999997 20.9 45.599999999999994 0 0 0
1041 1 13.299999999999997 22.799999999999997 13.299999999999997 0 0 0
1042 1 11.399999999999999 22.799999999999997 15.200000000000001 0 0 0
1043 1 11.399999999999999 24.7 17.1 0 0 0
1044 1 13.299999999999997 22.799999999999997 17.1 0 0 0
1045 1 13.299999999999997 24.7 15.200000000000001 0 0 0
1046 3 11.399999999999999 22.799999999999997 19 0 0 0
1047 3 11.399999999999999 24.7 20.9 0 0 0
1048 1 13.299999999999997 22.799999999999997 20.9 0 0 0
1049 3 13.299999999999997 24.7 19 0 0 0
1050 2 11.399999999999999 22.799999999999997 22.799999999999997 0 0 0
1051 3 11.399999999999999 24.7 24.7 0 0 0
1052 2 13.299999999999997 22.799999999999997 24.7 0 0 0
1053 1 13.299999999999997 24.7 22.799999999999997 0 0 0
1054 2 11.399999999999999 22.799999999999997 26.599999999999998 0 0 0
1055 1 11.399999999999999 24.7 28.5 0 0 0
1056 1 13.299999999999997 22.799999999999997 28.5 0 0 0
1057 1 13.299999999999997 24.7 26.599999999999998 0 0 0
1058 1 11.399999999999999 22.799999999999997 30.400000000000002 0 0 0
1059 3 11.399999999999999 24.7 32.3 0 0 0
1060 2 13.299999999999997 22.799999999999997 32.3 0 0 0
1061 1 13.299999999999997 24.7 30.400000000000002 0 0 0
1062 1 11.399999999999999 22.799999999999997 34.2 0 0 0
1063 2 11.399999999999999 24.7 36.099999999999994 0 0 0
1064 2 13.299999999999997 22.799999999999997 36.099999999999994 0 0 0
1065 1 13.299999999999997 24.7 34.2 0 0 0
1066 1 11.399999999999999 22.799999999999997 38 0 0 0
1067 1 11.399999999999999 24.7 39.89999999999999 0 0 0
1068 1 13.299999999999997 22.799999999999997 39.89999999999999 0 0 0
1069 3 13.299999999999997 24.7 38 0 0 0
1070 1 11.399999999999999 22.799999999999997 41.8 0 0 0
1071 3 11.399999999999999 24.7 43.7 0 0 0
1072 1 13.299999999999997 22.799999999999997 43.7 0 0 0
1073 1 13.299999999999997 24.7 41.8 0 0 0
1074 3 11.399999999999999 22.799999999999997 45.599999999999994 0 0 0
1077 3 13.299999999999997 24.7 45.599999999999994 0 0 0
1109 1 13.299999999999997 26.599999999999998 13.299999999999997 0 0 0
1110 1 11.399999999999999 26.599999999999998 15.200000000000001 0 0 0
1111 2 11.399999999999999 28.5 17.1 0 0 0
1112 2 13.299999999999997 26.599999999999998 17.1 0 0 0
1113 3 13.299999999999997 28.5 15.200000000000001 0 0 0
1114 1 11.399999999999999 26.599999999999998 19 0 0 0
1115 2 11.399999999999999 28.5 20.9 0 0 0
1116 3 13.299999999999997 26.599999999999998 20.9 0 0 0
1117 2 13.299999999999997 28.5 19 0 0 0
1118 1 11.399999999999999 26.599999999999998 22.799999999999997 0 0 0
1119 1 11.399999999999999 28.5 24.7 0 0 0
1120 1 13.299999999999997 26.599999999999998 24.7 0 0 0
1121 1 13.299999999999997 28.5 22.799999999999997 0 0 0
1122 3 11.399999999999999 26.599999999999998 26.599999999999998 0 0 0
1123 1 11.399999999999999 28.5 28.5 0 0 0
1124 1 13.299999999999997 26.599999999999998 28.5 0 0 0
1125 1 13.299999999999997 28.5 26.599999999999998 0 0 0
1126 1 11.399999999999999 26.599999999999998 30.400000000000002 0 0 0
1127 1 11.399999999999999 28.5 32.3 0 0 0
1128 1 13.299999999999997 26.599999999999998 32.3 0 0 0
1129 3 13.299999999999997 28.5 30.400000000000002 0 0 0
1130 2 11.399999999999999 26.599999999999998 34.2 0 0 0
1131 1 11.399999999999999 28.5 36.099999999999994 0 0 0
1132 1 13.299999999999997 26.599999999999998 36.099999999999994 0 0 0
1133 2 13.299999999999997 28.5 34.2 0 0 0
1134 3 11.399999999999999 26.599999999999998 38 0 0 0
1135 1 11.399999999999999 28.5 39.89999999999999 0 0 0
1136 2 13.299999999999997 26.599999999999998 39.89999999999999 0 0 0
1137 2 13.299999999999997 28.5 38 0 0 0
1138 1 11.399999999999999 26.599999999999998 41.8 0 0 0
1139 1 11.399999999999999 28.5 43.7 0 0 0
1140 2 13.299999999999997 26.599999999999998 43.7 0 0 0
1141 3 13.299999999999997 28.5 41.8 0 0 0
1142 1 11.399999999999999 26.599999999999998 45.599999999999994 0 0 0
1145 3 13.299999999999997 28.5 45.599999999999994 0 0 0
1177 1 13.299999999999997 30.400000000000002 13.299999999999997 0 0 0
1178 2 11.399999999999999 30.400000000000002 15.200000000000001 0 0 0
1179 2 11.399999999999999 32.3 17.1 0 0 0
1180 3 13.299999999999997 30.400000000000002 17.1 0 0 0
1181 1 13.299999999999997 32.3 15.200000000000001 0 0 0
1182 2 11.399999999999999 30.400000000000002 19 0 0 0
1183 3 11.399999999999999 32.3 20.9 0 0 0
1184 1 13.299999999999997 30.400000000000002 20.9 0 0 0
1185 3 13.299999999999997 32.3 19 0 0 0
1186 1 11.399999999999999 30.400000000000002 22.799999999999997 0 0 0
1187 1 11.399999999999999 32.3 24.7 0 0 0
1188 2 13.299999999999997 30.400000000000002 24.7 0 0 0
1189 1 13.299999999999997 32.3 22.799999999999997 0 0 0
1190 1 11.399999999999999 30.400000000000002 26.599999999999998 0 0 0
1191 1 11.399999999999999 32.3 28.5 0 0 0
1192 1 13.299999999999997 30.400000000000002 28.5 0 0 0
1193 2 13.299999999999997 32.3 26.599999999999998 0 0 0
1194 2 11.399999999999999 30.400000000000002 30.400000000000002 0 0 0
1195 3 11.399999999999999 32.3 32.3 0 0 0
1196 2 13.299999999999997 30.400000000000002 32.3 0 0 0
1197 3 13.299999999999997 32.3 30.400000000000002 0 0 0
1198 3 11.399999999999999 30.400000000000002 34.2 0 0 0
1199 2 11.399999999999999 32.3 36.099999999999994 0 0 0
1200 3 13.299999999999997 30.400000000000002 36.099999999999994 0 0 0
1201 1 13.299999999999997 32.3 34.2 0 0 0
1202 1 11.399999999999999 30.400000000000002 38 0 0 0
1203 1 11.399999999999999 32.3 39.89999999999999 0 0 0
1204 2 13.299999999999997 30.400000000000002 39.89999999999999 0 0 0
1205 1 13.299999999999997 32.3 38 0 0 0
1206 1 11.399999999999999 30.400000000000002 41.8 0 0 0
1207 3 11.399999999999999 32.3 43.7 0 0 0
1208 1 13.299999999999997 30.400000000000002 43.7 0 0 0
1209 2 13.299999999999997 32.3 41.8 0 0 0
1210 3 11.399999999999999 30.400000000000002 45.599999999999994 0 0 0
1213 3 13.299999999999997 32.3 45.599999999999994 0 0 0
1245 1 13.299999999999997 34.2 13.299999999999997 0 0 0
1246 3 11.399999999999999 34.2 15.200000000000001 0 0 0
1247 3 11.399999999999999 36.099999999999994 17.1 0 0 0
1248 3 13.299999999999997 34.2 17.1 0 0 0
1249 1 13.299999999999997 36.099999999999994 15.200000000000001 0 0 0
1250 1 11.399999999999999 34.2 19 0 0 0
1251 1 11.399999999999999 36.099999999999994 20.9 0 0 0
1252 1 13.299999999999997 34.2 20.9 0 0 0
1253 1 13.299999999999997 36.099999999999994 19 0 0 0
1254 1 11.399999999999999 34.2 22.799999999999997 0 0 0
1255 1 11.399999999999999 36.099999999999994 24.7 0 0 0
1256 2 13.299999999999997 34.2 24.7 0 0 0
1257 1 13.299999999999997 36.099999999999994 22.799999999999997 0 0 0
1258 2 11.399999999999999 34.2 26.599999999999998 0 0 0
1259 1 11.399999999999999 36.099999999999994 28.5 0 0 0
1260 1 13.299999999999997 34.2 28.5 0 0 0
1261 2 13.299999999999997 36.099999999999994 26.599999999999998 0 0 0
1262 2 11.399999999999999 34.2 30.400000000000002 0 0 0
1263 1 11.399999999999999 36.099999999999994 32.3 0 0 0
1264 1 13.299999999999997 34.2 32.3 0 0 0
1265 3 13.299999999999997 36.099999999999994 30.400000000000002 0 0 0
1266 1 11.399999999999999 34.2 34.2 0 0 0
1267 2 11.399999999999999 36.099999999999994 36.099999999999994 0 0 0
1268 1 13.299999999999997 34.2 36.099999999999994 0 0 0
1269 3 13.299999999999997 36.099999999999994 34.2 0 0 0
1270 3 11.399999999999999 34.2 38 0 0 0
1271 1 11.399999999999999 36.099999999999994 39.89999999999999 0 0 0
1272 1 13.299999999999997 34.2 39.89999999999999 0 0 0
1273 1 13.299999999999997 36.099999999999994 38 0 0 0
1274 2 11.399999999999999 34.2 41.8 0 0 0
1275 1 11.399999999999999 36.099999999999994 43.7 0 0 0
1276 3 13.299999999999997 34.2 43.7 0 0 0
1277 1 13.299999999999997 36.099999999999994 41.8 0 0 0
1278 1 11.399999999999999 34.2 45.599999999999994 0 0 0
1281 1 13.299999999999997 36.099999999999994 45.599999999999994 0 0 0
1313 2 13.299999999999997 38 13.299999999999997 0 0 0
1314 3 11.399999999999999 38 15.200000000000001 0 0 0
1315 1 11.399999999999999 39.89999999999999 17.1 0 0 0
1316 1 13.299999999999997 38 17.1 0 0 0
1317 1 13.299999999999997 39.89999999999999 15.200000000000001 0 0 0
1318 3 11.399999999999999 38 19 0 0 0
1319 1 11.399999999999999 39.89999999999999 20.9 0 0 0
1320 2 13.299999999999997 38 20.9 0 0 0
1321 3 13.299999999999997 39.89999999999999 19 0 0 0
1322 1 11.399999999999999 38 22.799999999999997 0 0 0
1323 1 11.399999999999999 39.89999999999999 24.7 0 0 0
1324 2 13.299999999999997 38 24.7 0 0 0
1325 1 13.299999999999997 39.89999999999999 22.799999999999997 0 0 0
1326 1 11.399999999999999 38 26.599999999999998 0 0 0
1327 2 11.399999999999999 39.89999999999999 28.5 0 0 0
1328 3 13.299999999999997 38 28.5 0 0 0
1329 3 13.299999999999997 39.89999999999999 26.599999999999998 0 0 0
1330 1 11.399999999999999 38 30.400000000000002 0 0 0
1331 2 11.399999999999999 39.89999999999999 32.3 0 0 0
1332 1 13.299999999999997 38 32.3 0 0 0
1333 3 13.299999999999997 39.89999999999999 30.400000000000002 0 0 0
1334 1 11.399999999999999 38 34.2 0 0 0
1335 1 11.399999999999999 39.89999999999999 36.099999999999994 0 0 0
1336 2 13.299999999999997 38 36.099999999999994 0 0 0
1337 3 13.299999999999997 39.89999999999999 34.2 0 0 0
1338 1 11.399999999999999 38 38 0 0 0
1339 1 11.399999999999999 39.89999999999999 39.89999999999999 0 0 0
1340 1 13.299999999999997 38 39.89999999999999 0 0 0
1341 3 13.299999999999997 39.89999999999999 38 0 0 0
1342 1 11.399999999999999 38 41.8 0 0 0
1343 3 11.399999999999999 39.89999999999999 43.7 0 0 0
1344 1 13.299999999999997 38 43.7 0 0 0
1345 2 13.299999999999997 39.89999999999999 41.8 0 0 0
1346 1 11.399999999999999 38 45.599999999999994 0 0 0
1349 1 13.299999999999997 39.89999999999999 45.599999999999994 0 0 0
1381 1 13.299999999999997 41.8 13.299999999999997 0 0 0
1382 2 11.399999999999999 41.8 15.200000000000001 0 0 0
1383 1 11.399999999999999 43.7 17.1 0 0 0
1384 2 13.299999999999997 41.8 17.1 0 0 0
1385 2 13.299999999999997 43.7 15.200000000000001 0 0 0
1386 1 11.399999999999999 41.8 19 0 0 0
1387 3 11.399999999999999 43.7 20.9 0 0 0
1388 3 13.299999999999997 41.8 20.9 0 0 0
1389 2 13.299999999999997 43.7 19 0 0 0
1390 3 11.399999999999999 41.8 22.799999999999997 0 0 0
1391 1 11.399999999999999 43.7 24.7 0 0 0
1392 3 13.299999999999997 41.8 24.7 0 0 0
1393 1 13.299999999999997 43.7 22.799999999999997 0 0 0
1394 1 11.399999999999999 41.8 26.599999999999998 0 0 0
1395 1 11.399999999999999 43.7 28.5 0 0 0
1396 1 13.299999999999997 41.8 28.5 0 0 0
1397 2 13.299999999999997 43.7 26.599999999999998 0 0 0
1398 1 11.399999999999999 41.8 30.400000000000002 0 0 0
1399 1 11.399999999999999 43.7 32.3 0 0 0
1400 1 13.299999999999997 41.8 32.3 0 0 0
1401 3 13.299999999999997 43.7 30.400000000000002 0 0 0
1402 1 11.399999999999999 41.8 34.2 0 0 0
1403 2 11.399999999999999 43.7 36.099999999999994 0 0 0
1404 3 13.299999999999997 41.8 36.099999999999994 0 0 0
1405 1 13.299999999999997 43.7 34.2 0 0 0
1406 1 11.399999999999999 41.8 38 0 0 0
1407 1 11.399999999999999 43.7 39.89999999999999 0 0 0
1408 1 13.299999999999997 41.8 39.89999999999999 0 0 0
1409 1 13.299999999999997 43.7 38 0 0 0
1410 1 11.399999999999999 41.8 41.8 0 0 0
1411 1 11.399999999999999 43.7 43.7 0 0 0
1412 1 13.299999999999997 41.8 43.7 0 0 0
1413 2 13.299999999999997 43.7 41.8 0 0 0
1414 1 11.399999999999999 41.8 45.599999999999994 0 0 0
1417 2 13.299999999999997 43.7 45.599999999999994 0 0 0
1449 1 13.299999999999997 45.599999999999994 13.299999999999997 0 0 0
1450 3 11.399999999999999 45.599999999999994 15.200000000000001 0 0 0
1452 2 13.299999999999997 45.599999999999994 17.1 0 0 0
1454 1 11.399999999999999 45.599999999999994 19 0 0 0
1456 1 13.299999999999997 45.599999999999994 20.9 0 0 0
1458 1 11.399999999999999 45.599999999999994 22.799999999999997 0 0 0
1460 3 13.299999999999997 45.599999999999994 24.7 0 0 0
1462 1 11.399999999999999 45.599999999999994 26.599999999999998 0 0 0
1464 2 13.299999999999997 45.599999999999994 28.5 0 0 0
1466 1 11.399999999999999 45.599999999999994 30.400000000000002 0 0 0
1468 1 13.299999999999997 45.599999999999994 32.3 0 0 0
1470 1 11.399999999999999 45.599999999999994 34.2 0 0 0
1472 1 13.299999999999997 45.599999999999994 36.099999999999994 0 0 0
1474 1 11.399999999999999 45.599999999999994 38 0 0 0
1476 1 13.299999999999997 45.599999999999994 39.89999999999999 0 0 0
1478 1 11.399999999999999 45.599999999999994 41.8 0 0 0
1480 1 13.299999999999997 45.599999999999994 43.7 0 0 0
1482 1 11.399999999999999 45.599999999999994 45.599999999999994 0 0 0
2045 1 15.200000000000001 13.299999999999997 13.299999999999997 0 0 0
2046 1 15.200000000000001 11.399999999999999 15.200000000000001 0 0 0
2047 1 15.200000000000001 13.299999999999997 17.1 0 0 0
2048 2 17.1 11.399999999999999 17.1 0 0 0
2049 1 17.1 13.299999999999997 15.200000000000001 0 0 0
2050 2 15.200000000000001 11.399999999999999 19 0 0 0
2051 1 15.200000000000001 13.299999999999997 20.9 0 0 0
2052 1 17.1 11.399999999999999 20.9 0 0 0
2053 1 17.1 13.299999999999997 19 0 0 0
2054 2 15.200000000000001 11.399999999999999 22.799999999999997 0 0 0
2055 1 15.200000000000001 13.299999999999997 24.7 0 0 0
2056 3 17.1 11.399999999999999 24.7 0 0 0
2057 1 17.1 13.299999999999997 22.799999999999997 0 0 0
2058 3 15.200000000000001 11.399999999999999 26.599999999999998 0 0 0
2059 1 15.200000000000001 13.299999999999997 28.5 0 0 0
2060 2 17.1 11.399999999999999 28.5 0 0 0
2061 1 17.1 13.299999999999997 26.599999999999998 0 0 0
2062 1 15.200000000000001 11.399999999999999 30.400000000000002 0 0 0
2063 1 15.200000000000001 13.299999999999997 32.3 0 0 0
2064 1 17.1 11.399999999999999 32.3 0 0 0
2065 1 17.1 13.299999999999997 30.400000000000002 0 0 0
2066 1 15.200000000000001 11.399999999999999 34.2 0 0 0
2067 2 15.200000000000001 13.299999999999997 36.099999999999994 0 0 0
2068 3 17.1 11.399999999999999 36.099999999999994 0 0 0
2069 1 17.1 13.299999999999997 34.2 0 0 0
2070 3 15.200000000000001 11.399999999999999 38 0 0 0
2071 2 15.200000000000001 13.299999999999997 39.89999999999999 0 0 0
2072 1 17.1 11.399999999999999 39.89999999999999 0 0 0
2073 1 17.1 13.299999999999997 38 0 0 0
2074 2 15.200000000000001 11.399999999999999 41.8 0 0 0
2075 1 15.200000000000001 13.299999999999997 43.7 0 0 0
2076 3 17.1 11.399999999999999 43.7 0 0 0
2077 1 17.1 13.299999999999997 41.8 0 0 0
2078 1 15.200000000000001 11.399999999999999 45.599999999999994 0 0 0
2081 1 17.1 13.299999999999997 45.599999999999994 0 0 0
2113 1 15.200000000000001 15.200000000000001 11.399999999999999 0 0 0
2114 1 15.200000000000001 17.1 13.299999999999997 0 0 0
2115 3 17.1 15.200000000000001 13.299999999999997 0 0 0
2116 1 17.1 17.1 11.399999999999999 0 0 0
2117 1 15.200000000000001 15.200000000000001 15.200000000000001 0 0 0
2118 1 15.200000000000001 17.1 17.1 0 0 0