model_files/CuNi/CuNi_30000/CuNi_411/CuNi_411_fcc_29957_temp.data (written by ASE) 

29957 	 atoms 
2  atom types
0.0                      87  xlo xhi
0.0                      87  ylo yhi
0.0                      87  zlo zhi


Atoms 

     1   1      1.7830000000000013      37.443000000000005      42.792000000000002
     2   1      1.7830000000000013      39.225999999999999                  41.009
     3   1      1.7830000000000013                  41.009      39.225999999999999
     4   1      1.7830000000000013      39.225999999999999      44.575000000000003
     5   1      1.7830000000000013                  41.009      42.792000000000002
     6   1      1.7830000000000013                  41.009      46.358000000000004
     7   1      1.7830000000000013      42.792000000000002      37.443000000000005
     8   1      1.7830000000000013      42.792000000000002                  41.009
     9   1      1.7830000000000013      44.575000000000003      39.225999999999999
    10   1                       0      42.792000000000002      42.792000000000002
    11   1      1.7830000000000013      42.792000000000002      44.575000000000003
    12   1      1.7830000000000013      44.575000000000003      42.792000000000002
    13   1      1.7830000000000013      42.792000000000002      48.141000000000005
    14   1      1.7830000000000013      44.575000000000003      46.358000000000004
    15   1      1.7830000000000013      46.358000000000004                  41.009
    16   1      1.7830000000000013      46.358000000000004      44.575000000000003
    17   1      1.7830000000000013      48.141000000000005      42.792000000000002
    18   1      5.3489999999999966      23.179000000000002      42.792000000000002
    19   1      5.3489999999999966      24.961999999999996                  41.009
    20   1      5.3489999999999966      26.745000000000001      39.225999999999999
    21   1      5.3489999999999966      24.961999999999996      44.575000000000003
    22   1      5.3489999999999966      26.745000000000001      42.792000000000002
    23   1      5.3489999999999966      26.745000000000001      46.358000000000004
    24   1      5.3489999999999966      28.527999999999995      37.443000000000005
    25   1      5.3489999999999966                  30.311      35.660000000000004
    26   1      3.5659999999999954                  30.311                  41.009
    27   1      5.3489999999999966      28.527999999999995                  41.009
    28   1      5.3489999999999966                  30.311      39.225999999999999
    29   1      3.5659999999999954      28.527999999999995      42.792000000000002
    30   1      3.5659999999999954                  30.311      44.575000000000003
    31   1      5.3489999999999966      28.527999999999995      44.575000000000003
    32   1      5.3489999999999966                  30.311      42.792000000000002
    33   1      5.3489999999999966      28.527999999999995      48.141000000000005
    34   1      5.3489999999999966                  30.311      46.358000000000004
    35   1      5.3489999999999966                  30.311      49.923999999999992
    36   1      5.3489999999999966      32.094000000000001      33.877000000000002
    37   1      5.3489999999999966      33.877000000000002      32.094000000000001
    38   1      3.5659999999999954      33.877000000000002      37.443000000000005
    39   1      5.3489999999999966      32.094000000000001      37.443000000000005
    40   1      5.3489999999999966      33.877000000000002      35.660000000000004
    41   1      3.5659999999999954      32.094000000000001      39.225999999999999
    42   1      3.5659999999999954      33.877000000000002                  41.009
    43   1      5.3489999999999966      32.094000000000001                  41.009
    44   1      5.3489999999999966      33.877000000000002      39.225999999999999
    45   1      3.5659999999999954      32.094000000000001      42.792000000000002
    46   1      3.5659999999999954      33.877000000000002      44.575000000000003
    47   1      5.3489999999999966      32.094000000000001      44.575000000000003
    48   1      5.3489999999999966      33.877000000000002      42.792000000000002
    49   1      3.5659999999999954      32.094000000000001      46.358000000000004
    50   1      3.5659999999999954      33.877000000000002      48.141000000000005
    51   1      5.3489999999999966      32.094000000000001      48.141000000000005
    52   1      5.3489999999999966      33.877000000000002      46.358000000000004
    53   1      5.3489999999999966      32.094000000000001      51.707000000000001
    54   1      5.3489999999999966      33.877000000000002      49.923999999999992
    55   1      5.3489999999999966      33.877000000000002      53.490000000000002
    56   1      5.3489999999999966      35.660000000000004                  30.311
    57   1      5.3489999999999966      37.443000000000005      28.527999999999995
    58   1      3.5659999999999954      37.443000000000005      33.877000000000002
    59   1      5.3489999999999966      35.660000000000004      33.877000000000002
    60   1      5.3489999999999966      37.443000000000005      32.094000000000001
    61   1      3.5659999999999954      35.660000000000004      35.660000000000004
    62   1      3.5659999999999954      37.443000000000005      37.443000000000005
    63   1      5.3489999999999966      35.660000000000004      37.443000000000005
    64   1      5.3489999999999966      37.443000000000005      35.660000000000004
    65   1      3.5659999999999954      35.660000000000004      39.225999999999999
    66   1      3.5659999999999954      37.443000000000005                  41.009
    67   1      5.3489999999999966      35.660000000000004                  41.009
    68   1      5.3489999999999966      37.443000000000005      39.225999999999999
    69   1      3.5659999999999954      35.660000000000004      42.792000000000002
    70   1      3.5659999999999954      37.443000000000005      44.575000000000003
    71   1      5.3489999999999966      35.660000000000004      44.575000000000003
    72   1      5.3489999999999966      37.443000000000005      42.792000000000002
    73   1      3.5659999999999954      35.660000000000004      46.358000000000004
    74   1      3.5659999999999954      37.443000000000005      48.141000000000005
    75   1      5.3489999999999966      35.660000000000004      48.141000000000005
    76   1      5.3489999999999966      37.443000000000005      46.358000000000004
    77   1      3.5659999999999954      35.660000000000004      49.923999999999992
    78   1      3.5659999999999954      37.443000000000005      51.707000000000001
    79   1      5.3489999999999966      35.660000000000004      51.707000000000001
    80   1      5.3489999999999966      37.443000000000005      49.923999999999992
    81   1      5.3489999999999966      35.660000000000004      55.273000000000003
    82   1      5.3489999999999966      37.443000000000005      53.490000000000002
    83   1      5.3489999999999966      37.443000000000005      57.056000000000004
    84   1      5.3489999999999966      39.225999999999999      26.745000000000001
    85   1      5.3489999999999966                  41.009      24.961999999999996
    86   1      3.5659999999999954                  41.009                  30.311
    87   1      5.3489999999999966      39.225999999999999                  30.311
    88   1      5.3489999999999966                  41.009      28.527999999999995
    89   1      3.5659999999999954      39.225999999999999      32.094000000000001
    90   1      3.5659999999999954                  41.009      33.877000000000002
    91   1      5.3489999999999966      39.225999999999999      33.877000000000002
    92   1      5.3489999999999966                  41.009      32.094000000000001
    93   1      3.5659999999999954      39.225999999999999      35.660000000000004
    94   1      3.5659999999999954                  41.009      37.443000000000005
    95   1      5.3489999999999966      39.225999999999999      37.443000000000005
    96   1      5.3489999999999966                  41.009      35.660000000000004
    97   1      3.5659999999999954      39.225999999999999      39.225999999999999
    98   1      3.5659999999999954                  41.009                  41.009
    99   1      5.3489999999999966      39.225999999999999                  41.009
   100   1      5.3489999999999966                  41.009      39.225999999999999
   101   1      3.5659999999999954      39.225999999999999      42.792000000000002
   102   1      3.5659999999999954                  41.009      44.575000000000003
   103   1      5.3489999999999966      39.225999999999999      44.575000000000003
   104   1      5.3489999999999966                  41.009      42.792000000000002
   105   1      3.5659999999999954      39.225999999999999      46.358000000000004
   106   1      3.5659999999999954                  41.009      48.141000000000005
   107   1      5.3489999999999966      39.225999999999999      48.141000000000005
   108   1      5.3489999999999966                  41.009      46.358000000000004
   109   1      3.5659999999999954      39.225999999999999      49.923999999999992
   110   1      3.5659999999999954                  41.009      51.707000000000001
   111   1      5.3489999999999966      39.225999999999999      51.707000000000001
   112   1      5.3489999999999966                  41.009      49.923999999999992
   113   1      3.5659999999999954      39.225999999999999      53.490000000000002
   114   1      3.5659999999999954                  41.009      55.273000000000003
   115   1      5.3489999999999966      39.225999999999999      55.273000000000003
   116   1      5.3489999999999966                  41.009      53.490000000000002
   117   1      5.3489999999999966      39.225999999999999      58.838999999999999
   118   1      5.3489999999999966                  41.009      57.056000000000004
   119   1      5.3489999999999966                  41.009                  60.622
   120   1      5.3489999999999966      42.792000000000002      23.179000000000002
   121   1      5.3489999999999966      42.792000000000002      26.745000000000001
   122   1      5.3489999999999966      44.575000000000003      24.961999999999996
   123   1      3.5659999999999954      42.792000000000002      28.527999999999995
   124   1      3.5659999999999954      44.575000000000003                  30.311
   125   1      5.3489999999999966      42.792000000000002                  30.311
   126   1      5.3489999999999966      44.575000000000003      28.527999999999995
   127   1      3.5659999999999954      42.792000000000002      32.094000000000001
   128   1      3.5659999999999954      44.575000000000003      33.877000000000002
   129   1      5.3489999999999966      42.792000000000002      33.877000000000002
   130   1      5.3489999999999966      44.575000000000003      32.094000000000001
   131   1      3.5659999999999954      42.792000000000002      35.660000000000004
   132   1      3.5659999999999954      44.575000000000003      37.443000000000005
   133   1      5.3489999999999966      42.792000000000002      37.443000000000005
   134   1      5.3489999999999966      44.575000000000003      35.660000000000004
   135   1      3.5659999999999954      42.792000000000002      39.225999999999999
   136   1      3.5659999999999954      44.575000000000003                  41.009
   137   1      5.3489999999999966      42.792000000000002                  41.009
   138   1      5.3489999999999966      44.575000000000003      39.225999999999999
   139   1      3.5659999999999954      42.792000000000002      42.792000000000002
   140   1      3.5659999999999954      44.575000000000003      44.575000000000003
   141   1      5.3489999999999966      42.792000000000002      44.575000000000003
   142   1      5.3489999999999966      44.575000000000003      42.792000000000002
   143   1      3.5659999999999954      42.792000000000002      46.358000000000004
   144   1      3.5659999999999954      44.575000000000003      48.141000000000005
   145   1      5.3489999999999966      42.792000000000002      48.141000000000005
   146   1      5.3489999999999966      44.575000000000003      46.358000000000004
   147   1      3.5659999999999954      42.792000000000002      49.923999999999992
   148   1      3.5659999999999954      44.575000000000003      51.707000000000001
   149   1      5.3489999999999966      42.792000000000002      51.707000000000001
   150   1      5.3489999999999966      44.575000000000003      49.923999999999992
   151   1      3.5659999999999954      42.792000000000002      53.490000000000002
   152   1      3.5659999999999954      44.575000000000003      55.273000000000003
   153   1      5.3489999999999966      42.792000000000002      55.273000000000003
   154   1      5.3489999999999966      44.575000000000003      53.490000000000002
   155   1      3.5659999999999954      42.792000000000002      57.056000000000004
   156   1      5.3489999999999966      42.792000000000002      58.838999999999999
   157   1      5.3489999999999966      44.575000000000003      57.056000000000004
   158   1      5.3489999999999966      42.792000000000002      62.405000000000001
   159   1      5.3489999999999966      44.575000000000003                  60.622
   160   1      5.3489999999999966      46.358000000000004      26.745000000000001
   161   1      5.3489999999999966      46.358000000000004                  30.311
   162   1      5.3489999999999966      48.141000000000005      28.527999999999995
   163   1      3.5659999999999954      46.358000000000004      32.094000000000001
   164   1      3.5659999999999954      48.141000000000005      33.877000000000002
   165   1      5.3489999999999966      46.358000000000004      33.877000000000002
   166   1      5.3489999999999966      48.141000000000005      32.094000000000001
   167   1      3.5659999999999954      46.358000000000004      35.660000000000004
   168   1      3.5659999999999954      48.141000000000005      37.443000000000005
   169   1      5.3489999999999966      46.358000000000004      37.443000000000005
   170   1      5.3489999999999966      48.141000000000005      35.660000000000004
   171   1      3.5659999999999954      46.358000000000004      39.225999999999999
   172   1      3.5659999999999954      48.141000000000005                  41.009
   173   1      5.3489999999999966      46.358000000000004                  41.009
   174   1      5.3489999999999966      48.141000000000005      39.225999999999999
   175   1      3.5659999999999954      46.358000000000004      42.792000000000002
   176   1      3.5659999999999954      48.141000000000005      44.575000000000003
   177   1      5.3489999999999966      46.358000000000004      44.575000000000003
   178   1      5.3489999999999966      48.141000000000005      42.792000000000002
   179   1      3.5659999999999954      46.358000000000004      46.358000000000004
   180   1      3.5659999999999954      48.141000000000005      48.141000000000005
   181   1      5.3489999999999966      46.358000000000004      48.141000000000005
   182   1      5.3489999999999966      48.141000000000005      46.358000000000004
   183   1      3.5659999999999954      46.358000000000004      49.923999999999992
   184   1      3.5659999999999954      48.141000000000005      51.707000000000001
   185   1      5.3489999999999966      46.358000000000004      51.707000000000001
   186   1      5.3489999999999966      48.141000000000005      49.923999999999992
   187   1      3.5659999999999954      46.358000000000004      53.490000000000002
   188   1      5.3489999999999966      46.358000000000004      55.273000000000003
   189   1      5.3489999999999966      48.141000000000005      53.490000000000002
   190   1      5.3489999999999966      46.358000000000004      58.838999999999999
   191   1      5.3489999999999966      48.141000000000005      57.056000000000004
   192   1      5.3489999999999966      49.923999999999992                  30.311
   193   1      5.3489999999999966      49.923999999999992      33.877000000000002
   194   1      5.3489999999999966      51.707000000000001      32.094000000000001
   195   1      3.5659999999999954      49.923999999999992      35.660000000000004
   196   1      3.5659999999999954      51.707000000000001      37.443000000000005
   197   1      5.3489999999999966      49.923999999999992      37.443000000000005
   198   1      5.3489999999999966      51.707000000000001      35.660000000000004
   199   1      3.5659999999999954      49.923999999999992      39.225999999999999
   200   1      3.5659999999999954      51.707000000000001                  41.009
   201   1      5.3489999999999966      49.923999999999992                  41.009
   202   1      5.3489999999999966      51.707000000000001      39.225999999999999
   203   1      3.5659999999999954      49.923999999999992      42.792000000000002
   204   1      3.5659999999999954      51.707000000000001      44.575000000000003
   205   1      5.3489999999999966      49.923999999999992      44.575000000000003
   206   1      5.3489999999999966      51.707000000000001      42.792000000000002
   207   1      3.5659999999999954      49.923999999999992      46.358000000000004
   208   1      3.5659999999999954      51.707000000000001      48.141000000000005
   209   1      5.3489999999999966      49.923999999999992      48.141000000000005
   210   1      5.3489999999999966      51.707000000000001      46.358000000000004
   211   1      3.5659999999999954      49.923999999999992      49.923999999999992
   212   1      5.3489999999999966      49.923999999999992      51.707000000000001
   213   1      5.3489999999999966      51.707000000000001      49.923999999999992
   214   1      5.3489999999999966      49.923999999999992      55.273000000000003
   215   1      5.3489999999999966      51.707000000000001      53.490000000000002
   216   1      5.3489999999999966      53.490000000000002      33.877000000000002
   217   1      5.3489999999999966      53.490000000000002      37.443000000000005
   218   1      5.3489999999999966      55.273000000000003      35.660000000000004
   219   1      3.5659999999999954      53.490000000000002      39.225999999999999
   220   1      3.5659999999999954      55.273000000000003                  41.009
   221   1      5.3489999999999966      53.490000000000002                  41.009
   222   1      5.3489999999999966      55.273000000000003      39.225999999999999
   223   1      3.5659999999999954      53.490000000000002      42.792000000000002
   224   1      3.5659999999999954      55.273000000000003      44.575000000000003
   225   1      5.3489999999999966      53.490000000000002      44.575000000000003
   226   1      5.3489999999999966      55.273000000000003      42.792000000000002
   227   1      3.5659999999999954      53.490000000000002      46.358000000000004
   228   1      5.3489999999999966      53.490000000000002      48.141000000000005
   229   1      5.3489999999999966      55.273000000000003      46.358000000000004
   230   1      5.3489999999999966      53.490000000000002      51.707000000000001
   231   1      5.3489999999999966      55.273000000000003      49.923999999999992
   232   1      5.3489999999999966      57.056000000000004      37.443000000000005
   233   1      5.3489999999999966      57.056000000000004                  41.009
   234   1      5.3489999999999966      58.838999999999999      39.225999999999999
   235   1      3.5659999999999954      57.056000000000004      42.792000000000002
   236   1      5.3489999999999966      57.056000000000004      44.575000000000003
   237   1      5.3489999999999966      58.838999999999999      42.792000000000002
   238   1      5.3489999999999966      57.056000000000004      48.141000000000005
   239   1      5.3489999999999966      58.838999999999999      46.358000000000004
   240   1      5.3489999999999966                  60.622                  41.009
   241   1      5.3489999999999966                  60.622      44.575000000000003
   242   1      5.3489999999999966      62.405000000000001      42.792000000000002
   243   1      8.9149999999999991      8.9149999999999991      42.792000000000002
   244   1      8.9149999999999991                  10.698                  41.009
   245   1      8.9149999999999991      12.480999999999998      39.225999999999999
   246   1      8.9149999999999991                  10.698      44.575000000000003
   247   1      8.9149999999999991      12.480999999999998      42.792000000000002
   248   1      8.9149999999999991      12.480999999999998      46.358000000000004
   249   1      8.9149999999999991      14.263999999999998      37.443000000000005
   250   1      8.9149999999999991      16.047000000000001      35.660000000000004
   251   1      7.1319999999999979      16.047000000000001                  41.009
   252   1      8.9149999999999991      14.263999999999998                  41.009
   253   1      8.9149999999999991      16.047000000000001      39.225999999999999
   254   1      7.1319999999999979      14.263999999999998      42.792000000000002
   255   1      7.1319999999999979      16.047000000000001      44.575000000000003
   256   1      8.9149999999999991      14.263999999999998      44.575000000000003
   257   1      8.9149999999999991      16.047000000000001      42.792000000000002
   258   1      8.9149999999999991      14.263999999999998      48.141000000000005
   259   1      8.9149999999999991      16.047000000000001      46.358000000000004
   260   1      8.9149999999999991      16.047000000000001      49.923999999999992
   261   1      8.9149999999999991      17.829999999999998      33.877000000000002
   262   1      8.9149999999999991                  19.613      32.094000000000001
   263   1      7.1319999999999979                  19.613      37.443000000000005
   264   1      8.9149999999999991      17.829999999999998      37.443000000000005
   265   1      8.9149999999999991                  19.613      35.660000000000004
   266   1      7.1319999999999979      17.829999999999998      39.225999999999999
   267   1      7.1319999999999979                  19.613                  41.009
   268   1      8.9149999999999991      17.829999999999998                  41.009
   269   1      8.9149999999999991                  19.613      39.225999999999999
   270   1      7.1319999999999979      17.829999999999998      42.792000000000002
   271   1      7.1319999999999979                  19.613      44.575000000000003
   272   1      8.9149999999999991      17.829999999999998      44.575000000000003
   273   1      8.9149999999999991                  19.613      42.792000000000002
   274   1      7.1319999999999979      17.829999999999998      46.358000000000004
   275   1      7.1319999999999979                  19.613      48.141000000000005
   276   1      8.9149999999999991      17.829999999999998      48.141000000000005
   277   1      8.9149999999999991                  19.613      46.358000000000004
   278   1      8.9149999999999991      17.829999999999998      51.707000000000001
   279   1      8.9149999999999991                  19.613      49.923999999999992
   280   1      8.9149999999999991                  19.613      53.490000000000002
   281   1      8.9149999999999991      21.396000000000001                  30.311
   282   1      8.9149999999999991      23.179000000000002      28.527999999999995
   283   1      7.1319999999999979      23.179000000000002      33.877000000000002
   284   1      8.9149999999999991      21.396000000000001      33.877000000000002
   285   1      8.9149999999999991      23.179000000000002      32.094000000000001
   286   1      7.1319999999999979      21.396000000000001      35.660000000000004
   287   1      7.1319999999999979      23.179000000000002      37.443000000000005
   288   1      8.9149999999999991      21.396000000000001      37.443000000000005
   289   1      8.9149999999999991      23.179000000000002      35.660000000000004
   290   1      7.1319999999999979      21.396000000000001      39.225999999999999
   291   1      7.1319999999999979      23.179000000000002                  41.009
   292   1      8.9149999999999991      21.396000000000001                  41.009
   293   1      8.9149999999999991      23.179000000000002      39.225999999999999
   294   1      7.1319999999999979      21.396000000000001      42.792000000000002
   295   1      7.1319999999999979      23.179000000000002      44.575000000000003
   296   1      8.9149999999999991      21.396000000000001      44.575000000000003
   297   1      8.9149999999999991      23.179000000000002      42.792000000000002
   298   1      7.1319999999999979      21.396000000000001      46.358000000000004
   299   1      7.1319999999999979      23.179000000000002      48.141000000000005
   300   1      8.9149999999999991      21.396000000000001      48.141000000000005
   301   1      8.9149999999999991      23.179000000000002      46.358000000000004
   302   1      7.1319999999999979      21.396000000000001      49.923999999999992
   303   1      7.1319999999999979      23.179000000000002      51.707000000000001
   304   1      8.9149999999999991      21.396000000000001      51.707000000000001
   305   1      8.9149999999999991      23.179000000000002      49.923999999999992
   306   1      8.9149999999999991      21.396000000000001      55.273000000000003
   307   1      8.9149999999999991      23.179000000000002      53.490000000000002
   308   1      8.9149999999999991      23.179000000000002      57.056000000000004
   309   1      8.9149999999999991      24.961999999999996      26.745000000000001
   310   1      8.9149999999999991      26.745000000000001      24.961999999999996
   311   1      7.1319999999999979      26.745000000000001                  30.311
   312   1      8.9149999999999991      24.961999999999996                  30.311
   313   1      8.9149999999999991      26.745000000000001      28.527999999999995
   314   1      7.1319999999999979      24.961999999999996      32.094000000000001
   315   1      7.1319999999999979      26.745000000000001      33.877000000000002
   316   1      8.9149999999999991      24.961999999999996      33.877000000000002
   317   1      8.9149999999999991      26.745000000000001      32.094000000000001
   318   1      7.1319999999999979      24.961999999999996      35.660000000000004
   319   1      7.1319999999999979      26.745000000000001      37.443000000000005
   320   1      8.9149999999999991      24.961999999999996      37.443000000000005
   321   1      8.9149999999999991      26.745000000000001      35.660000000000004
   322   1      7.1319999999999979      24.961999999999996      39.225999999999999
   323   1      7.1319999999999979      26.745000000000001                  41.009
   324   1      8.9149999999999991      24.961999999999996                  41.009
   325   1      8.9149999999999991      26.745000000000001      39.225999999999999
   326   1      7.1319999999999979      24.961999999999996      42.792000000000002
   327   1      7.1319999999999979      26.745000000000001      44.575000000000003
   328   1      8.9149999999999991      24.961999999999996      44.575000000000003
   329   1      8.9149999999999991      26.745000000000001      42.792000000000002
   330   1      7.1319999999999979      24.961999999999996      46.358000000000004
   331   1      7.1319999999999979      26.745000000000001      48.141000000000005
   332   1      8.9149999999999991      24.961999999999996      48.141000000000005
   333   1      8.9149999999999991      26.745000000000001      46.358000000000004
   334   1      7.1319999999999979      24.961999999999996      49.923999999999992
   335   1      7.1319999999999979      26.745000000000001      51.707000000000001
   336   1      8.9149999999999991      24.961999999999996      51.707000000000001
   337   1      8.9149999999999991      26.745000000000001      49.923999999999992
   338   1      7.1319999999999979      24.961999999999996      53.490000000000002
   339   1      7.1319999999999979      26.745000000000001      55.273000000000003
   340   1      8.9149999999999991      24.961999999999996      55.273000000000003
   341   1      8.9149999999999991      26.745000000000001      53.490000000000002
   342   1      8.9149999999999991      24.961999999999996      58.838999999999999
   343   1      8.9149999999999991      26.745000000000001      57.056000000000004
   344   1      8.9149999999999991      26.745000000000001                  60.622
   345   1      8.9149999999999991      28.527999999999995      23.179000000000002
   346   1      8.9149999999999991                  30.311      21.396000000000001
   347   1      7.1319999999999979                  30.311      26.745000000000001
   348   1      8.9149999999999991      28.527999999999995      26.745000000000001
   349   1      8.9149999999999991                  30.311      24.961999999999996
   350   1      7.1319999999999979      28.527999999999995      28.527999999999995
   351   1      7.1319999999999979                  30.311                  30.311
   352   1      8.9149999999999991      28.527999999999995                  30.311
   353   1      8.9149999999999991                  30.311      28.527999999999995
   354   1      7.1319999999999979      28.527999999999995      32.094000000000001
   355   1      7.1319999999999979                  30.311      33.877000000000002
   356   1      8.9149999999999991      28.527999999999995      33.877000000000002
   357   1      8.9149999999999991                  30.311      32.094000000000001
   358   1      7.1319999999999979      28.527999999999995      35.660000000000004