model_files/PdNi/PdNi_30000/PdNi_221/PdNi_221_fcc_29329_temp.data (written by ASE) 

29329 	 atoms 
2  atom types
0.0                     121  xlo xhi
0.0                     121  ylo yhi
0.0                     121  zlo zhi


Atoms 

     1   1      1.8624999999999901       57.73749999999999      59.599999999999994
     2   1      1.8624999999999901      59.599999999999994       57.73749999999999
     3   1      120.99999999999999      59.599999999999994      59.599999999999994
     4   1      1.8624999999999901      59.599999999999994      61.462499999999999
     5   1      1.8624999999999901      61.462499999999999      59.599999999999994
     6   1      5.5874999999999915      54.012499999999989      55.874999999999993
     7   1      5.5874999999999915      54.012499999999989      59.599999999999994
     8   1      5.5874999999999915      54.012499999999989      63.324999999999996
     9   1      5.5874999999999915      55.874999999999993      54.012499999999989
    10   1      3.7249999999999948      55.874999999999993      55.874999999999993
    11   1      3.7249999999999948       57.73749999999999       57.73749999999999
    12   1      5.5874999999999915      55.874999999999993       57.73749999999999
    13   1      5.5874999999999915       57.73749999999999      55.874999999999993
    14   1      3.7249999999999948      55.874999999999993      59.599999999999994
    15   1      3.7249999999999948       57.73749999999999      61.462499999999999
    16   1      5.5874999999999915      55.874999999999993      61.462499999999999
    17   1      5.5874999999999915       57.73749999999999      59.599999999999994
    18   1      3.7249999999999948      55.874999999999993      63.324999999999996
    19   1      5.5874999999999915      55.874999999999993      65.187499999999986
    20   1      5.5874999999999915       57.73749999999999      63.324999999999996
    21   1      5.5874999999999915      59.599999999999994      54.012499999999989
    22   1      3.7249999999999948      59.599999999999994      55.874999999999993
    23   1      3.7249999999999948      61.462499999999999       57.73749999999999
    24   1      5.5874999999999915      59.599999999999994       57.73749999999999
    25   1      5.5874999999999915      61.462499999999999      55.874999999999993
    26   1      3.7249999999999948      59.599999999999994      59.599999999999994
    27   1      3.7249999999999948      61.462499999999999      61.462499999999999
    28   1      5.5874999999999915      59.599999999999994      61.462499999999999
    29   1      5.5874999999999915      61.462499999999999      59.599999999999994
    30   1      3.7249999999999948      59.599999999999994      63.324999999999996
    31   1      5.5874999999999915      59.599999999999994      65.187499999999986
    32   1      5.5874999999999915      61.462499999999999      63.324999999999996
    33   1      5.5874999999999915      63.324999999999996      54.012499999999989
    34   1      3.7249999999999948      63.324999999999996      55.874999999999993
    35   1      5.5874999999999915      63.324999999999996       57.73749999999999
    36   1      5.5874999999999915      65.187499999999986      55.874999999999993
    37   1      3.7249999999999948      63.324999999999996      59.599999999999994
    38   1      5.5874999999999915      63.324999999999996      61.462499999999999
    39   1      5.5874999999999915      65.187499999999986      59.599999999999994
    40   1      3.7249999999999948      63.324999999999996      63.324999999999996
    41   1      5.5874999999999915      63.324999999999996      65.187499999999986
    42   1      5.5874999999999915      65.187499999999986      63.324999999999996
    43   1      9.3124999999999929      50.287499999999987      55.874999999999993
    44   1      9.3124999999999929      50.287499999999987      59.599999999999994
    45   1      9.3124999999999929      50.287499999999987      63.324999999999996
    46   1      7.4499999999999895      54.012499999999989      54.012499999999989
    47   1      9.3124999999999929      52.149999999999991      54.012499999999989
    48   1      9.3124999999999929      54.012499999999989      52.149999999999991
    49   1      7.4499999999999895      52.149999999999991      55.874999999999993
    50   1      7.4499999999999895      54.012499999999989       57.73749999999999
    51   1      9.3124999999999929      52.149999999999991       57.73749999999999
    52   1      9.3124999999999929      54.012499999999989      55.874999999999993
    53   1      7.4499999999999895      52.149999999999991      59.599999999999994
    54   1      7.4499999999999895      54.012499999999989      61.462499999999999
    55   1      9.3124999999999929      52.149999999999991      61.462499999999999
    56   1      9.3124999999999929      54.012499999999989      59.599999999999994
    57   1      7.4499999999999895      52.149999999999991      63.324999999999996
    58   1      7.4499999999999895      54.012499999999989      65.187499999999986
    59   1      9.3124999999999929      52.149999999999991      65.187499999999986
    60   1      9.3124999999999929      54.012499999999989      63.324999999999996
    61   1      9.3124999999999929      54.012499999999989      67.049999999999997
    62   1      9.3124999999999929      55.874999999999993      50.287499999999987
    63   1      7.4499999999999895      55.874999999999993      52.149999999999991
    64   1      7.4499999999999895       57.73749999999999      54.012499999999989
    65   1      9.3124999999999929      55.874999999999993      54.012499999999989
    66   1      9.3124999999999929       57.73749999999999      52.149999999999991
    67   1      7.4499999999999895      55.874999999999993      55.874999999999993
    68   1      7.4499999999999895       57.73749999999999       57.73749999999999
    69   1      9.3124999999999929      55.874999999999993       57.73749999999999
    70   1      9.3124999999999929       57.73749999999999      55.874999999999993
    71   1      7.4499999999999895      55.874999999999993      59.599999999999994
    72   1      7.4499999999999895       57.73749999999999      61.462499999999999
    73   1      9.3124999999999929      55.874999999999993      61.462499999999999
    74   1      9.3124999999999929       57.73749999999999      59.599999999999994
    75   1      7.4499999999999895      55.874999999999993      63.324999999999996
    76   1      7.4499999999999895       57.73749999999999      65.187499999999986
    77   1      9.3124999999999929      55.874999999999993      65.187499999999986
    78   1      9.3124999999999929       57.73749999999999      63.324999999999996
    79   1      7.4499999999999895      55.874999999999993      67.049999999999997
    80   1      9.3124999999999929      55.874999999999993      68.912499999999994
    81   1      9.3124999999999929       57.73749999999999      67.049999999999997
    82   1      9.3124999999999929      59.599999999999994      50.287499999999987
    83   1      7.4499999999999895      59.599999999999994      52.149999999999991
    84   1      7.4499999999999895      61.462499999999999      54.012499999999989
    85   1      9.3124999999999929      59.599999999999994      54.012499999999989
    86   1      9.3124999999999929      61.462499999999999      52.149999999999991
    87   1      7.4499999999999895      59.599999999999994      55.874999999999993
    88   1      7.4499999999999895      61.462499999999999       57.73749999999999
    89   1      9.3124999999999929      59.599999999999994       57.73749999999999
    90   1      9.3124999999999929      61.462499999999999      55.874999999999993
    91   1      7.4499999999999895      59.599999999999994      59.599999999999994
    92   1      7.4499999999999895      61.462499999999999      61.462499999999999
    93   1      9.3124999999999929      59.599999999999994      61.462499999999999
    94   1      9.3124999999999929      61.462499999999999      59.599999999999994
    95   1      7.4499999999999895      59.599999999999994      63.324999999999996
    96   1      7.4499999999999895      61.462499999999999      65.187499999999986
    97   1      9.3124999999999929      59.599999999999994      65.187499999999986
    98   1      9.3124999999999929      61.462499999999999      63.324999999999996
    99   1      7.4499999999999895      59.599999999999994      67.049999999999997
   100   1      9.3124999999999929      59.599999999999994      68.912499999999994
   101   1      9.3124999999999929      61.462499999999999      67.049999999999997
   102   1      9.3124999999999929      63.324999999999996      50.287499999999987
   103   1      7.4499999999999895      63.324999999999996      52.149999999999991
   104   1      7.4499999999999895      65.187499999999986      54.012499999999989
   105   1      9.3124999999999929      63.324999999999996      54.012499999999989
   106   1      9.3124999999999929      65.187499999999986      52.149999999999991
   107   1      7.4499999999999895      63.324999999999996      55.874999999999993
   108   1      7.4499999999999895      65.187499999999986       57.73749999999999
   109   1      9.3124999999999929      63.324999999999996       57.73749999999999
   110   1      9.3124999999999929      65.187499999999986      55.874999999999993
   111   1      7.4499999999999895      63.324999999999996      59.599999999999994
   112   1      7.4499999999999895      65.187499999999986      61.462499999999999
   113   1      9.3124999999999929      63.324999999999996      61.462499999999999
   114   1      9.3124999999999929      65.187499999999986      59.599999999999994
   115   1      7.4499999999999895      63.324999999999996      63.324999999999996
   116   1      7.4499999999999895      65.187499999999986      65.187499999999986
   117   1      9.3124999999999929      63.324999999999996      65.187499999999986
   118   1      9.3124999999999929      65.187499999999986      63.324999999999996
   119   1      7.4499999999999895      63.324999999999996      67.049999999999997
   120   1      9.3124999999999929      63.324999999999996      68.912499999999994
   121   1      9.3124999999999929      65.187499999999986      67.049999999999997
   122   1      9.3124999999999929      67.049999999999997      54.012499999999989
   123   1      7.4499999999999895      67.049999999999997      55.874999999999993
   124   1      9.3124999999999929      67.049999999999997       57.73749999999999
   125   1      9.3124999999999929      68.912499999999994      55.874999999999993
   126   1      7.4499999999999895      67.049999999999997      59.599999999999994
   127   1      9.3124999999999929      67.049999999999997      61.462499999999999
   128   1      9.3124999999999929      68.912499999999994      59.599999999999994
   129   1      7.4499999999999895      67.049999999999997      63.324999999999996
   130   1      9.3124999999999929      67.049999999999997      65.187499999999986
   131   1      9.3124999999999929      68.912499999999994      63.324999999999996
   132   1      13.037499999999994      46.562499999999993      55.874999999999993
   133   1      13.037499999999994      46.562499999999993      59.599999999999994
   134   1      13.037499999999994      46.562499999999993      63.324999999999996
   135   1       11.17499999999999      50.287499999999987      54.012499999999989
   136   1      13.037499999999994       48.42499999999999      54.012499999999989
   137   1      13.037499999999994      50.287499999999987      52.149999999999991
   138   1       11.17499999999999       48.42499999999999      55.874999999999993
   139   1       11.17499999999999      50.287499999999987       57.73749999999999
   140   1      13.037499999999994       48.42499999999999       57.73749999999999
   141   1      13.037499999999994      50.287499999999987      55.874999999999993
   142   1       11.17499999999999       48.42499999999999      59.599999999999994
   143   1       11.17499999999999      50.287499999999987      61.462499999999999
   144   1      13.037499999999994       48.42499999999999      61.462499999999999
   145   1      13.037499999999994      50.287499999999987      59.599999999999994
   146   1       11.17499999999999       48.42499999999999      63.324999999999996
   147   1       11.17499999999999      50.287499999999987      65.187499999999986
   148   1      13.037499999999994       48.42499999999999      65.187499999999986
   149   1      13.037499999999994      50.287499999999987      63.324999999999996
   150   1      13.037499999999994      50.287499999999987      67.049999999999997
   151   1       11.17499999999999      54.012499999999989      50.287499999999987
   152   1      13.037499999999994      52.149999999999991      50.287499999999987
   153   1      13.037499999999994      54.012499999999989       48.42499999999999
   154   1       11.17499999999999      52.149999999999991      52.149999999999991
   155   1       11.17499999999999      54.012499999999989      54.012499999999989
   156   1      13.037499999999994      52.149999999999991      54.012499999999989
   157   1      13.037499999999994      54.012499999999989      52.149999999999991
   158   1       11.17499999999999      52.149999999999991      55.874999999999993
   159   1       11.17499999999999      54.012499999999989       57.73749999999999
   160   1      13.037499999999994      52.149999999999991       57.73749999999999
   161   1      13.037499999999994      54.012499999999989      55.874999999999993
   162   1       11.17499999999999      52.149999999999991      59.599999999999994
   163   1       11.17499999999999      54.012499999999989      61.462499999999999
   164   1      13.037499999999994      52.149999999999991      61.462499999999999
   165   1      13.037499999999994      54.012499999999989      59.599999999999994
   166   1       11.17499999999999      52.149999999999991      63.324999999999996
   167   1       11.17499999999999      54.012499999999989      65.187499999999986
   168   1      13.037499999999994      52.149999999999991      65.187499999999986
   169   1      13.037499999999994      54.012499999999989      63.324999999999996
   170   1       11.17499999999999      52.149999999999991      67.049999999999997
   171   1       11.17499999999999      54.012499999999989      68.912499999999994
   172   1      13.037499999999994      52.149999999999991      68.912499999999994
   173   1      13.037499999999994      54.012499999999989      67.049999999999997
   174   1      13.037499999999994      54.012499999999989      70.775000000000006
   175   1      13.037499999999994      55.874999999999993      46.562499999999993
   176   1       11.17499999999999      55.874999999999993       48.42499999999999
   177   1       11.17499999999999       57.73749999999999      50.287499999999987
   178   1      13.037499999999994      55.874999999999993      50.287499999999987
   179   1      13.037499999999994       57.73749999999999       48.42499999999999
   180   1       11.17499999999999      55.874999999999993      52.149999999999991
   181   1       11.17499999999999       57.73749999999999      54.012499999999989
   182   1      13.037499999999994      55.874999999999993      54.012499999999989
   183   1      13.037499999999994       57.73749999999999      52.149999999999991
   184   1       11.17499999999999      55.874999999999993      55.874999999999993
   185   1       11.17499999999999       57.73749999999999       57.73749999999999
   186   1      13.037499999999994      55.874999999999993       57.73749999999999
   187   1      13.037499999999994       57.73749999999999      55.874999999999993
   188   1       11.17499999999999      55.874999999999993      59.599999999999994
   189   1       11.17499999999999       57.73749999999999      61.462499999999999
   190   1      13.037499999999994      55.874999999999993      61.462499999999999
   191   1      13.037499999999994       57.73749999999999      59.599999999999994
   192   1       11.17499999999999      55.874999999999993      63.324999999999996
   193   1       11.17499999999999       57.73749999999999      65.187499999999986
   194   1      13.037499999999994      55.874999999999993      65.187499999999986
   195   1      13.037499999999994       57.73749999999999      63.324999999999996
   196   1       11.17499999999999      55.874999999999993      67.049999999999997
   197   1       11.17499999999999       57.73749999999999      68.912499999999994
   198   1      13.037499999999994      55.874999999999993      68.912499999999994
   199   1      13.037499999999994       57.73749999999999      67.049999999999997
   200   1       11.17499999999999      55.874999999999993      70.775000000000006
   201   1      13.037499999999994      55.874999999999993      72.637500000000003
   202   1      13.037499999999994       57.73749999999999      70.775000000000006
   203   1      13.037499999999994      59.599999999999994      46.562499999999993
   204   1       11.17499999999999      59.599999999999994       48.42499999999999
   205   1       11.17499999999999      61.462499999999999      50.287499999999987
   206   1      13.037499999999994      59.599999999999994      50.287499999999987
   207   1      13.037499999999994      61.462499999999999       48.42499999999999
   208   1       11.17499999999999      59.599999999999994      52.149999999999991
   209   1       11.17499999999999      61.462499999999999      54.012499999999989
   210   1      13.037499999999994      59.599999999999994      54.012499999999989
   211   1      13.037499999999994      61.462499999999999      52.149999999999991
   212   1       11.17499999999999      59.599999999999994      55.874999999999993
   213   1       11.17499999999999      61.462499999999999       57.73749999999999
   214   1      13.037499999999994      59.599999999999994       57.73749999999999
   215   1      13.037499999999994      61.462499999999999      55.874999999999993
   216   1       11.17499999999999      59.599999999999994      59.599999999999994
   217   1       11.17499999999999      61.462499999999999      61.462499999999999
   218   1      13.037499999999994      59.599999999999994      61.462499999999999
   219   1      13.037499999999994      61.462499999999999      59.599999999999994
   220   1       11.17499999999999      59.599999999999994      63.324999999999996
   221   1       11.17499999999999      61.462499999999999      65.187499999999986
   222   1      13.037499999999994      59.599999999999994      65.187499999999986
   223   1      13.037499999999994      61.462499999999999      63.324999999999996
   224   1       11.17499999999999      59.599999999999994      67.049999999999997
   225   1       11.17499999999999      61.462499999999999      68.912499999999994
   226   1      13.037499999999994      59.599999999999994      68.912499999999994
   227   1      13.037499999999994      61.462499999999999      67.049999999999997
   228   1       11.17499999999999      59.599999999999994      70.775000000000006
   229   1      13.037499999999994      59.599999999999994      72.637500000000003
   230   1      13.037499999999994      61.462499999999999      70.775000000000006
   231   1      13.037499999999994      63.324999999999996      46.562499999999993
   232   1       11.17499999999999      63.324999999999996       48.42499999999999
   233   1       11.17499999999999      65.187499999999986      50.287499999999987
   234   1      13.037499999999994      63.324999999999996      50.287499999999987
   235   1      13.037499999999994      65.187499999999986       48.42499999999999
   236   1       11.17499999999999      63.324999999999996      52.149999999999991
   237   1       11.17499999999999      65.187499999999986      54.012499999999989
   238   1      13.037499999999994      63.324999999999996      54.012499999999989
   239   1      13.037499999999994      65.187499999999986      52.149999999999991
   240   1       11.17499999999999      63.324999999999996      55.874999999999993
   241   1       11.17499999999999      65.187499999999986       57.73749999999999
   242   1      13.037499999999994      63.324999999999996       57.73749999999999
   243   1      13.037499999999994      65.187499999999986      55.874999999999993
   244   1       11.17499999999999      63.324999999999996      59.599999999999994
   245   1       11.17499999999999      65.187499999999986      61.462499999999999
   246   1      13.037499999999994      63.324999999999996      61.462499999999999
   247   1      13.037499999999994      65.187499999999986      59.599999999999994
   248   1       11.17499999999999      63.324999999999996      63.324999999999996
   249   1       11.17499999999999      65.187499999999986      65.187499999999986
   250   1      13.037499999999994      63.324999999999996      65.187499999999986
   251   1      13.037499999999994      65.187499999999986      63.324999999999996
   252   1       11.17499999999999      63.324999999999996      67.049999999999997
   253   1       11.17499999999999      65.187499999999986      68.912499999999994
   254   1      13.037499999999994      63.324999999999996      68.912499999999994
   255   1      13.037499999999994      65.187499999999986      67.049999999999997
   256   1       11.17499999999999      63.324999999999996      70.775000000000006
   257   1      13.037499999999994      63.324999999999996      72.637500000000003
   258   1      13.037499999999994      65.187499999999986      70.775000000000006
   259   1      13.037499999999994      67.049999999999997      50.287499999999987
   260   1       11.17499999999999      67.049999999999997      52.149999999999991
   261   1       11.17499999999999      68.912499999999994      54.012499999999989
   262   1      13.037499999999994      67.049999999999997      54.012499999999989
   263   1      13.037499999999994      68.912499999999994      52.149999999999991
   264   1       11.17499999999999      67.049999999999997      55.874999999999993
   265   1       11.17499999999999      68.912499999999994       57.73749999999999
   266   1      13.037499999999994      67.049999999999997       57.73749999999999
   267   1      13.037499999999994      68.912499999999994      55.874999999999993
   268   1       11.17499999999999      67.049999999999997      59.599999999999994
   269   1       11.17499999999999      68.912499999999994      61.462499999999999
   270   1      13.037499999999994      67.049999999999997      61.462499999999999
   271   1      13.037499999999994      68.912499999999994      59.599999999999994
   272   1       11.17499999999999      67.049999999999997      63.324999999999996
   273   1       11.17499999999999      68.912499999999994      65.187499999999986
   274   1      13.037499999999994      67.049999999999997      65.187499999999986
   275   1      13.037499999999994      68.912499999999994      63.324999999999996
   276   1       11.17499999999999      67.049999999999997      67.049999999999997
   277   1      13.037499999999994      67.049999999999997      68.912499999999994
   278   1      13.037499999999994      68.912499999999994      67.049999999999997
   279   1      13.037499999999994      70.775000000000006      54.012499999999989
   280   1       11.17499999999999      70.775000000000006      55.874999999999993
   281   1      13.037499999999994      70.775000000000006       57.73749999999999
   282   1      13.037499999999994      72.637500000000003      55.874999999999993
   283   1       11.17499999999999      70.775000000000006      59.599999999999994
   284   1      13.037499999999994      70.775000000000006      61.462499999999999
   285   1      13.037499999999994      72.637500000000003      59.599999999999994
   286   1       11.17499999999999      70.775000000000006      63.324999999999996
   287   1      13.037499999999994      70.775000000000006      65.187499999999986
   288   1      13.037499999999994      72.637500000000003      63.324999999999996
   289   1      16.762499999999989      42.837499999999991      55.874999999999993
   290   1      16.762499999999989      42.837499999999991      59.599999999999994
   291   1      16.762499999999989      42.837499999999991      63.324999999999996
   292   1      16.762499999999989      46.562499999999993       48.42499999999999
   293   1      14.899999999999991      46.562499999999993      54.012499999999989
   294   1      16.762499999999989      44.700000000000003      54.012499999999989
   295   1      16.762499999999989      46.562499999999993      52.149999999999991
   296   1      14.899999999999991      44.700000000000003      55.874999999999993
   297   1      14.899999999999991      46.562499999999993       57.73749999999999
   298   1      16.762499999999989      44.700000000000003       57.73749999999999
   299   1      16.762499999999989      46.562499999999993      55.874999999999993
   300   1      14.899999999999991      44.700000000000003      59.599999999999994
   301   1      14.899999999999991      46.562499999999993      61.462499999999999
   302   1      16.762499999999989      44.700000000000003      61.462499999999999
   303   1      16.762499999999989      46.562499999999993      59.599999999999994
   304   1      14.899999999999991      44.700000000000003      63.324999999999996
   305   1      14.899999999999991      46.562499999999993      65.187499999999986
   306   1      16.762499999999989      44.700000000000003      65.187499999999986
   307   1      16.762499999999989      46.562499999999993      63.324999999999996
   308   1      16.762499999999989      46.562499999999993      67.049999999999997
   309   1      16.762499999999989      46.562499999999993      70.775000000000006
   310   1      16.762499999999989       48.42499999999999      46.562499999999993
   311   1      14.899999999999991       48.42499999999999       48.42499999999999
   312   1      14.899999999999991      50.287499999999987      50.287499999999987
   313   1      16.762499999999989       48.42499999999999      50.287499999999987
   314   1      16.762499999999989      50.287499999999987       48.42499999999999
   315   1      14.899999999999991       48.42499999999999      52.149999999999991
   316   1      14.899999999999991      50.287499999999987      54.012499999999989
   317   1      16.762499999999989       48.42499999999999      54.012499999999989
   318   1      16.762499999999989      50.287499999999987      52.149999999999991
   319   1      14.899999999999991       48.42499999999999      55.874999999999993
   320   1      14.899999999999991      50.287499999999987       57.73749999999999
   321   1      16.762499999999989       48.42499999999999       57.73749999999999
   322   1      16.762499999999989      50.287499999999987      55.874999999999993
   323   1      14.899999999999991       48.42499999999999      59.599999999999994
   324   1      14.899999999999991      50.287499999999987      61.462499999999999
   325   1      16.762499999999989       48.42499999999999      61.462499999999999
   326   1      16.762499999999989      50.287499999999987      59.599999999999994
   327   1      14.899999999999991       48.42499999999999      63.324999999999996
   328   1      14.899999999999991      50.287499999999987      65.187499999999986
   329   1      16.762499999999989       48.42499999999999      65.187499999999986
   330   1      16.762499999999989      50.287499999999987      63.324999999999996
   331   1      14.899999999999991       48.42499999999999      67.049999999999997
   332   1      14.899999999999991      50.287499999999987      68.912499999999994
   333   1      16.762499999999989       48.42499999999999      68.912499999999994
   334   1      16.762499999999989      50.287499999999987      67.049999999999997
   335   1      14.899999999999991       48.42499999999999      70.775000000000006
   336   1      16.762499999999989       48.42499999999999      72.637500000000003
   337   1      16.762499999999989      50.287499999999987      70.775000000000006
   338   1      14.899999999999991      54.012499999999989      46.562499999999993
   339   1      16.762499999999989      52.149999999999991      46.562499999999993
   340   1      16.762499999999989      54.012499999999989      44.700000000000003
   341   1      14.899999999999991      52.149999999999991       48.42499999999999
   342   1      14.899999999999991      54.012499999999989      50.287499999999987
   343   1      16.762499999999989      52.149999999999991      50.287499999999987
   344   1      16.762499999999989      54.012499999999989       48.42499999999999
   345   1      14.899999999999991      52.149999999999991      52.149999999999991
   346   1      14.899999999999991      54.012499999999989      54.012499999999989
   347   1      16.762499999999989      52.149999999999991      54.012499999999989
   348   1      16.762499999999989      54.012499999999989      52.149999999999991
   349   1      14.899999999999991      52.149999999999991      55.874999999999993
   350   1      14.899999999999991      54.012499999999989       57.73749999999999
   351   1      16.762499999999989      52.149999999999991       57.73749999999999
   352   1      16.762499999999989      54.012499999999989      55.874999999999993
   353   1      14.899999999999991      52.149999999999991      59.599999999999994
   354   1      14.899999999999991      54.012499999999989      61.462499999999999
   355   1      16.762499999999989      52.149999999999991      61.462499999999999
   356   1      16.762499999999989      54.012499999999989      59.599999999999994
   357   1      14.899999999999991      52.149999999999991      63.324999999999996
   358   1      14.899999999999991      54.012499999999989      65.187499999999986