model_files/PdNi/PdNi_30000/PdNi_443/PdNi_443_fcc_30115_temp.data (written by ASE) 

30115 	 atoms 
2  atom types
0.0                     126  xlo xhi
0.0                     126  ylo yhi
0.0                     126  zlo zhi


Atoms 

     1   1       1.862500000000004      61.462500000000006      63.324999999999996
     2   1       1.862500000000004      63.324999999999996      61.462500000000006
     3   1  7.1054273576010019e-15      63.324999999999996      63.324999999999996
     4   1       1.862500000000004      63.324999999999996      65.187499999999986
     5   1       1.862500000000004      65.187499999999986      63.324999999999996
     6   1      5.5875000000000057      57.737499999999997      63.324999999999996
     7   1      3.7250000000000081      61.462500000000006      61.462500000000006
     8   1      5.5875000000000057      59.600000000000009      61.462500000000006
     9   1      5.5875000000000057      61.462500000000006      59.600000000000009
    10   1      3.7250000000000081      59.600000000000009      63.324999999999996
    11   1      3.7250000000000081      61.462500000000006      65.187499999999986
    12   1      5.5875000000000057      59.600000000000009      65.187499999999986
    13   1      5.5875000000000057      61.462500000000006      63.324999999999996
    14   1      5.5875000000000057      61.462500000000006      67.050000000000011
    15   1      5.5875000000000057      63.324999999999996      57.737499999999997
    16   1      3.7250000000000081      63.324999999999996      59.600000000000009
    17   1      3.7250000000000081      65.187499999999986      61.462500000000006
    18   1      5.5875000000000057      63.324999999999996      61.462500000000006
    19   1      5.5875000000000057      65.187499999999986      59.600000000000009
    20   1      3.7250000000000081      63.324999999999996      63.324999999999996
    21   1      3.7250000000000081      65.187499999999986      65.187499999999986
    22   1      5.5875000000000057      63.324999999999996      65.187499999999986
    23   1      5.5875000000000057      65.187499999999986      63.324999999999996
    24   1      3.7250000000000081      63.324999999999996      67.050000000000011
    25   1      5.5875000000000057      63.324999999999996      68.912500000000009
    26   1      5.5875000000000057      65.187499999999986      67.050000000000011
    27   1      5.5875000000000057      67.050000000000011      61.462500000000006
    28   1      3.7250000000000081      67.050000000000011      63.324999999999996
    29   1      5.5875000000000057      67.050000000000011      65.187499999999986
    30   1      5.5875000000000057      68.912500000000009      63.324999999999996
    31   1      9.3125000000000071      54.012499999999996      63.324999999999996
    32   1       7.450000000000002      57.737499999999997      61.462500000000006
    33   1      9.3125000000000071      55.875000000000007      61.462500000000006
    34   1      9.3125000000000071      57.737499999999997      59.600000000000009
    35   1       7.450000000000002      55.875000000000007      63.324999999999996
    36   1       7.450000000000002      57.737499999999997      65.187499999999986
    37   1      9.3125000000000071      55.875000000000007      65.187499999999986
    38   1      9.3125000000000071      57.737499999999997      63.324999999999996
    39   1      9.3125000000000071      57.737499999999997      67.050000000000011
    40   1       7.450000000000002      61.462500000000006      57.737499999999997
    41   1      9.3125000000000071      59.600000000000009      57.737499999999997
    42   1      9.3125000000000071      61.462500000000006      55.875000000000007
    43   1       7.450000000000002      59.600000000000009      59.600000000000009
    44   1       7.450000000000002      61.462500000000006      61.462500000000006
    45   1      9.3125000000000071      59.600000000000009      61.462500000000006
    46   1      9.3125000000000071      61.462500000000006      59.600000000000009
    47   1       7.450000000000002      59.600000000000009      63.324999999999996
    48   1       7.450000000000002      61.462500000000006      65.187499999999986
    49   1      9.3125000000000071      59.600000000000009      65.187499999999986
    50   1      9.3125000000000071      61.462500000000006      63.324999999999996
    51   1       7.450000000000002      59.600000000000009      67.050000000000011
    52   1       7.450000000000002      61.462500000000006      68.912500000000009
    53   1      9.3125000000000071      59.600000000000009      68.912500000000009
    54   1      9.3125000000000071      61.462500000000006      67.050000000000011
    55   1      9.3125000000000071      61.462500000000006      70.775000000000006
    56   1      9.3125000000000071      63.324999999999996      54.012499999999996
    57   1       7.450000000000002      63.324999999999996      55.875000000000007
    58   1       7.450000000000002      65.187499999999986      57.737499999999997
    59   1      9.3125000000000071      63.324999999999996      57.737499999999997
    60   1      9.3125000000000071      65.187499999999986      55.875000000000007
    61   1       7.450000000000002      63.324999999999996      59.600000000000009
    62   1       7.450000000000002      65.187499999999986      61.462500000000006
    63   1      9.3125000000000071      63.324999999999996      61.462500000000006
    64   1      9.3125000000000071      65.187499999999986      59.600000000000009
    65   1       7.450000000000002      63.324999999999996      63.324999999999996
    66   1       7.450000000000002      65.187499999999986      65.187499999999986
    67   1      9.3125000000000071      63.324999999999996      65.187499999999986
    68   1      9.3125000000000071      65.187499999999986      63.324999999999996
    69   1       7.450000000000002      63.324999999999996      67.050000000000011
    70   1       7.450000000000002      65.187499999999986      68.912500000000009
    71   1      9.3125000000000071      63.324999999999996      68.912500000000009
    72   1      9.3125000000000071      65.187499999999986      67.050000000000011
    73   1       7.450000000000002      63.324999999999996      70.775000000000006
    74   1      9.3125000000000071      63.324999999999996      72.637499999999989
    75   1      9.3125000000000071      65.187499999999986      70.775000000000006
    76   1      9.3125000000000071      67.050000000000011      57.737499999999997
    77   1       7.450000000000002      67.050000000000011      59.600000000000009
    78   1       7.450000000000002      68.912500000000009      61.462500000000006
    79   1      9.3125000000000071      67.050000000000011      61.462500000000006
    80   1      9.3125000000000071      68.912500000000009      59.600000000000009
    81   1       7.450000000000002      67.050000000000011      63.324999999999996
    82   1       7.450000000000002      68.912500000000009      65.187499999999986
    83   1      9.3125000000000071      67.050000000000011      65.187499999999986
    84   1      9.3125000000000071      68.912500000000009      63.324999999999996
    85   1       7.450000000000002      67.050000000000011      67.050000000000011
    86   1      9.3125000000000071      67.050000000000011      68.912500000000009
    87   1      9.3125000000000071      68.912500000000009      67.050000000000011
    88   1      9.3125000000000071      70.775000000000006      61.462500000000006
    89   1       7.450000000000002      70.775000000000006      63.324999999999996
    90   1      9.3125000000000071      70.775000000000006      65.187499999999986
    91   1      9.3125000000000071      72.637499999999989      63.324999999999996
    92   1      13.037500000000009      50.287499999999994      63.324999999999996
    93   1      11.175000000000004      54.012499999999996      61.462500000000006
    94   1      13.037500000000009      52.150000000000006      61.462500000000006
    95   1      13.037500000000009      54.012499999999996      59.600000000000009
    96   1      11.175000000000004      52.150000000000006      63.324999999999996
    97   1      11.175000000000004      54.012499999999996      65.187499999999986
    98   1      13.037500000000009      52.150000000000006      65.187499999999986
    99   1      13.037500000000009      54.012499999999996      63.324999999999996
   100   1      13.037500000000009      54.012499999999996      67.050000000000011
   101   1      11.175000000000004      57.737499999999997      57.737499999999997
   102   1      13.037500000000009      55.875000000000007      57.737499999999997
   103   1      13.037500000000009      57.737499999999997      55.875000000000007
   104   1      11.175000000000004      55.875000000000007      59.600000000000009
   105   1      11.175000000000004      57.737499999999997      61.462500000000006
   106   1      13.037500000000009      55.875000000000007      61.462500000000006
   107   1      13.037500000000009      57.737499999999997      59.600000000000009
   108   1      11.175000000000004      55.875000000000007      63.324999999999996
   109   1      11.175000000000004      57.737499999999997      65.187499999999986
   110   1      13.037500000000009      55.875000000000007      65.187499999999986
   111   1      13.037500000000009      57.737499999999997      63.324999999999996
   112   1      11.175000000000004      55.875000000000007      67.050000000000011
   113   1      11.175000000000004      57.737499999999997      68.912500000000009
   114   1      13.037500000000009      55.875000000000007      68.912500000000009
   115   1      13.037500000000009      57.737499999999997      67.050000000000011
   116   1      13.037500000000009      57.737499999999997      70.775000000000006
   117   1      11.175000000000004      61.462500000000006      54.012499999999996
   118   1      13.037500000000009      59.600000000000009      54.012499999999996
   119   1      13.037500000000009      61.462500000000006      52.150000000000006
   120   1      11.175000000000004      59.600000000000009      55.875000000000007
   121   1      11.175000000000004      61.462500000000006      57.737499999999997
   122   1      13.037500000000009      59.600000000000009      57.737499999999997
   123   1      13.037500000000009      61.462500000000006      55.875000000000007
   124   1      11.175000000000004      59.600000000000009      59.600000000000009
   125   1      11.175000000000004      61.462500000000006      61.462500000000006
   126   1      13.037500000000009      59.600000000000009      61.462500000000006
   127   1      13.037500000000009      61.462500000000006      59.600000000000009
   128   1      11.175000000000004      59.600000000000009      63.324999999999996
   129   1      11.175000000000004      61.462500000000006      65.187499999999986
   130   1      13.037500000000009      59.600000000000009      65.187499999999986
   131   1      13.037500000000009      61.462500000000006      63.324999999999996
   132   1      11.175000000000004      59.600000000000009      67.050000000000011
   133   1      11.175000000000004      61.462500000000006      68.912500000000009
   134   1      13.037500000000009      59.600000000000009      68.912500000000009
   135   1      13.037500000000009      61.462500000000006      67.050000000000011
   136   1      11.175000000000004      59.600000000000009      70.775000000000006
   137   1      11.175000000000004      61.462500000000006      72.637499999999989
   138   1      13.037500000000009      59.600000000000009      72.637499999999989
   139   1      13.037500000000009      61.462500000000006      70.775000000000006
   140   1      13.037500000000009      61.462500000000006      74.500000000000014
   141   1      13.037500000000009      63.324999999999996      50.287499999999994
   142   1      11.175000000000004      63.324999999999996      52.150000000000006
   143   1      11.175000000000004      65.187499999999986      54.012499999999996
   144   1      13.037500000000009      63.324999999999996      54.012499999999996
   145   1      13.037500000000009      65.187499999999986      52.150000000000006
   146   1      11.175000000000004      63.324999999999996      55.875000000000007
   147   1      11.175000000000004      65.187499999999986      57.737499999999997
   148   1      13.037500000000009      63.324999999999996      57.737499999999997
   149   1      13.037500000000009      65.187499999999986      55.875000000000007
   150   1      11.175000000000004      63.324999999999996      59.600000000000009
   151   1      11.175000000000004      65.187499999999986      61.462500000000006
   152   1      13.037500000000009      63.324999999999996      61.462500000000006
   153   1      13.037500000000009      65.187499999999986      59.600000000000009
   154   1      11.175000000000004      63.324999999999996      63.324999999999996
   155   1      11.175000000000004      65.187499999999986      65.187499999999986
   156   1      13.037500000000009      63.324999999999996      65.187499999999986
   157   1      13.037500000000009      65.187499999999986      63.324999999999996
   158   1      11.175000000000004      63.324999999999996      67.050000000000011
   159   1      11.175000000000004      65.187499999999986      68.912500000000009
   160   1      13.037500000000009      63.324999999999996      68.912500000000009
   161   1      13.037500000000009      65.187499999999986      67.050000000000011
   162   1      11.175000000000004      63.324999999999996      70.775000000000006
   163   1      11.175000000000004      65.187499999999986      72.637499999999989
   164   1      13.037500000000009      63.324999999999996      72.637499999999989
   165   1      13.037500000000009      65.187499999999986      70.775000000000006
   166   1      11.175000000000004      63.324999999999996      74.500000000000014
   167   1      13.037500000000009      63.324999999999996      76.362500000000011
   168   1      13.037500000000009      65.187499999999986      74.500000000000014
   169   1      13.037500000000009      67.050000000000011      54.012499999999996
   170   1      11.175000000000004      67.050000000000011      55.875000000000007
   171   1      11.175000000000004      68.912500000000009      57.737499999999997
   172   1      13.037500000000009      67.050000000000011      57.737499999999997
   173   1      13.037500000000009      68.912500000000009      55.875000000000007
   174   1      11.175000000000004      67.050000000000011      59.600000000000009
   175   1      11.175000000000004      68.912500000000009      61.462500000000006
   176   1      13.037500000000009      67.050000000000011      61.462500000000006
   177   1      13.037500000000009      68.912500000000009      59.600000000000009
   178   1      11.175000000000004      67.050000000000011      63.324999999999996
   179   1      11.175000000000004      68.912500000000009      65.187499999999986
   180   1      13.037500000000009      67.050000000000011      65.187499999999986
   181   1      13.037500000000009      68.912500000000009      63.324999999999996
   182   1      11.175000000000004      67.050000000000011      67.050000000000011
   183   1      11.175000000000004      68.912500000000009      68.912500000000009
   184   1      13.037500000000009      67.050000000000011      68.912500000000009
   185   1      13.037500000000009      68.912500000000009      67.050000000000011
   186   1      11.175000000000004      67.050000000000011      70.775000000000006
   187   1      13.037500000000009      67.050000000000011      72.637499999999989
   188   1      13.037500000000009      68.912500000000009      70.775000000000006
   189   1      13.037500000000009      70.775000000000006      57.737499999999997
   190   1      11.175000000000004      70.775000000000006      59.600000000000009
   191   1      11.175000000000004      72.637499999999989      61.462500000000006
   192   1      13.037500000000009      70.775000000000006      61.462500000000006
   193   1      13.037500000000009      72.637499999999989      59.600000000000009
   194   1      11.175000000000004      70.775000000000006      63.324999999999996
   195   1      11.175000000000004      72.637499999999989      65.187499999999986
   196   1      13.037500000000009      70.775000000000006      65.187499999999986
   197   1      13.037500000000009      72.637499999999989      63.324999999999996
   198   1      11.175000000000004      70.775000000000006      67.050000000000011
   199   1      13.037500000000009      70.775000000000006      68.912500000000009
   200   1      13.037500000000009      72.637499999999989      67.050000000000011
   201   1      13.037500000000009      74.500000000000014      61.462500000000006
   202   1      11.175000000000004      74.500000000000014      63.324999999999996
   203   1      13.037500000000009      74.500000000000014      65.187499999999986
   204   1      13.037500000000009      76.362500000000011      63.324999999999996
   205   1      16.762500000000003                 46.5625      63.324999999999996
   206   1      14.900000000000004      50.287499999999994      61.462500000000006
   207   1      16.762500000000003      48.425000000000004      61.462500000000006
   208   1      16.762500000000003      50.287499999999994      59.600000000000009
   209   1      14.900000000000004      48.425000000000004      63.324999999999996
   210   1      14.900000000000004      50.287499999999994      65.187499999999986
   211   1      16.762500000000003      48.425000000000004      65.187499999999986
   212   1      16.762500000000003      50.287499999999994      63.324999999999996
   213   1      16.762500000000003      50.287499999999994      67.050000000000011
   214   1      14.900000000000004      54.012499999999996      57.737499999999997
   215   1      16.762500000000003      52.150000000000006      57.737499999999997
   216   1      16.762500000000003      54.012499999999996      55.875000000000007
   217   1      14.900000000000004      52.150000000000006      59.600000000000009
   218   1      14.900000000000004      54.012499999999996      61.462500000000006
   219   1      16.762500000000003      52.150000000000006      61.462500000000006
   220   1      16.762500000000003      54.012499999999996      59.600000000000009
   221   1      14.900000000000004      52.150000000000006      63.324999999999996
   222   1      14.900000000000004      54.012499999999996      65.187499999999986
   223   1      16.762500000000003      52.150000000000006      65.187499999999986
   224   1      16.762500000000003      54.012499999999996      63.324999999999996
   225   1      14.900000000000004      52.150000000000006      67.050000000000011
   226   1      14.900000000000004      54.012499999999996      68.912500000000009
   227   1      16.762500000000003      52.150000000000006      68.912500000000009
   228   1      16.762500000000003      54.012499999999996      67.050000000000011
   229   1      16.762500000000003      54.012499999999996      70.775000000000006
   230   1      14.900000000000004      57.737499999999997      54.012499999999996
   231   1      16.762500000000003      55.875000000000007      54.012499999999996
   232   1      16.762500000000003      57.737499999999997      52.150000000000006
   233   1      14.900000000000004      55.875000000000007      55.875000000000007
   234   1      14.900000000000004      57.737499999999997      57.737499999999997
   235   1      16.762500000000003      55.875000000000007      57.737499999999997
   236   1      16.762500000000003      57.737499999999997      55.875000000000007
   237   1      14.900000000000004      55.875000000000007      59.600000000000009
   238   1      14.900000000000004      57.737499999999997      61.462500000000006
   239   1      16.762500000000003      55.875000000000007      61.462500000000006
   240   1      16.762500000000003      57.737499999999997      59.600000000000009
   241   1      14.900000000000004      55.875000000000007      63.324999999999996
   242   1      14.900000000000004      57.737499999999997      65.187499999999986
   243   1      16.762500000000003      55.875000000000007      65.187499999999986
   244   1      16.762500000000003      57.737499999999997      63.324999999999996
   245   1      14.900000000000004      55.875000000000007      67.050000000000011
   246   1      14.900000000000004      57.737499999999997      68.912500000000009
   247   1      16.762500000000003      55.875000000000007      68.912500000000009
   248   1      16.762500000000003      57.737499999999997      67.050000000000011
   249   1      14.900000000000004      55.875000000000007      70.775000000000006
   250   1      14.900000000000004      57.737499999999997      72.637499999999989
   251   1      16.762500000000003      55.875000000000007      72.637499999999989
   252   1      16.762500000000003      57.737499999999997      70.775000000000006
   253   1      16.762500000000003      57.737499999999997      74.500000000000014
   254   1      14.900000000000004      61.462500000000006      50.287499999999994
   255   1      16.762500000000003      59.600000000000009      50.287499999999994
   256   1      16.762500000000003      61.462500000000006      48.425000000000004
   257   1      14.900000000000004      59.600000000000009      52.150000000000006
   258   1      14.900000000000004      61.462500000000006      54.012499999999996
   259   1      16.762500000000003      59.600000000000009      54.012499999999996
   260   1      16.762500000000003      61.462500000000006      52.150000000000006
   261   1      14.900000000000004      59.600000000000009      55.875000000000007
   262   1      14.900000000000004      61.462500000000006      57.737499999999997
   263   1      16.762500000000003      59.600000000000009      57.737499999999997
   264   1      16.762500000000003      61.462500000000006      55.875000000000007
   265   1      14.900000000000004      59.600000000000009      59.600000000000009
   266   1      14.900000000000004      61.462500000000006      61.462500000000006
   267   1      16.762500000000003      59.600000000000009      61.462500000000006
   268   1      16.762500000000003      61.462500000000006      59.600000000000009
   269   1      14.900000000000004      59.600000000000009      63.324999999999996
   270   1      14.900000000000004      61.462500000000006      65.187499999999986
   271   1      16.762500000000003      59.600000000000009      65.187499999999986
   272   1      16.762500000000003      61.462500000000006      63.324999999999996
   273   1      14.900000000000004      59.600000000000009      67.050000000000011
   274   1      14.900000000000004      61.462500000000006      68.912500000000009
   275   1      16.762500000000003      59.600000000000009      68.912500000000009
   276   1      16.762500000000003      61.462500000000006      67.050000000000011
   277   1      14.900000000000004      59.600000000000009      70.775000000000006
   278   1      14.900000000000004      61.462500000000006      72.637499999999989
   279   1      16.762500000000003      59.600000000000009      72.637499999999989
   280   1      16.762500000000003      61.462500000000006      70.775000000000006
   281   1      14.900000000000004      59.600000000000009      74.500000000000014
   282   1      14.900000000000004      61.462500000000006      76.362500000000011
   283   1      16.762500000000003      59.600000000000009      76.362500000000011
   284   1      16.762500000000003      61.462500000000006      74.500000000000014
   285   1      16.762500000000003      61.462500000000006      78.225000000000009
   286   1      16.762500000000003      63.324999999999996                 46.5625
   287   1      14.900000000000004      63.324999999999996      48.425000000000004
   288   1      14.900000000000004      65.187499999999986      50.287499999999994
   289   1      16.762500000000003      63.324999999999996      50.287499999999994
   290   1      16.762500000000003      65.187499999999986      48.425000000000004
   291   1      14.900000000000004      63.324999999999996      52.150000000000006
   292   1      14.900000000000004      65.187499999999986      54.012499999999996
   293   1      16.762500000000003      63.324999999999996      54.012499999999996
   294   1      16.762500000000003      65.187499999999986      52.150000000000006
   295   1      14.900000000000004      63.324999999999996      55.875000000000007
   296   1      14.900000000000004      65.187499999999986      57.737499999999997
   297   1      16.762500000000003      63.324999999999996      57.737499999999997
   298   1      16.762500000000003      65.187499999999986      55.875000000000007
   299   1      14.900000000000004      63.324999999999996      59.600000000000009
   300   1      14.900000000000004      65.187499999999986      61.462500000000006
   301   1      16.762500000000003      63.324999999999996      61.462500000000006
   302   1      16.762500000000003      65.187499999999986      59.600000000000009
   303   1      14.900000000000004      63.324999999999996      63.324999999999996
   304   1      14.900000000000004      65.187499999999986      65.187499999999986
   305   1      16.762500000000003      63.324999999999996      65.187499999999986
   306   1      16.762500000000003      65.187499999999986      63.324999999999996
   307   1      14.900000000000004      63.324999999999996      67.050000000000011
   308   1      14.900000000000004      65.187499999999986      68.912500000000009
   309   1      16.762500000000003      63.324999999999996      68.912500000000009
   310   1      16.762500000000003      65.187499999999986      67.050000000000011
   311   1      14.900000000000004      63.324999999999996      70.775000000000006
   312   1      14.900000000000004      65.187499999999986      72.637499999999989
   313   1      16.762500000000003      63.324999999999996      72.637499999999989
   314   1      16.762500000000003      65.187499999999986      70.775000000000006
   315   1      14.900000000000004      63.324999999999996      74.500000000000014
   316   1      14.900000000000004      65.187499999999986      76.362500000000011
   317   1      16.762500000000003      63.324999999999996      76.362500000000011
   318   1      16.762500000000003      65.187499999999986      74.500000000000014
   319   1      14.900000000000004      63.324999999999996      78.225000000000009
   320   1      16.762500000000003      63.324999999999996      80.087499999999991
   321   1      16.762500000000003      65.187499999999986      78.225000000000009
   322   1      16.762500000000003      67.050000000000011      50.287499999999994
   323   1      14.900000000000004      67.050000000000011      52.150000000000006
   324   1      14.900000000000004      68.912500000000009      54.012499999999996
   325   1      16.762500000000003      67.050000000000011      54.012499999999996
   326   1      16.762500000000003      68.912500000000009      52.150000000000006
   327   1      14.900000000000004      67.050000000000011      55.875000000000007
   328   1      14.900000000000004      68.912500000000009      57.737499999999997
   329   1      16.762500000000003      67.050000000000011      57.737499999999997
   330   1      16.762500000000003      68.912500000000009      55.875000000000007
   331   1      14.900000000000004      67.050000000000011      59.600000000000009
   332   1      14.900000000000004      68.912500000000009      61.462500000000006
   333   1      16.762500000000003      67.050000000000011      61.462500000000006
   334   1      16.762500000000003      68.912500000000009      59.600000000000009
   335   1      14.900000000000004      67.050000000000011      63.324999999999996
   336   1      14.900000000000004      68.912500000000009      65.187499999999986
   337   1      16.762500000000003      67.050000000000011      65.187499999999986
   338   1      16.762500000000003      68.912500000000009      63.324999999999996
   339   1      14.900000000000004      67.050000000000011      67.050000000000011
   340   1      14.900000000000004      68.912500000000009      68.912500000000009
   341   1      16.762500000000003      67.050000000000011      68.912500000000009
   342   1      16.762500000000003      68.912500000000009      67.050000000000011
   343   1      14.900000000000004      67.050000000000011      70.775000000000006
   344   1      14.900000000000004      68.912500000000009      72.637499999999989
   345   1      16.762500000000003      67.050000000000011      72.637499999999989
   346   1      16.762500000000003      68.912500000000009      70.775000000000006
   347   1      14.900000000000004      67.050000000000011      74.500000000000014
   348   1      16.762500000000003      67.050000000000011      76.362500000000011
   349   1      16.762500000000003      68.912500000000009      74.500000000000014
   350   1      16.762500000000003      70.775000000000006      54.012499999999996
   351   1      14.900000000000004      70.775000000000006      55.875000000000007
   352   1      14.900000000000004      72.637499999999989      57.737499999999997
   353   1      16.762500000000003      70.775000000000006      57.737499999999997
   354   1      16.762500000000003      72.637499999999989      55.875000000000007
   355   1      14.900000000000004      70.775000000000006      59.600000000000009
   356   1      14.900000000000004      72.637499999999989      61.462500000000006
   357   1      16.762500000000003      70.775000000000006      61.462500000000006
   358   1      16.762500000000003      72.637499999999989      59.600000000000009