model_files/CuNi/CuNi_30000/CuNi_430/CuNi_430_fcc_29909_temp.data (written by ASE) 

29909 	 atoms 
2  atom types
0.0                     101  xlo xhi
0.0                     101  ylo yhi
0.0                     101  zlo zhi


Atoms 

     1   1      1.7829999999999941      48.141000000000005      49.923999999999999
     2   1      1.7829999999999941      49.923999999999999      48.141000000000005
     3   1                       0      49.923999999999999      49.923999999999999
     4   1      1.7829999999999941      49.923999999999999      51.707000000000001
     5   1      1.7829999999999941      51.707000000000001      49.923999999999999
     6   1      3.5659999999999954      44.575000000000003      44.575000000000003
     7   1      5.3489999999999966      42.792000000000002      44.575000000000003
     8   1      5.3489999999999966      44.575000000000003      42.792000000000002
     9   1      3.5659999999999954      44.575000000000003      48.141000000000005
    10   1      5.3489999999999966      42.792000000000002      48.141000000000005
    11   1      5.3489999999999966      44.575000000000003      46.358000000000004
    12   1      3.5659999999999954      44.575000000000003      51.707000000000001
    13   1      5.3489999999999966      42.792000000000002      51.707000000000001
    14   1      5.3489999999999966      44.575000000000003      49.923999999999999
    15   1      3.5659999999999954      44.575000000000003      55.273000000000003
    16   1      5.3489999999999966      42.792000000000002      55.273000000000003
    17   1      5.3489999999999966      44.575000000000003      53.490000000000002
    18   1      5.3489999999999966      44.575000000000003      57.056000000000004
    19   1      3.5659999999999954      48.141000000000005      44.575000000000003
    20   1      5.3489999999999966      46.358000000000004      44.575000000000003
    21   1      5.3489999999999966      48.141000000000005      42.792000000000002
    22   1      3.5659999999999954      46.358000000000004      46.358000000000004
    23   1      3.5659999999999954      48.141000000000005      48.141000000000005
    24   1      5.3489999999999966      46.358000000000004      48.141000000000005
    25   1      5.3489999999999966      48.141000000000005      46.358000000000004
    26   1      3.5659999999999954      46.358000000000004      49.923999999999999
    27   1      3.5659999999999954      48.141000000000005      51.707000000000001
    28   1      5.3489999999999966      46.358000000000004      51.707000000000001
    29   1      5.3489999999999966      48.141000000000005      49.923999999999999
    30   1      3.5659999999999954      46.358000000000004      53.490000000000002
    31   1      3.5659999999999954      48.141000000000005      55.273000000000003
    32   1      5.3489999999999966      46.358000000000004      55.273000000000003
    33   1      5.3489999999999966      48.141000000000005      53.490000000000002
    34   1      5.3489999999999966      48.141000000000005      57.056000000000004
    35   1      3.5659999999999954      51.707000000000001      44.575000000000003
    36   1      5.3489999999999966      49.923999999999999      44.575000000000003
    37   1      5.3489999999999966      51.707000000000001      42.792000000000002
    38   1      3.5659999999999954      49.923999999999999      46.358000000000004
    39   1      3.5659999999999954      51.707000000000001      48.141000000000005
    40   1      5.3489999999999966      49.923999999999999      48.141000000000005
    41   1      5.3489999999999966      51.707000000000001      46.358000000000004
    42   1      3.5659999999999954      49.923999999999999      49.923999999999999
    43   1      3.5659999999999954      51.707000000000001      51.707000000000001
    44   1      5.3489999999999966      49.923999999999999      51.707000000000001
    45   1      5.3489999999999966      51.707000000000001      49.923999999999999
    46   1      3.5659999999999954      49.923999999999999      53.490000000000002
    47   1      3.5659999999999954      51.707000000000001      55.273000000000003
    48   1      5.3489999999999966      49.923999999999999      55.273000000000003
    49   1      5.3489999999999966      51.707000000000001      53.490000000000002
    50   1      5.3489999999999966      51.707000000000001      57.056000000000004
    51   1      3.5659999999999954      55.273000000000003      44.575000000000003
    52   1      5.3489999999999966      53.490000000000002      44.575000000000003
    53   1      5.3489999999999966      55.273000000000003      42.792000000000002
    54   1      3.5659999999999954      53.490000000000002      46.358000000000004
    55   1      3.5659999999999954      55.273000000000003      48.141000000000005
    56   1      5.3489999999999966      53.490000000000002      48.141000000000005
    57   1      5.3489999999999966      55.273000000000003      46.358000000000004
    58   1      3.5659999999999954      53.490000000000002      49.923999999999999
    59   1      3.5659999999999954      55.273000000000003      51.707000000000001
    60   1      5.3489999999999966      53.490000000000002      51.707000000000001
    61   1      5.3489999999999966      55.273000000000003      49.923999999999999
    62   1      3.5659999999999954      53.490000000000002      53.490000000000002
    63   1      3.5659999999999954      55.273000000000003      55.273000000000003
    64   1      5.3489999999999966      53.490000000000002      55.273000000000003
    65   1      5.3489999999999966      55.273000000000003      53.490000000000002
    66   1      5.3489999999999966      55.273000000000003      57.056000000000004
    67   1      5.3489999999999966      57.056000000000004      44.575000000000003
    68   1      5.3489999999999966      57.056000000000004      48.141000000000005
    69   1      5.3489999999999966      57.056000000000004      51.707000000000001
    70   1      5.3489999999999966      57.056000000000004      55.273000000000003
    71   1      8.9149999999999991      37.443000000000005      39.225999999999999
    72   1      8.9149999999999991      37.443000000000005      42.792000000000002
    73   1      8.9149999999999991      37.443000000000005      46.358000000000004
    74   1      8.9149999999999991      37.443000000000005      49.923999999999999
    75   1      8.9149999999999991      37.443000000000005      53.490000000000002
    76   1      8.9149999999999991      37.443000000000005      57.056000000000004
    77   1      8.9149999999999991      37.443000000000005                  60.622
    78   1      8.9149999999999991      39.225999999999999      37.443000000000005
    79   1      7.1319999999999979                  41.009                  41.009
    80   1      8.9149999999999991      39.225999999999999                  41.009
    81   1      8.9149999999999991                  41.009      39.225999999999999
    82   1      7.1319999999999979                  41.009      44.575000000000003
    83   1      8.9149999999999991      39.225999999999999      44.575000000000003
    84   1      8.9149999999999991                  41.009      42.792000000000002
    85   1      7.1319999999999979                  41.009      48.141000000000005
    86   1      8.9149999999999991      39.225999999999999      48.141000000000005
    87   1      8.9149999999999991                  41.009      46.358000000000004
    88   1      7.1319999999999979                  41.009      51.707000000000001
    89   1      8.9149999999999991      39.225999999999999      51.707000000000001
    90   1      8.9149999999999991                  41.009      49.923999999999999
    91   1      7.1319999999999979                  41.009      55.273000000000003
    92   1      8.9149999999999991      39.225999999999999      55.273000000000003
    93   1      8.9149999999999991                  41.009      53.490000000000002
    94   1      7.1319999999999979                  41.009      58.839000000000006
    95   1      8.9149999999999991      39.225999999999999      58.839000000000006
    96   1      8.9149999999999991                  41.009      57.056000000000004
    97   1      8.9149999999999991      39.225999999999999      62.405000000000001
    98   1      8.9149999999999991                  41.009                  60.622
    99   1      8.9149999999999991      42.792000000000002      37.443000000000005
   100   1      7.1319999999999979      44.575000000000003                  41.009
   101   1      8.9149999999999991      42.792000000000002                  41.009
   102   1      8.9149999999999991      44.575000000000003      39.225999999999999
   103   1      7.1319999999999979      42.792000000000002      42.792000000000002
   104   1      7.1319999999999979      44.575000000000003      44.575000000000003
   105   1      8.9149999999999991      42.792000000000002      44.575000000000003
   106   1      8.9149999999999991      44.575000000000003      42.792000000000002
   107   1      7.1319999999999979      42.792000000000002      46.358000000000004
   108   1      7.1319999999999979      44.575000000000003      48.141000000000005
   109   1      8.9149999999999991      42.792000000000002      48.141000000000005
   110   1      8.9149999999999991      44.575000000000003      46.358000000000004
   111   1      7.1319999999999979      42.792000000000002      49.923999999999999
   112   1      7.1319999999999979      44.575000000000003      51.707000000000001
   113   1      8.9149999999999991      42.792000000000002      51.707000000000001
   114   1      8.9149999999999991      44.575000000000003      49.923999999999999
   115   1      7.1319999999999979      42.792000000000002      53.490000000000002
   116   1      7.1319999999999979      44.575000000000003      55.273000000000003
   117   1      8.9149999999999991      42.792000000000002      55.273000000000003
   118   1      8.9149999999999991      44.575000000000003      53.490000000000002
   119   1      7.1319999999999979      42.792000000000002      57.056000000000004
   120   1      7.1319999999999979      44.575000000000003      58.839000000000006
   121   1      8.9149999999999991      42.792000000000002      58.839000000000006
   122   1      8.9149999999999991      44.575000000000003      57.056000000000004
   123   1      8.9149999999999991      42.792000000000002      62.405000000000001
   124   1      8.9149999999999991      44.575000000000003                  60.622
   125   1      8.9149999999999991      46.358000000000004      37.443000000000005
   126   1      7.1319999999999979      48.141000000000005                  41.009
   127   1      8.9149999999999991      46.358000000000004                  41.009
   128   1      8.9149999999999991      48.141000000000005      39.225999999999999
   129   1      7.1319999999999979      46.358000000000004      42.792000000000002
   130   1      7.1319999999999979      48.141000000000005      44.575000000000003
   131   1      8.9149999999999991      46.358000000000004      44.575000000000003
   132   1      8.9149999999999991      48.141000000000005      42.792000000000002
   133   1      7.1319999999999979      46.358000000000004      46.358000000000004
   134   1      7.1319999999999979      48.141000000000005      48.141000000000005
   135   1      8.9149999999999991      46.358000000000004      48.141000000000005
   136   1      8.9149999999999991      48.141000000000005      46.358000000000004
   137   1      7.1319999999999979      46.358000000000004      49.923999999999999
   138   1      7.1319999999999979      48.141000000000005      51.707000000000001
   139   1      8.9149999999999991      46.358000000000004      51.707000000000001
   140   1      8.9149999999999991      48.141000000000005      49.923999999999999
   141   1      7.1319999999999979      46.358000000000004      53.490000000000002
   142   1      7.1319999999999979      48.141000000000005      55.273000000000003
   143   1      8.9149999999999991      46.358000000000004      55.273000000000003
   144   1      8.9149999999999991      48.141000000000005      53.490000000000002
   145   1      7.1319999999999979      46.358000000000004      57.056000000000004
   146   1      7.1319999999999979      48.141000000000005      58.839000000000006
   147   1      8.9149999999999991      46.358000000000004      58.839000000000006
   148   1      8.9149999999999991      48.141000000000005      57.056000000000004
   149   1      8.9149999999999991      46.358000000000004      62.405000000000001
   150   1      8.9149999999999991      48.141000000000005                  60.622
   151   1      8.9149999999999991      49.923999999999999      37.443000000000005
   152   1      7.1319999999999979      51.707000000000001                  41.009
   153   1      8.9149999999999991      49.923999999999999                  41.009
   154   1      8.9149999999999991      51.707000000000001      39.225999999999999
   155   1      7.1319999999999979      49.923999999999999      42.792000000000002
   156   1      7.1319999999999979      51.707000000000001      44.575000000000003
   157   1      8.9149999999999991      49.923999999999999      44.575000000000003
   158   1      8.9149999999999991      51.707000000000001      42.792000000000002
   159   1      7.1319999999999979      49.923999999999999      46.358000000000004
   160   1      7.1319999999999979      51.707000000000001      48.141000000000005
   161   1      8.9149999999999991      49.923999999999999      48.141000000000005
   162   1      8.9149999999999991      51.707000000000001      46.358000000000004
   163   1      7.1319999999999979      49.923999999999999      49.923999999999999
   164   1      7.1319999999999979      51.707000000000001      51.707000000000001
   165   1      8.9149999999999991      49.923999999999999      51.707000000000001
   166   1      8.9149999999999991      51.707000000000001      49.923999999999999
   167   1      7.1319999999999979      49.923999999999999      53.490000000000002
   168   1      7.1319999999999979      51.707000000000001      55.273000000000003
   169   1      8.9149999999999991      49.923999999999999      55.273000000000003
   170   1      8.9149999999999991      51.707000000000001      53.490000000000002
   171   1      7.1319999999999979      49.923999999999999      57.056000000000004
   172   1      7.1319999999999979      51.707000000000001      58.839000000000006
   173   1      8.9149999999999991      49.923999999999999      58.839000000000006
   174   1      8.9149999999999991      51.707000000000001      57.056000000000004
   175   1      8.9149999999999991      49.923999999999999      62.405000000000001
   176   1      8.9149999999999991      51.707000000000001                  60.622
   177   1      8.9149999999999991      53.490000000000002      37.443000000000005
   178   1      7.1319999999999979      55.273000000000003                  41.009
   179   1      8.9149999999999991      53.490000000000002                  41.009
   180   1      8.9149999999999991      55.273000000000003      39.225999999999999
   181   1      7.1319999999999979      53.490000000000002      42.792000000000002
   182   1      7.1319999999999979      55.273000000000003      44.575000000000003
   183   1      8.9149999999999991      53.490000000000002      44.575000000000003
   184   1      8.9149999999999991      55.273000000000003      42.792000000000002
   185   1      7.1319999999999979      53.490000000000002      46.358000000000004
   186   1      7.1319999999999979      55.273000000000003      48.141000000000005
   187   1      8.9149999999999991      53.490000000000002      48.141000000000005
   188   1      8.9149999999999991      55.273000000000003      46.358000000000004
   189   1      7.1319999999999979      53.490000000000002      49.923999999999999
   190   1      7.1319999999999979      55.273000000000003      51.707000000000001
   191   1      8.9149999999999991      53.490000000000002      51.707000000000001
   192   1      8.9149999999999991      55.273000000000003      49.923999999999999
   193   1      7.1319999999999979      53.490000000000002      53.490000000000002
   194   1      7.1319999999999979      55.273000000000003      55.273000000000003
   195   1      8.9149999999999991      53.490000000000002      55.273000000000003
   196   1      8.9149999999999991      55.273000000000003      53.490000000000002
   197   1      7.1319999999999979      53.490000000000002      57.056000000000004
   198   1      7.1319999999999979      55.273000000000003      58.839000000000006
   199   1      8.9149999999999991      53.490000000000002      58.839000000000006
   200   1      8.9149999999999991      55.273000000000003      57.056000000000004
   201   1      8.9149999999999991      53.490000000000002      62.405000000000001
   202   1      8.9149999999999991      55.273000000000003                  60.622
   203   1      8.9149999999999991      57.056000000000004      37.443000000000005
   204   1      7.1319999999999979      58.839000000000006                  41.009
   205   1      8.9149999999999991      57.056000000000004                  41.009
   206   1      8.9149999999999991      58.839000000000006      39.225999999999999
   207   1      7.1319999999999979      57.056000000000004      42.792000000000002
   208   1      7.1319999999999979      58.839000000000006      44.575000000000003
   209   1      8.9149999999999991      57.056000000000004      44.575000000000003
   210   1      8.9149999999999991      58.839000000000006      42.792000000000002
   211   1      7.1319999999999979      57.056000000000004      46.358000000000004
   212   1      7.1319999999999979      58.839000000000006      48.141000000000005
   213   1      8.9149999999999991      57.056000000000004      48.141000000000005
   214   1      8.9149999999999991      58.839000000000006      46.358000000000004
   215   1      7.1319999999999979      57.056000000000004      49.923999999999999
   216   1      7.1319999999999979      58.839000000000006      51.707000000000001
   217   1      8.9149999999999991      57.056000000000004      51.707000000000001
   218   1      8.9149999999999991      58.839000000000006      49.923999999999999
   219   1      7.1319999999999979      57.056000000000004      53.490000000000002
   220   1      7.1319999999999979      58.839000000000006      55.273000000000003
   221   1      8.9149999999999991      57.056000000000004      55.273000000000003
   222   1      8.9149999999999991      58.839000000000006      53.490000000000002
   223   1      7.1319999999999979      57.056000000000004      57.056000000000004
   224   1      7.1319999999999979      58.839000000000006      58.839000000000006
   225   1      8.9149999999999991      57.056000000000004      58.839000000000006
   226   1      8.9149999999999991      58.839000000000006      57.056000000000004
   227   1      8.9149999999999991      57.056000000000004      62.405000000000001
   228   1      8.9149999999999991      58.839000000000006                  60.622
   229   1      8.9149999999999991                  60.622      37.443000000000005
   230   1      8.9149999999999991                  60.622                  41.009
   231   1      8.9149999999999991      62.405000000000001      39.225999999999999
   232   1      8.9149999999999991                  60.622      44.575000000000003
   233   1      8.9149999999999991      62.405000000000001      42.792000000000002
   234   1      8.9149999999999991                  60.622      48.141000000000005
   235   1      8.9149999999999991      62.405000000000001      46.358000000000004
   236   1      8.9149999999999991                  60.622      51.707000000000001
   237   1      8.9149999999999991      62.405000000000001      49.923999999999999
   238   1      8.9149999999999991                  60.622      55.273000000000003
   239   1      8.9149999999999991      62.405000000000001      53.490000000000002
   240   1      8.9149999999999991                  60.622      58.839000000000006
   241   1      8.9149999999999991      62.405000000000001      57.056000000000004
   242   1      8.9149999999999991                  60.622      62.405000000000001
   243   1      8.9149999999999991      62.405000000000001                  60.622
   244   1      12.481000000000002      33.877000000000002      35.660000000000004
   245   1      12.481000000000002      33.877000000000002      39.225999999999999
   246   1      12.481000000000002      33.877000000000002      42.792000000000002
   247   1      12.481000000000002      33.877000000000002      46.358000000000004
   248   1      12.481000000000002      33.877000000000002      49.923999999999999
   249   1      12.481000000000002      33.877000000000002      53.490000000000002
   250   1      12.481000000000002      33.877000000000002      57.056000000000004
   251   1      12.481000000000002      33.877000000000002                  60.622
   252   1      12.481000000000002      33.877000000000002      64.188000000000002
   253   1      12.481000000000002      35.660000000000004      33.877000000000002
   254   1                  10.698      35.660000000000004      35.660000000000004
   255   1                  10.698      37.443000000000005      37.443000000000005
   256   1      12.481000000000002      35.660000000000004      37.443000000000005
   257   1      12.481000000000002      37.443000000000005      35.660000000000004
   258   1                  10.698      35.660000000000004      39.225999999999999
   259   1                  10.698      37.443000000000005                  41.009
   260   1      12.481000000000002      35.660000000000004                  41.009
   261   1      12.481000000000002      37.443000000000005      39.225999999999999
   262   1                  10.698      35.660000000000004      42.792000000000002
   263   1                  10.698      37.443000000000005      44.575000000000003
   264   1      12.481000000000002      35.660000000000004      44.575000000000003
   265   1      12.481000000000002      37.443000000000005      42.792000000000002
   266   1                  10.698      35.660000000000004      46.358000000000004
   267   1                  10.698      37.443000000000005      48.141000000000005
   268   1      12.481000000000002      35.660000000000004      48.141000000000005
   269   1      12.481000000000002      37.443000000000005      46.358000000000004
   270   1                  10.698      35.660000000000004      49.923999999999999
   271   1                  10.698      37.443000000000005      51.707000000000001
   272   1      12.481000000000002      35.660000000000004      51.707000000000001
   273   1      12.481000000000002      37.443000000000005      49.923999999999999
   274   1                  10.698      35.660000000000004      53.490000000000002
   275   1                  10.698      37.443000000000005      55.273000000000003
   276   1      12.481000000000002      35.660000000000004      55.273000000000003
   277   1      12.481000000000002      37.443000000000005      53.490000000000002
   278   1                  10.698      35.660000000000004      57.056000000000004
   279   1                  10.698      37.443000000000005      58.839000000000006
   280   1      12.481000000000002      35.660000000000004      58.839000000000006
   281   1      12.481000000000002      37.443000000000005      57.056000000000004
   282   1                  10.698      35.660000000000004                  60.622
   283   1                  10.698      37.443000000000005      62.405000000000001
   284   1      12.481000000000002      35.660000000000004      62.405000000000001
   285   1      12.481000000000002      37.443000000000005                  60.622
   286   1                  10.698      35.660000000000004      64.188000000000002
   287   1      12.481000000000002      35.660000000000004      65.971000000000004
   288   1      12.481000000000002      37.443000000000005      64.188000000000002
   289   1      12.481000000000002      39.225999999999999      33.877000000000002
   290   1                  10.698      39.225999999999999      35.660000000000004
   291   1                  10.698                  41.009      37.443000000000005
   292   1      12.481000000000002      39.225999999999999      37.443000000000005
   293   1      12.481000000000002                  41.009      35.660000000000004
   294   1                  10.698      39.225999999999999      39.225999999999999
   295   1                  10.698                  41.009                  41.009
   296   1      12.481000000000002      39.225999999999999                  41.009
   297   1      12.481000000000002                  41.009      39.225999999999999
   298   1                  10.698      39.225999999999999      42.792000000000002
   299   1                  10.698                  41.009      44.575000000000003
   300   1      12.481000000000002      39.225999999999999      44.575000000000003
   301   1      12.481000000000002                  41.009      42.792000000000002
   302   1                  10.698      39.225999999999999      46.358000000000004
   303   1                  10.698                  41.009      48.141000000000005
   304   1      12.481000000000002      39.225999999999999      48.141000000000005
   305   1      12.481000000000002                  41.009      46.358000000000004
   306   1                  10.698      39.225999999999999      49.923999999999999
   307   1                  10.698                  41.009      51.707000000000001
   308   1      12.481000000000002      39.225999999999999      51.707000000000001
   309   1      12.481000000000002                  41.009      49.923999999999999
   310   1                  10.698      39.225999999999999      53.490000000000002
   311   1                  10.698                  41.009      55.273000000000003
   312   1      12.481000000000002      39.225999999999999      55.273000000000003
   313   1      12.481000000000002                  41.009      53.490000000000002
   314   1                  10.698      39.225999999999999      57.056000000000004
   315   1                  10.698                  41.009      58.839000000000006
   316   1      12.481000000000002      39.225999999999999      58.839000000000006
   317   1      12.481000000000002                  41.009      57.056000000000004
   318   1                  10.698      39.225999999999999                  60.622
   319   1                  10.698                  41.009      62.405000000000001
   320   1      12.481000000000002      39.225999999999999      62.405000000000001
   321   1      12.481000000000002                  41.009                  60.622
   322   1                  10.698      39.225999999999999      64.188000000000002
   323   1      12.481000000000002      39.225999999999999      65.971000000000004
   324   1      12.481000000000002                  41.009      64.188000000000002
   325   1      12.481000000000002      42.792000000000002      33.877000000000002
   326   1                  10.698      42.792000000000002      35.660000000000004
   327   1                  10.698      44.575000000000003      37.443000000000005
   328   1      12.481000000000002      42.792000000000002      37.443000000000005
   329   1      12.481000000000002      44.575000000000003      35.660000000000004
   330   1                  10.698      42.792000000000002      39.225999999999999
   331   1                  10.698      44.575000000000003                  41.009
   332   1      12.481000000000002      42.792000000000002                  41.009
   333   1      12.481000000000002      44.575000000000003      39.225999999999999
   334   1                  10.698      42.792000000000002      42.792000000000002
   335   1                  10.698      44.575000000000003      44.575000000000003
   336   1      12.481000000000002      42.792000000000002      44.575000000000003
   337   1      12.481000000000002      44.575000000000003      42.792000000000002
   338   1                  10.698      42.792000000000002      46.358000000000004
   339   1                  10.698      44.575000000000003      48.141000000000005
   340   1      12.481000000000002      42.792000000000002      48.141000000000005
   341   1      12.481000000000002      44.575000000000003      46.358000000000004
   342   1                  10.698      42.792000000000002      49.923999999999999
   343   1                  10.698      44.575000000000003      51.707000000000001
   344   1      12.481000000000002      42.792000000000002      51.707000000000001
   345   1      12.481000000000002      44.575000000000003      49.923999999999999
   346   1                  10.698      42.792000000000002      53.490000000000002
   347   1                  10.698      44.575000000000003      55.273000000000003
   348   1      12.481000000000002      42.792000000000002      55.273000000000003
   349   1      12.481000000000002      44.575000000000003      53.490000000000002
   350   1                  10.698      42.792000000000002      57.056000000000004
   351   1                  10.698      44.575000000000003      58.839000000000006
   352   1      12.481000000000002      42.792000000000002      58.839000000000006
   353   1      12.481000000000002      44.575000000000003      57.056000000000004
   354   1                  10.698      42.792000000000002                  60.622
   355   1                  10.698      44.575000000000003      62.405000000000001
   356   1      12.481000000000002      42.792000000000002      62.405000000000001
   357   1      12.481000000000002      44.575000000000003                  60.622
   358   1                  10.698      42.792000000000002      64.188000000000002