model_files/PtNi/PtNi_30000/PtNi_530/PtNi_530_fcc_29831_temp.data (written by ASE) 

29831 	 atoms 
2  atom types
0.0                     101  xlo xhi
0.0                     101  ylo yhi
0.0                     101  zlo zhi


Atoms 

     1   1      100.99999999999999      47.874999999999986      47.874999999999986
     2   1      1.9149999999999849      45.959999999999987      47.874999999999986
     3   1      1.9149999999999849      47.874999999999986      45.959999999999987
     4   1      100.99999999999999      47.874999999999986      51.704999999999991
     5   1      1.9149999999999849      45.959999999999987      51.704999999999991
     6   1      1.9149999999999849      47.874999999999986      49.789999999999992
     7   1      1.9149999999999849      47.874999999999986       53.61999999999999
     8   1      100.99999999999999      51.704999999999991      47.874999999999986
     9   1      1.9149999999999849      49.789999999999992      47.874999999999986
    10   1      1.9149999999999849      51.704999999999991      45.959999999999987
    11   1      100.99999999999999      49.789999999999992      49.789999999999992
    12   1      100.99999999999999      51.704999999999991      51.704999999999991
    13   1      1.9149999999999849      49.789999999999992      51.704999999999991
    14   1      1.9149999999999849      51.704999999999991      49.789999999999992
    15   1      1.9149999999999849      51.704999999999991       53.61999999999999
    16   1      1.9149999999999849       53.61999999999999      47.874999999999986
    17   1      1.9149999999999849       53.61999999999999      51.704999999999991
    18   1      5.7449999999999903       38.29999999999999      40.214999999999989
    19   1      5.7449999999999903      40.214999999999989       38.29999999999999
    20   1      5.7449999999999903       38.29999999999999      44.044999999999987
    21   1      5.7449999999999903      40.214999999999989      42.129999999999988
    22   1      5.7449999999999903       38.29999999999999      47.874999999999986
    23   1      5.7449999999999903      40.214999999999989      45.959999999999987
    24   1      5.7449999999999903       38.29999999999999      51.704999999999991
    25   1      5.7449999999999903      40.214999999999989      49.789999999999992
    26   1      5.7449999999999903       38.29999999999999      55.534999999999997
    27   1      5.7449999999999903      40.214999999999989       53.61999999999999
    28   1      5.7449999999999903       38.29999999999999      59.364999999999988
    29   1      5.7449999999999903      40.214999999999989      57.449999999999982
    30   1      5.7449999999999903      40.214999999999989      61.279999999999987
    31   1      5.7449999999999903      42.129999999999988      40.214999999999989
    32   1      5.7449999999999903      44.044999999999987       38.29999999999999
    33   1      3.8299999999999845      42.129999999999988      42.129999999999988
    34   1      3.8299999999999845      44.044999999999987      44.044999999999987
    35   1      5.7449999999999903      42.129999999999988      44.044999999999987
    36   1      5.7449999999999903      44.044999999999987      42.129999999999988
    37   1      3.8299999999999845      42.129999999999988      45.959999999999987
    38   1      3.8299999999999845      44.044999999999987      47.874999999999986
    39   1      5.7449999999999903      42.129999999999988      47.874999999999986
    40   1      5.7449999999999903      44.044999999999987      45.959999999999987
    41   1      3.8299999999999845      42.129999999999988      49.789999999999992
    42   1      3.8299999999999845      44.044999999999987      51.704999999999991
    43   1      5.7449999999999903      42.129999999999988      51.704999999999991
    44   1      5.7449999999999903      44.044999999999987      49.789999999999992
    45   1      3.8299999999999845      42.129999999999988       53.61999999999999
    46   1      3.8299999999999845      44.044999999999987      55.534999999999997
    47   1      5.7449999999999903      42.129999999999988      55.534999999999997
    48   1      5.7449999999999903      44.044999999999987       53.61999999999999
    49   1      3.8299999999999845      42.129999999999988      57.449999999999982
    50   1      5.7449999999999903      42.129999999999988      59.364999999999988
    51   1      5.7449999999999903      44.044999999999987      57.449999999999982
    52   1      5.7449999999999903      44.044999999999987      61.279999999999987
    53   1      5.7449999999999903      45.959999999999987      40.214999999999989
    54   1      5.7449999999999903      47.874999999999986       38.29999999999999
    55   1      3.8299999999999845      45.959999999999987      42.129999999999988
    56   1      3.8299999999999845      47.874999999999986      44.044999999999987
    57   1      5.7449999999999903      45.959999999999987      44.044999999999987
    58   1      5.7449999999999903      47.874999999999986      42.129999999999988
    59   1      3.8299999999999845      45.959999999999987      45.959999999999987
    60   1      3.8299999999999845      47.874999999999986      47.874999999999986
    61   1      5.7449999999999903      45.959999999999987      47.874999999999986
    62   1      5.7449999999999903      47.874999999999986      45.959999999999987
    63   1      3.8299999999999845      45.959999999999987      49.789999999999992
    64   1      3.8299999999999845      47.874999999999986      51.704999999999991
    65   1      5.7449999999999903      45.959999999999987      51.704999999999991
    66   1      5.7449999999999903      47.874999999999986      49.789999999999992
    67   1      3.8299999999999845      45.959999999999987       53.61999999999999
    68   1      3.8299999999999845      47.874999999999986      55.534999999999997
    69   1      5.7449999999999903      45.959999999999987      55.534999999999997
    70   1      5.7449999999999903      47.874999999999986       53.61999999999999
    71   1      3.8299999999999845      45.959999999999987      57.449999999999982
    72   1      5.7449999999999903      45.959999999999987      59.364999999999988
    73   1      5.7449999999999903      47.874999999999986      57.449999999999982
    74   1      5.7449999999999903      47.874999999999986      61.279999999999987
    75   1      5.7449999999999903      49.789999999999992      40.214999999999989
    76   1      5.7449999999999903      51.704999999999991       38.29999999999999
    77   1      3.8299999999999845      49.789999999999992      42.129999999999988
    78   1      3.8299999999999845      51.704999999999991      44.044999999999987
    79   1      5.7449999999999903      49.789999999999992      44.044999999999987
    80   1      5.7449999999999903      51.704999999999991      42.129999999999988
    81   1      3.8299999999999845      49.789999999999992      45.959999999999987
    82   1      3.8299999999999845      51.704999999999991      47.874999999999986
    83   1      5.7449999999999903      49.789999999999992      47.874999999999986
    84   1      5.7449999999999903      51.704999999999991      45.959999999999987
    85   1      3.8299999999999845      49.789999999999992      49.789999999999992
    86   1      3.8299999999999845      51.704999999999991      51.704999999999991
    87   1      5.7449999999999903      49.789999999999992      51.704999999999991
    88   1      5.7449999999999903      51.704999999999991      49.789999999999992
    89   1      3.8299999999999845      49.789999999999992       53.61999999999999
    90   1      3.8299999999999845      51.704999999999991      55.534999999999997
    91   1      5.7449999999999903      49.789999999999992      55.534999999999997
    92   1      5.7449999999999903      51.704999999999991       53.61999999999999
    93   1      3.8299999999999845      49.789999999999992      57.449999999999982
    94   1      5.7449999999999903      49.789999999999992      59.364999999999988
    95   1      5.7449999999999903      51.704999999999991      57.449999999999982
    96   1      5.7449999999999903      51.704999999999991      61.279999999999987
    97   1      5.7449999999999903       53.61999999999999      40.214999999999989
    98   1      5.7449999999999903      55.534999999999997       38.29999999999999
    99   1      3.8299999999999845       53.61999999999999      42.129999999999988
   100   1      3.8299999999999845      55.534999999999997      44.044999999999987
   101   1      5.7449999999999903       53.61999999999999      44.044999999999987
   102   1      5.7449999999999903      55.534999999999997      42.129999999999988
   103   1      3.8299999999999845       53.61999999999999      45.959999999999987
   104   1      3.8299999999999845      55.534999999999997      47.874999999999986
   105   1      5.7449999999999903       53.61999999999999      47.874999999999986
   106   1      5.7449999999999903      55.534999999999997      45.959999999999987
   107   1      3.8299999999999845       53.61999999999999      49.789999999999992
   108   1      3.8299999999999845      55.534999999999997      51.704999999999991
   109   1      5.7449999999999903       53.61999999999999      51.704999999999991
   110   1      5.7449999999999903      55.534999999999997      49.789999999999992
   111   1      3.8299999999999845       53.61999999999999       53.61999999999999
   112   1      3.8299999999999845      55.534999999999997      55.534999999999997
   113   1      5.7449999999999903       53.61999999999999      55.534999999999997
   114   1      5.7449999999999903      55.534999999999997       53.61999999999999
   115   1      3.8299999999999845       53.61999999999999      57.449999999999982
   116   1      5.7449999999999903       53.61999999999999      59.364999999999988
   117   1      5.7449999999999903      55.534999999999997      57.449999999999982
   118   1      5.7449999999999903      55.534999999999997      61.279999999999987
   119   1      5.7449999999999903      57.449999999999982      40.214999999999989
   120   1      5.7449999999999903      59.364999999999988       38.29999999999999
   121   1      3.8299999999999845      57.449999999999982      42.129999999999988
   122   1      5.7449999999999903      57.449999999999982      44.044999999999987
   123   1      5.7449999999999903      59.364999999999988      42.129999999999988
   124   1      3.8299999999999845      57.449999999999982      45.959999999999987
   125   1      5.7449999999999903      57.449999999999982      47.874999999999986
   126   1      5.7449999999999903      59.364999999999988      45.959999999999987
   127   1      3.8299999999999845      57.449999999999982      49.789999999999992
   128   1      5.7449999999999903      57.449999999999982      51.704999999999991
   129   1      5.7449999999999903      59.364999999999988      49.789999999999992
   130   1      3.8299999999999845      57.449999999999982       53.61999999999999
   131   1      5.7449999999999903      57.449999999999982      55.534999999999997
   132   1      5.7449999999999903      59.364999999999988       53.61999999999999
   133   1      3.8299999999999845      57.449999999999982      57.449999999999982
   134   1      5.7449999999999903      57.449999999999982      59.364999999999988
   135   1      5.7449999999999903      59.364999999999988      57.449999999999982
   136   1      5.7449999999999903      59.364999999999988      61.279999999999987
   137   1      5.7449999999999903      61.279999999999987      40.214999999999989
   138   1      5.7449999999999903      61.279999999999987      44.044999999999987
   139   1      5.7449999999999903      61.279999999999987      47.874999999999986
   140   1      5.7449999999999903      61.279999999999987      51.704999999999991
   141   1      5.7449999999999903      61.279999999999987      55.534999999999997
   142   1      5.7449999999999903      61.279999999999987      59.364999999999988
   143   1      9.5749999999999886      32.554999999999986      34.469999999999985
   144   1      9.5749999999999886      32.554999999999986       38.29999999999999
   145   1      9.5749999999999886      32.554999999999986      42.129999999999988
   146   1      9.5749999999999886      32.554999999999986      45.959999999999987
   147   1      9.5749999999999886      32.554999999999986      49.789999999999992
   148   1      9.5749999999999886      32.554999999999986       53.61999999999999
   149   1      9.5749999999999886      32.554999999999986      57.449999999999982
   150   1      9.5749999999999886      32.554999999999986      61.279999999999987
   151   1      9.5749999999999886      32.554999999999986      65.109999999999985
   152   1      9.5749999999999886      34.469999999999985      32.554999999999986
   153   1      7.6599999999999904      36.384999999999984      36.384999999999984
   154   1      9.5749999999999886      34.469999999999985      36.384999999999984
   155   1      9.5749999999999886      36.384999999999984      34.469999999999985
   156   1      7.6599999999999904      36.384999999999984      40.214999999999989
   157   1      9.5749999999999886      34.469999999999985      40.214999999999989
   158   1      9.5749999999999886      36.384999999999984       38.29999999999999
   159   1      7.6599999999999904      36.384999999999984      44.044999999999987
   160   1      9.5749999999999886      34.469999999999985      44.044999999999987
   161   1      9.5749999999999886      36.384999999999984      42.129999999999988
   162   1      7.6599999999999904      36.384999999999984      47.874999999999986
   163   1      9.5749999999999886      34.469999999999985      47.874999999999986
   164   1      9.5749999999999886      36.384999999999984      45.959999999999987
   165   1      7.6599999999999904      36.384999999999984      51.704999999999991
   166   1      9.5749999999999886      34.469999999999985      51.704999999999991
   167   1      9.5749999999999886      36.384999999999984      49.789999999999992
   168   1      7.6599999999999904      36.384999999999984      55.534999999999997
   169   1      9.5749999999999886      34.469999999999985      55.534999999999997
   170   1      9.5749999999999886      36.384999999999984       53.61999999999999
   171   1      7.6599999999999904      36.384999999999984      59.364999999999988
   172   1      9.5749999999999886      34.469999999999985      59.364999999999988
   173   1      9.5749999999999886      36.384999999999984      57.449999999999982
   174   1      7.6599999999999904      36.384999999999984      63.194999999999986
   175   1      9.5749999999999886      34.469999999999985      63.194999999999986
   176   1      9.5749999999999886      36.384999999999984      61.279999999999987
   177   1      9.5749999999999886      34.469999999999985      67.024999999999991
   178   1      9.5749999999999886      36.384999999999984      65.109999999999985
   179   1      9.5749999999999886       38.29999999999999      32.554999999999986
   180   1      7.6599999999999904      40.214999999999989      36.384999999999984
   181   1      9.5749999999999886       38.29999999999999      36.384999999999984
   182   1      9.5749999999999886      40.214999999999989      34.469999999999985
   183   1      7.6599999999999904       38.29999999999999       38.29999999999999
   184   1      7.6599999999999904      40.214999999999989      40.214999999999989
   185   1      9.5749999999999886       38.29999999999999      40.214999999999989
   186   1      9.5749999999999886      40.214999999999989       38.29999999999999
   187   1      7.6599999999999904       38.29999999999999      42.129999999999988
   188   1      7.6599999999999904      40.214999999999989      44.044999999999987
   189   1      9.5749999999999886       38.29999999999999      44.044999999999987
   190   1      9.5749999999999886      40.214999999999989      42.129999999999988
   191   1      7.6599999999999904       38.29999999999999      45.959999999999987
   192   1      7.6599999999999904      40.214999999999989      47.874999999999986
   193   1      9.5749999999999886       38.29999999999999      47.874999999999986
   194   1      9.5749999999999886      40.214999999999989      45.959999999999987
   195   1      7.6599999999999904       38.29999999999999      49.789999999999992
   196   1      7.6599999999999904      40.214999999999989      51.704999999999991
   197   1      9.5749999999999886       38.29999999999999      51.704999999999991
   198   1      9.5749999999999886      40.214999999999989      49.789999999999992
   199   1      7.6599999999999904       38.29999999999999       53.61999999999999
   200   1      7.6599999999999904      40.214999999999989      55.534999999999997
   201   1      9.5749999999999886       38.29999999999999      55.534999999999997
   202   1      9.5749999999999886      40.214999999999989       53.61999999999999
   203   1      7.6599999999999904       38.29999999999999      57.449999999999982
   204   1      7.6599999999999904      40.214999999999989      59.364999999999988
   205   1      9.5749999999999886       38.29999999999999      59.364999999999988
   206   1      9.5749999999999886      40.214999999999989      57.449999999999982
   207   1      7.6599999999999904       38.29999999999999      61.279999999999987
   208   1      7.6599999999999904      40.214999999999989      63.194999999999986
   209   1      9.5749999999999886       38.29999999999999      63.194999999999986
   210   1      9.5749999999999886      40.214999999999989      61.279999999999987
   211   1      9.5749999999999886       38.29999999999999      67.024999999999991
   212   1      9.5749999999999886      40.214999999999989      65.109999999999985
   213   1      9.5749999999999886      42.129999999999988      32.554999999999986
   214   1      7.6599999999999904      44.044999999999987      36.384999999999984
   215   1      9.5749999999999886      42.129999999999988      36.384999999999984
   216   1      9.5749999999999886      44.044999999999987      34.469999999999985
   217   1      7.6599999999999904      42.129999999999988       38.29999999999999
   218   1      7.6599999999999904      44.044999999999987      40.214999999999989
   219   1      9.5749999999999886      42.129999999999988      40.214999999999989
   220   1      9.5749999999999886      44.044999999999987       38.29999999999999
   221   1      7.6599999999999904      42.129999999999988      42.129999999999988
   222   1      7.6599999999999904      44.044999999999987      44.044999999999987
   223   1      9.5749999999999886      42.129999999999988      44.044999999999987
   224   1      9.5749999999999886      44.044999999999987      42.129999999999988
   225   1      7.6599999999999904      42.129999999999988      45.959999999999987
   226   1      7.6599999999999904      44.044999999999987      47.874999999999986
   227   1      9.5749999999999886      42.129999999999988      47.874999999999986
   228   1      9.5749999999999886      44.044999999999987      45.959999999999987
   229   1      7.6599999999999904      42.129999999999988      49.789999999999992
   230   1      7.6599999999999904      44.044999999999987      51.704999999999991
   231   1      9.5749999999999886      42.129999999999988      51.704999999999991
   232   1      9.5749999999999886      44.044999999999987      49.789999999999992
   233   1      7.6599999999999904      42.129999999999988       53.61999999999999
   234   1      7.6599999999999904      44.044999999999987      55.534999999999997
   235   1      9.5749999999999886      42.129999999999988      55.534999999999997
   236   1      9.5749999999999886      44.044999999999987       53.61999999999999
   237   1      7.6599999999999904      42.129999999999988      57.449999999999982
   238   1      7.6599999999999904      44.044999999999987      59.364999999999988
   239   1      9.5749999999999886      42.129999999999988      59.364999999999988
   240   1      9.5749999999999886      44.044999999999987      57.449999999999982
   241   1      7.6599999999999904      42.129999999999988      61.279999999999987
   242   1      7.6599999999999904      44.044999999999987      63.194999999999986
   243   1      9.5749999999999886      42.129999999999988      63.194999999999986
   244   1      9.5749999999999886      44.044999999999987      61.279999999999987
   245   1      9.5749999999999886      42.129999999999988      67.024999999999991
   246   1      9.5749999999999886      44.044999999999987      65.109999999999985
   247   1      9.5749999999999886      45.959999999999987      32.554999999999986
   248   1      7.6599999999999904      47.874999999999986      36.384999999999984
   249   1      9.5749999999999886      45.959999999999987      36.384999999999984
   250   1      9.5749999999999886      47.874999999999986      34.469999999999985
   251   1      7.6599999999999904      45.959999999999987       38.29999999999999
   252   1      7.6599999999999904      47.874999999999986      40.214999999999989
   253   1      9.5749999999999886      45.959999999999987      40.214999999999989
   254   1      9.5749999999999886      47.874999999999986       38.29999999999999
   255   1      7.6599999999999904      45.959999999999987      42.129999999999988
   256   1      7.6599999999999904      47.874999999999986      44.044999999999987
   257   1      9.5749999999999886      45.959999999999987      44.044999999999987
   258   1      9.5749999999999886      47.874999999999986      42.129999999999988
   259   1      7.6599999999999904      45.959999999999987      45.959999999999987
   260   1      7.6599999999999904      47.874999999999986      47.874999999999986
   261   1      9.5749999999999886      45.959999999999987      47.874999999999986
   262   1      9.5749999999999886      47.874999999999986      45.959999999999987
   263   1      7.6599999999999904      45.959999999999987      49.789999999999992
   264   1      7.6599999999999904      47.874999999999986      51.704999999999991
   265   1      9.5749999999999886      45.959999999999987      51.704999999999991
   266   1      9.5749999999999886      47.874999999999986      49.789999999999992
   267   1      7.6599999999999904      45.959999999999987       53.61999999999999
   268   1      7.6599999999999904      47.874999999999986      55.534999999999997
   269   1      9.5749999999999886      45.959999999999987      55.534999999999997
   270   1      9.5749999999999886      47.874999999999986       53.61999999999999
   271   1      7.6599999999999904      45.959999999999987      57.449999999999982
   272   1      7.6599999999999904      47.874999999999986      59.364999999999988
   273   1      9.5749999999999886      45.959999999999987      59.364999999999988
   274   1      9.5749999999999886      47.874999999999986      57.449999999999982
   275   1      7.6599999999999904      45.959999999999987      61.279999999999987
   276   1      7.6599999999999904      47.874999999999986      63.194999999999986
   277   1      9.5749999999999886      45.959999999999987      63.194999999999986
   278   1      9.5749999999999886      47.874999999999986      61.279999999999987
   279   1      9.5749999999999886      45.959999999999987      67.024999999999991
   280   1      9.5749999999999886      47.874999999999986      65.109999999999985
   281   1      9.5749999999999886      49.789999999999992      32.554999999999986
   282   1      7.6599999999999904      51.704999999999991      36.384999999999984
   283   1      9.5749999999999886      49.789999999999992      36.384999999999984
   284   1      9.5749999999999886      51.704999999999991      34.469999999999985
   285   1      7.6599999999999904      49.789999999999992       38.29999999999999
   286   1      7.6599999999999904      51.704999999999991      40.214999999999989
   287   1      9.5749999999999886      49.789999999999992      40.214999999999989
   288   1      9.5749999999999886      51.704999999999991       38.29999999999999
   289   1      7.6599999999999904      49.789999999999992      42.129999999999988
   290   1      7.6599999999999904      51.704999999999991      44.044999999999987
   291   1      9.5749999999999886      49.789999999999992      44.044999999999987
   292   1      9.5749999999999886      51.704999999999991      42.129999999999988
   293   1      7.6599999999999904      49.789999999999992      45.959999999999987
   294   1      7.6599999999999904      51.704999999999991      47.874999999999986
   295   1      9.5749999999999886      49.789999999999992      47.874999999999986
   296   1      9.5749999999999886      51.704999999999991      45.959999999999987
   297   1      7.6599999999999904      49.789999999999992      49.789999999999992
   298   1      7.6599999999999904      51.704999999999991      51.704999999999991
   299   1      9.5749999999999886      49.789999999999992      51.704999999999991
   300   1      9.5749999999999886      51.704999999999991      49.789999999999992
   301   1      7.6599999999999904      49.789999999999992       53.61999999999999
   302   1      7.6599999999999904      51.704999999999991      55.534999999999997
   303   1      9.5749999999999886      49.789999999999992      55.534999999999997
   304   1      9.5749999999999886      51.704999999999991       53.61999999999999
   305   1      7.6599999999999904      49.789999999999992      57.449999999999982
   306   1      7.6599999999999904      51.704999999999991      59.364999999999988
   307   1      9.5749999999999886      49.789999999999992      59.364999999999988
   308   1      9.5749999999999886      51.704999999999991      57.449999999999982
   309   1      7.6599999999999904      49.789999999999992      61.279999999999987
   310   1      7.6599999999999904      51.704999999999991      63.194999999999986
   311   1      9.5749999999999886      49.789999999999992      63.194999999999986
   312   1      9.5749999999999886      51.704999999999991      61.279999999999987
   313   1      9.5749999999999886      49.789999999999992      67.024999999999991
   314   1      9.5749999999999886      51.704999999999991      65.109999999999985
   315   1      9.5749999999999886       53.61999999999999      32.554999999999986
   316   1      7.6599999999999904      55.534999999999997      36.384999999999984
   317   1      9.5749999999999886       53.61999999999999      36.384999999999984
   318   1      9.5749999999999886      55.534999999999997      34.469999999999985
   319   1      7.6599999999999904       53.61999999999999       38.29999999999999
   320   1      7.6599999999999904      55.534999999999997      40.214999999999989
   321   1      9.5749999999999886       53.61999999999999      40.214999999999989
   322   1      9.5749999999999886      55.534999999999997       38.29999999999999
   323   1      7.6599999999999904       53.61999999999999      42.129999999999988
   324   1      7.6599999999999904      55.534999999999997      44.044999999999987
   325   1      9.5749999999999886       53.61999999999999      44.044999999999987
   326   1      9.5749999999999886      55.534999999999997      42.129999999999988
   327   1      7.6599999999999904       53.61999999999999      45.959999999999987
   328   1      7.6599999999999904      55.534999999999997      47.874999999999986
   329   1      9.5749999999999886       53.61999999999999      47.874999999999986
   330   1      9.5749999999999886      55.534999999999997      45.959999999999987
   331   1      7.6599999999999904       53.61999999999999      49.789999999999992
   332   1      7.6599999999999904      55.534999999999997      51.704999999999991
   333   1      9.5749999999999886       53.61999999999999      51.704999999999991
   334   1      9.5749999999999886      55.534999999999997      49.789999999999992
   335   1      7.6599999999999904       53.61999999999999       53.61999999999999
   336   1      7.6599999999999904      55.534999999999997      55.534999999999997
   337   1      9.5749999999999886       53.61999999999999      55.534999999999997
   338   1      9.5749999999999886      55.534999999999997       53.61999999999999
   339   1      7.6599999999999904       53.61999999999999      57.449999999999982
   340   1      7.6599999999999904      55.534999999999997      59.364999999999988
   341   1      9.5749999999999886       53.61999999999999      59.364999999999988
   342   1      9.5749999999999886      55.534999999999997      57.449999999999982
   343   1      7.6599999999999904       53.61999999999999      61.279999999999987
   344   1      7.6599999999999904      55.534999999999997      63.194999999999986
   345   1      9.5749999999999886       53.61999999999999      63.194999999999986
   346   1      9.5749999999999886      55.534999999999997      61.279999999999987
   347   1      9.5749999999999886       53.61999999999999      67.024999999999991
   348   1      9.5749999999999886      55.534999999999997      65.109999999999985
   349   1      9.5749999999999886      57.449999999999982      32.554999999999986
   350   1      7.6599999999999904      59.364999999999988      36.384999999999984
   351   1      9.5749999999999886      57.449999999999982      36.384999999999984
   352   1      9.5749999999999886      59.364999999999988      34.469999999999985
   353   1      7.6599999999999904      57.449999999999982       38.29999999999999
   354   1      7.6599999999999904      59.364999999999988      40.214999999999989
   355   1      9.5749999999999886      57.449999999999982      40.214999999999989
   356   1      9.5749999999999886      59.364999999999988       38.29999999999999
   357   1      7.6599999999999904      57.449999999999982      42.129999999999988
   358   1      7.6599999999999904      59.364999999999988      44.044999999999987