LAMMPS data file via write_data, version 30 Nov 2020, timestep = 0

29683 atoms
5 atom types

0 122 xlo xhi
0 122 ylo yhi
0 122 zlo zhi

Masses

1 58.69
2 58.933
3 51.96
4 55.847
5 54.94

Atoms # atomic

7 2 3.5949999999999847 59.31749999999999 59.31749999999999 0 0 0
8 1 5.392499999999984 57.51999999999999 59.31749999999999 0 0 0
9 4 5.392499999999984 59.31749999999999 57.51999999999999 0 0 0
32 1 7.1899999999999835 55.72249999999999 59.31749999999999 0 0 0
33 4 8.987499999999983 53.92499999999999 59.31749999999999 0 0 0
34 5 8.987499999999983 55.72249999999999 57.51999999999999 0 0 0
40 5 7.1899999999999835 59.31749999999999 55.72249999999999 0 0 0
41 2 8.987499999999983 57.51999999999999 55.72249999999999 0 0 0
42 3 8.987499999999983 59.31749999999999 53.92499999999999 0 0 0
43 4 7.1899999999999835 57.51999999999999 57.51999999999999 0 0 0
44 2 7.1899999999999835 59.31749999999999 59.31749999999999 0 0 0
45 1 8.987499999999983 57.51999999999999 59.31749999999999 0 0 0
46 4 8.987499999999983 59.31749999999999 57.51999999999999 0 0 0
93 2 10.784999999999991 52.12749999999999 59.31749999999999 0 0 0
94 5 12.58249999999999 50.32999999999999 59.31749999999999 0 0 0
95 4 12.58249999999999 52.12749999999999 57.51999999999999 0 0 0
101 4 10.784999999999991 55.72249999999999 55.72249999999999 0 0 0
102 1 12.58249999999999 53.92499999999999 55.72249999999999 0 0 0
103 4 12.58249999999999 55.72249999999999 53.92499999999999 0 0 0
104 2 10.784999999999991 53.92499999999999 57.51999999999999 0 0 0
105 3 10.784999999999991 55.72249999999999 59.31749999999999 0 0 0
106 5 12.58249999999999 53.92499999999999 59.31749999999999 0 0 0
107 3 12.58249999999999 55.72249999999999 57.51999999999999 0 0 0
117 5 10.784999999999991 59.31749999999999 52.12749999999999 0 0 0
118 1 12.58249999999999 57.51999999999999 52.12749999999999 0 0 0
119 2 12.58249999999999 59.31749999999999 50.32999999999999 0 0 0
120 3 10.784999999999991 57.51999999999999 53.92499999999999 0 0 0
121 4 10.784999999999991 59.31749999999999 55.72249999999999 0 0 0
122 4 12.58249999999999 57.51999999999999 55.72249999999999 0 0 0
123 5 12.58249999999999 59.31749999999999 53.92499999999999 0 0 0
124 1 10.784999999999991 57.51999999999999 57.51999999999999 0 0 0
125 5 10.784999999999991 59.31749999999999 59.31749999999999 0 0 0
126 3 12.58249999999999 57.51999999999999 59.31749999999999 0 0 0
127 3 12.58249999999999 59.31749999999999 57.51999999999999 0 0 0
206 3 14.37999999999999 48.53249999999999 59.31749999999999 0 0 0
207 1 16.177499999999988 46.735 59.31749999999999 0 0 0
208 1 16.177499999999988 48.53249999999999 57.51999999999999 0 0 0
214 3 14.37999999999999 52.12749999999999 55.72249999999999 0 0 0
215 4 16.177499999999988 50.32999999999999 55.72249999999999 0 0 0
216 2 16.177499999999988 52.12749999999999 53.92499999999999 0 0 0
217 4 14.37999999999999 50.32999999999999 57.51999999999999 0 0 0
218 5 14.37999999999999 52.12749999999999 59.31749999999999 0 0 0
219 2 16.177499999999988 50.32999999999999 59.31749999999999 0 0 0
220 1 16.177499999999988 52.12749999999999 57.51999999999999 0 0 0
230 5 14.37999999999999 55.72249999999999 52.12749999999999 0 0 0
231 3 16.177499999999988 53.92499999999999 52.12749999999999 0 0 0
232 3 16.177499999999988 55.72249999999999 50.32999999999999 0 0 0
233 5 14.37999999999999 53.92499999999999 53.92499999999999 0 0 0
234 3 14.37999999999999 55.72249999999999 55.72249999999999 0 0 0
235 1 16.177499999999988 53.92499999999999 55.72249999999999 0 0 0
236 3 16.177499999999988 55.72249999999999 53.92499999999999 0 0 0
237 4 14.37999999999999 53.92499999999999 57.51999999999999 0 0 0
238 3 14.37999999999999 55.72249999999999 59.31749999999999 0 0 0
239 2 16.177499999999988 53.92499999999999 59.31749999999999 0 0 0
240 2 16.177499999999988 55.72249999999999 57.51999999999999 0 0 0
254 3 14.37999999999999 59.31749999999999 48.53249999999999 0 0 0
255 1 16.177499999999988 57.51999999999999 48.53249999999999 0 0 0
256 1 16.177499999999988 59.31749999999999 46.735 0 0 0
257 3 14.37999999999999 57.51999999999999 50.32999999999999 0 0 0
258 3 14.37999999999999 59.31749999999999 52.12749999999999 0 0 0
259 3 16.177499999999988 57.51999999999999 52.12749999999999 0 0 0
260 4 16.177499999999988 59.31749999999999 50.32999999999999 0 0 0
261 2 14.37999999999999 57.51999999999999 53.92499999999999 0 0 0
262 3 14.37999999999999 59.31749999999999 55.72249999999999 0 0 0
263 1 16.177499999999988 57.51999999999999 55.72249999999999 0 0 0
264 5 16.177499999999988 59.31749999999999 53.92499999999999 0 0 0
265 2 14.37999999999999 57.51999999999999 57.51999999999999 0 0 0
266 4 14.37999999999999 59.31749999999999 59.31749999999999 0 0 0
267 5 16.177499999999988 57.51999999999999 59.31749999999999 0 0 0
268 5 16.177499999999988 59.31749999999999 57.51999999999999 0 0 0
387 4 17.97499999999999 44.93749999999999 59.31749999999999 0 0 0
388 4 19.77249999999999 43.13999999999999 59.31749999999999 0 0 0
389 3 19.77249999999999 44.93749999999999 57.51999999999999 0 0 0
395 3 17.97499999999999 48.53249999999999 55.72249999999999 0 0 0
396 4 19.77249999999999 46.735 55.72249999999999 0 0 0
397 3 19.77249999999999 48.53249999999999 53.92499999999999 0 0 0
398 1 17.97499999999999 46.735 57.51999999999999 0 0 0
399 4 17.97499999999999 48.53249999999999 59.31749999999999 0 0 0
400 4 19.77249999999999 46.735 59.31749999999999 0 0 0
401 1 19.77249999999999 48.53249999999999 57.51999999999999 0 0 0
411 1 17.97499999999999 52.12749999999999 52.12749999999999 0 0 0
412 2 19.77249999999999 50.32999999999999 52.12749999999999 0 0 0
413 4 19.77249999999999 52.12749999999999 50.32999999999999 0 0 0
414 4 17.97499999999999 50.32999999999999 53.92499999999999 0 0 0
415 2 17.97499999999999 52.12749999999999 55.72249999999999 0 0 0
416 1 19.77249999999999 50.32999999999999 55.72249999999999 0 0 0
417 2 19.77249999999999 52.12749999999999 53.92499999999999 0 0 0
418 5 17.97499999999999 50.32999999999999 57.51999999999999 0 0 0
419 2 17.97499999999999 52.12749999999999 59.31749999999999 0 0 0
420 3 19.77249999999999 50.32999999999999 59.31749999999999 0 0 0
421 1 19.77249999999999 52.12749999999999 57.51999999999999 0 0 0
435 5 17.97499999999999 55.72249999999999 48.53249999999999 0 0 0
436 3 19.77249999999999 53.92499999999999 48.53249999999999 0 0 0
437 5 19.77249999999999 55.72249999999999 46.735 0 0 0
438 5 17.97499999999999 53.92499999999999 50.32999999999999 0 0 0
439 4 17.97499999999999 55.72249999999999 52.12749999999999 0 0 0
440 5 19.77249999999999 53.92499999999999 52.12749999999999 0 0 0
441 3 19.77249999999999 55.72249999999999 50.32999999999999 0 0 0
442 2 17.97499999999999 53.92499999999999 53.92499999999999 0 0 0
443 2 17.97499999999999 55.72249999999999 55.72249999999999 0 0 0
444 2 19.77249999999999 53.92499999999999 55.72249999999999 0 0 0
445 1 19.77249999999999 55.72249999999999 53.92499999999999 0 0 0
446 2 17.97499999999999 53.92499999999999 57.51999999999999 0 0 0
447 5 17.97499999999999 55.72249999999999 59.31749999999999 0 0 0
448 1 19.77249999999999 53.92499999999999 59.31749999999999 0 0 0
449 4 19.77249999999999 55.72249999999999 57.51999999999999 0 0 0
467 5 17.97499999999999 59.31749999999999 44.93749999999999 0 0 0
468 5 19.77249999999999 57.51999999999999 44.93749999999999 0 0 0
469 1 19.77249999999999 59.31749999999999 43.13999999999999 0 0 0
470 1 17.97499999999999 57.51999999999999 46.735 0 0 0
471 1 17.97499999999999 59.31749999999999 48.53249999999999 0 0 0
472 1 19.77249999999999 57.51999999999999 48.53249999999999 0 0 0
473 5 19.77249999999999 59.31749999999999 46.735 0 0 0
474 2 17.97499999999999 57.51999999999999 50.32999999999999 0 0 0
475 1 17.97499999999999 59.31749999999999 52.12749999999999 0 0 0
476 2 19.77249999999999 57.51999999999999 52.12749999999999 0 0 0
477 5 19.77249999999999 59.31749999999999 50.32999999999999 0 0 0
478 5 17.97499999999999 57.51999999999999 53.92499999999999 0 0 0
479 3 17.97499999999999 59.31749999999999 55.72249999999999 0 0 0
480 5 19.77249999999999 57.51999999999999 55.72249999999999 0 0 0
481 3 19.77249999999999 59.31749999999999 53.92499999999999 0 0 0
482 1 17.97499999999999 57.51999999999999 57.51999999999999 0 0 0
483 3 17.97499999999999 59.31749999999999 59.31749999999999 0 0 0
484 4 19.77249999999999 57.51999999999999 59.31749999999999 0 0 0
485 5 19.77249999999999 59.31749999999999 57.51999999999999 0 0 0
652 1 21.569999999999997 41.342499999999994 59.31749999999999 0 0 0
653 3 23.367499999999996 39.544999999999995 59.31749999999999 0 0 0
654 1 23.367499999999996 41.342499999999994 57.51999999999999 0 0 0
660 3 21.569999999999997 44.93749999999999 55.72249999999999 0 0 0
661 5 23.367499999999996 43.13999999999999 55.72249999999999 0 0 0
662 5 23.367499999999996 44.93749999999999 53.92499999999999 0 0 0
663 1 21.569999999999997 43.13999999999999 57.51999999999999 0 0 0
664 1 21.569999999999997 44.93749999999999 59.31749999999999 0 0 0
665 1 23.367499999999996 43.13999999999999 59.31749999999999 0 0 0
666 5 23.367499999999996 44.93749999999999 57.51999999999999 0 0 0
676 2 21.569999999999997 48.53249999999999 48.53249999999999 0 0 0
677 2 23.367499999999996 46.735 48.53249999999999 0 0 0
678 2 23.367499999999996 48.53249999999999 46.735 0 0 0
679 1 21.569999999999997 48.53249999999999 52.12749999999999 0 0 0
680 5 23.367499999999996 46.735 52.12749999999999 0 0 0
681 1 23.367499999999996 48.53249999999999 50.32999999999999 0 0 0
682 2 21.569999999999997 46.735 53.92499999999999 0 0 0
683 5 21.569999999999997 48.53249999999999 55.72249999999999 0 0 0
684 2 23.367499999999996 46.735 55.72249999999999 0 0 0
685 3 23.367499999999996 48.53249999999999 53.92499999999999 0 0 0
686 1 21.569999999999997 46.735 57.51999999999999 0 0 0
687 2 21.569999999999997 48.53249999999999 59.31749999999999 0 0 0
688 3 23.367499999999996 46.735 59.31749999999999 0 0 0
689 2 23.367499999999996 48.53249999999999 57.51999999999999 0 0 0
706 4 21.569999999999997 52.12749999999999 48.53249999999999 0 0 0
707 4 23.367499999999996 50.32999999999999 48.53249999999999 0 0 0
708 1 23.367499999999996 52.12749999999999 46.735 0 0 0
709 4 21.569999999999997 50.32999999999999 50.32999999999999 0 0 0
710 1 21.569999999999997 52.12749999999999 52.12749999999999 0 0 0
711 1 23.367499999999996 50.32999999999999 52.12749999999999 0 0 0
712 5 23.367499999999996 52.12749999999999 50.32999999999999 0 0 0
713 3 21.569999999999997 50.32999999999999 53.92499999999999 0 0 0
714 5 21.569999999999997 52.12749999999999 55.72249999999999 0 0 0
715 3 23.367499999999996 50.32999999999999 55.72249999999999 0 0 0
716 5 23.367499999999996 52.12749999999999 53.92499999999999 0 0 0
717 5 21.569999999999997 50.32999999999999 57.51999999999999 0 0 0
718 4 21.569999999999997 52.12749999999999 59.31749999999999 0 0 0
719 2 23.367499999999996 50.32999999999999 59.31749999999999 0 0 0
720 4 23.367499999999996 52.12749999999999 57.51999999999999 0 0 0
738 1 21.569999999999997 55.72249999999999 44.93749999999999 0 0 0
739 4 23.367499999999996 53.92499999999999 44.93749999999999 0 0 0
740 1 23.367499999999996 55.72249999999999 43.13999999999999 0 0 0
741 3 21.569999999999997 53.92499999999999 46.735 0 0 0
742 2 21.569999999999997 55.72249999999999 48.53249999999999 0 0 0
743 4 23.367499999999996 53.92499999999999 48.53249999999999 0 0 0
744 5 23.367499999999996 55.72249999999999 46.735 0 0 0
745 2 21.569999999999997 53.92499999999999 50.32999999999999 0 0 0
746 1 21.569999999999997 55.72249999999999 52.12749999999999 0 0 0
747 3 23.367499999999996 53.92499999999999 52.12749999999999 0 0 0
748 5 23.367499999999996 55.72249999999999 50.32999999999999 0 0 0
749 5 21.569999999999997 53.92499999999999 53.92499999999999 0 0 0
750 2 21.569999999999997 55.72249999999999 55.72249999999999 0 0 0
751 3 23.367499999999996 53.92499999999999 55.72249999999999 0 0 0
752 3 23.367499999999996 55.72249999999999 53.92499999999999 0 0 0
753 1 21.569999999999997 53.92499999999999 57.51999999999999 0 0 0
754 4 21.569999999999997 55.72249999999999 59.31749999999999 0 0 0
755 5 23.367499999999996 53.92499999999999 59.31749999999999 0 0 0
756 4 23.367499999999996 55.72249999999999 57.51999999999999 0 0 0
778 1 21.569999999999997 59.31749999999999 41.342499999999994 0 0 0
779 2 23.367499999999996 57.51999999999999 41.342499999999994 0 0 0
780 2 23.367499999999996 59.31749999999999 39.544999999999995 0 0 0
781 3 21.569999999999997 57.51999999999999 43.13999999999999 0 0 0
782 5 21.569999999999997 59.31749999999999 44.93749999999999 0 0 0
783 1 23.367499999999996 57.51999999999999 44.93749999999999 0 0 0
784 5 23.367499999999996 59.31749999999999 43.13999999999999 0 0 0
785 3 21.569999999999997 57.51999999999999 46.735 0 0 0
786 3 21.569999999999997 59.31749999999999 48.53249999999999 0 0 0
787 2 23.367499999999996 57.51999999999999 48.53249999999999 0 0 0
788 3 23.367499999999996 59.31749999999999 46.735 0 0 0
789 2 21.569999999999997 57.51999999999999 50.32999999999999 0 0 0
790 1 21.569999999999997 59.31749999999999 52.12749999999999 0 0 0
791 4 23.367499999999996 57.51999999999999 52.12749999999999 0 0 0
792 3 23.367499999999996 59.31749999999999 50.32999999999999 0 0 0
793 1 21.569999999999997 57.51999999999999 53.92499999999999 0 0 0
794 2 21.569999999999997 59.31749999999999 55.72249999999999 0 0 0
795 2 23.367499999999996 57.51999999999999 55.72249999999999 0 0 0
796 5 23.367499999999996 59.31749999999999 53.92499999999999 0 0 0
797 2 21.569999999999997 57.51999999999999 57.51999999999999 0 0 0
798 1 21.569999999999997 59.31749999999999 59.31749999999999 0 0 0
799 5 23.367499999999996 57.51999999999999 59.31749999999999 0 0 0
800 5 23.367499999999996 59.31749999999999 57.51999999999999 0 0 0
1029 2 25.164999999999996 37.747499999999995 59.31749999999999 0 0 0
1030 2 26.96249999999999 35.949999999999996 59.31749999999999 0 0 0
1031 3 26.96249999999999 37.747499999999995 57.51999999999999 0 0 0
1037 5 25.164999999999996 41.342499999999994 55.72249999999999 0 0 0
1038 5 26.96249999999999 39.544999999999995 55.72249999999999 0 0 0
1039 1 26.96249999999999 41.342499999999994 53.92499999999999 0 0 0
1040 2 25.164999999999996 39.544999999999995 57.51999999999999 0 0 0
1041 1 25.164999999999996 41.342499999999994 59.31749999999999 0 0 0
1042 4 26.96249999999999 39.544999999999995 59.31749999999999 0 0 0
1043 5 26.96249999999999 41.342499999999994 57.51999999999999 0 0 0
1053 4 25.164999999999996 44.93749999999999 48.53249999999999 0 0 0
1054 3 26.96249999999999 43.13999999999999 48.53249999999999 0 0 0
1055 5 26.96249999999999 44.93749999999999 46.735 0 0 0
1056 2 25.164999999999996 44.93749999999999 52.12749999999999 0 0 0
1057 4 26.96249999999999 43.13999999999999 52.12749999999999 0 0 0
1058 4 26.96249999999999 44.93749999999999 50.32999999999999 0 0 0
1059 5 25.164999999999996 43.13999999999999 53.92499999999999 0 0 0
1060 2 25.164999999999996 44.93749999999999 55.72249999999999 0 0 0
1061 5 26.96249999999999 43.13999999999999 55.72249999999999 0 0 0
1062 3 26.96249999999999 44.93749999999999 53.92499999999999 0 0 0
1063 2 25.164999999999996 43.13999999999999 57.51999999999999 0 0 0
1064 2 25.164999999999996 44.93749999999999 59.31749999999999 0 0 0
1065 4 26.96249999999999 43.13999999999999 59.31749999999999 0 0 0
1066 1 26.96249999999999 44.93749999999999 57.51999999999999 0 0 0
1083 3 25.164999999999996 48.53249999999999 44.93749999999999 0 0 0
1084 2 26.96249999999999 46.735 44.93749999999999 0 0 0
1085 1 26.96249999999999 48.53249999999999 43.13999999999999 0 0 0
1086 5 25.164999999999996 46.735 46.735 0 0 0
1087 1 25.164999999999996 48.53249999999999 48.53249999999999 0 0 0
1088 4 26.96249999999999 46.735 48.53249999999999 0 0 0
1089 4 26.96249999999999 48.53249999999999 46.735 0 0 0
1090 3 25.164999999999996 46.735 50.32999999999999 0 0 0
1091 4 25.164999999999996 48.53249999999999 52.12749999999999 0 0 0
1092 5 26.96249999999999 46.735 52.12749999999999 0 0 0
1093 4 26.96249999999999 48.53249999999999 50.32999999999999 0 0 0
1094 5 25.164999999999996 46.735 53.92499999999999 0 0 0
1095 2 25.164999999999996 48.53249999999999 55.72249999999999 0 0 0
1096 4 26.96249999999999 46.735 55.72249999999999 0 0 0
1097 3 26.96249999999999 48.53249999999999 53.92499999999999 0 0 0
1098 5 25.164999999999996 46.735 57.51999999999999 0 0 0
1099 1 25.164999999999996 48.53249999999999 59.31749999999999 0 0 0
1100 5 26.96249999999999 46.735 59.31749999999999 0 0 0
1101 5 26.96249999999999 48.53249999999999 57.51999999999999 0 0 0
1123 1 25.164999999999996 52.12749999999999 44.93749999999999 0 0 0
1124 3 26.96249999999999 50.32999999999999 44.93749999999999 0 0 0
1125 4 26.96249999999999 52.12749999999999 43.13999999999999 0 0 0
1126 2 25.164999999999996 50.32999999999999 46.735 0 0 0
1127 4 25.164999999999996 52.12749999999999 48.53249999999999 0 0 0
1128 3 26.96249999999999 50.32999999999999 48.53249999999999 0 0 0
1129 4 26.96249999999999 52.12749999999999 46.735 0 0 0
1130 1 25.164999999999996 50.32999999999999 50.32999999999999 0 0 0
1131 1 25.164999999999996 52.12749999999999 52.12749999999999 0 0 0
1132 5 26.96249999999999 50.32999999999999 52.12749999999999 0 0 0
1133 4 26.96249999999999 52.12749999999999 50.32999999999999 0 0 0
1134 1 25.164999999999996 50.32999999999999 53.92499999999999 0 0 0
1135 2 25.164999999999996 52.12749999999999 55.72249999999999 0 0 0
1136 3 26.96249999999999 50.32999999999999 55.72249999999999 0 0 0
1137 2 26.96249999999999 52.12749999999999 53.92499999999999 0 0 0
1138 3 25.164999999999996 50.32999999999999 57.51999999999999 0 0 0
1139 2 25.164999999999996 52.12749999999999 59.31749999999999 0 0 0
1140 5 26.96249999999999 50.32999999999999 59.31749999999999 0 0 0
1141 4 26.96249999999999 52.12749999999999 57.51999999999999 0 0 0
1163 2 25.164999999999996 55.72249999999999 41.342499999999994 0 0 0
1164 2 26.96249999999999 53.92499999999999 41.342499999999994 0 0 0
1165 1 26.96249999999999 55.72249999999999 39.544999999999995 0 0 0
1166 3 25.164999999999996 53.92499999999999 43.13999999999999 0 0 0
1167 1 25.164999999999996 55.72249999999999 44.93749999999999 0 0 0
1168 2 26.96249999999999 53.92499999999999 44.93749999999999 0 0 0
1169 3 26.96249999999999 55.72249999999999 43.13999999999999 0 0 0
1170 4 25.164999999999996 53.92499999999999 46.735 0 0 0
1171 5 25.164999999999996 55.72249999999999 48.53249999999999 0 0 0
1172 3 26.96249999999999 53.92499999999999 48.53249999999999 0 0 0
1173 5 26.96249999999999 55.72249999999999 46.735 0 0 0
1174 1 25.164999999999996 53.92499999999999 50.32999999999999 0 0 0
1175 3 25.164999999999996 55.72249999999999 52.12749999999999 0 0 0
1176 2 26.96249999999999 53.92499999999999 52.12749999999999 0 0 0
1177 4 26.96249999999999 55.72249999999999 50.32999999999999 0 0 0
1178 3 25.164999999999996 53.92499999999999 53.92499999999999 0 0 0
1179 5 25.164999999999996 55.72249999999999 55.72249999999999 0 0 0
1180 3 26.96249999999999 53.92499999999999 55.72249999999999 0 0 0
1181 5 26.96249999999999 55.72249999999999 53.92499999999999 0 0 0
1182 1 25.164999999999996 53.92499999999999 57.51999999999999 0 0 0
1183 4 25.164999999999996 55.72249999999999 59.31749999999999 0 0 0
1184 5 26.96249999999999 53.92499999999999 59.31749999999999 0 0 0
1185 5 26.96249999999999 55.72249999999999 57.51999999999999 0 0 0
1211 2 25.164999999999996 59.31749999999999 37.747499999999995 0 0 0
1212 1 26.96249999999999 57.51999999999999 37.747499999999995 0 0 0
1213 4 26.96249999999999 59.31749999999999 35.949999999999996 0 0 0
1214 2 25.164999999999996 57.51999999999999 39.544999999999995 0 0 0
1215 2 25.164999999999996 59.31749999999999 41.342499999999994 0 0 0
1216 2 26.96249999999999 57.51999999999999 41.342499999999994 0 0 0
1217 3 26.96249999999999 59.31749999999999 39.544999999999995 0 0 0
1218 2 25.164999999999996 57.51999999999999 43.13999999999999 0 0 0
1219 2 25.164999999999996 59.31749999999999 44.93749999999999 0 0 0
1220 4 26.96249999999999 57.51999999999999 44.93749999999999 0 0 0
1221 5 26.96249999999999 59.31749999999999 43.13999999999999 0 0 0
1222 3 25.164999999999996 57.51999999999999 46.735 0 0 0
1223 1 25.164999999999996 59.31749999999999 48.53249999999999 0 0 0
1224 5 26.96249999999999 57.51999999999999 48.53249999999999 0 0 0
1225 1 26.96249999999999 59.31749999999999 46.735 0 0 0
1226 4 25.164999999999996 57.51999999999999 50.32999999999999 0 0 0
1227 2 25.164999999999996 59.31749999999999 52.12749999999999 0 0 0
1228 5 26.96249999999999 57.51999999999999 52.12749999999999 0 0 0
1229 5 26.96249999999999 59.31749999999999 50.32999999999999 0 0 0
1230 3 25.164999999999996 57.51999999999999 53.92499999999999 0 0 0
1231 3 25.164999999999996 59.31749999999999 55.72249999999999 0 0 0
1232 5 26.96249999999999 57.51999999999999 55.72249999999999 0 0 0
1233 1 26.96249999999999 59.31749999999999 53.92499999999999 0 0 0
1234 2 25.164999999999996 57.51999999999999 57.51999999999999 0 0 0
1235 4 25.164999999999996 59.31749999999999 59.31749999999999 0 0 0
1236 4 26.96249999999999 57.51999999999999 59.31749999999999 0 0 0
1237 1 26.96249999999999 59.31749999999999 57.51999999999999 0 0 0
1538 2 28.75999999999999 34.152499999999996 59.31749999999999 0 0 0
1539 1 30.557499999999994 32.355 59.31749999999999 0 0 0
1540 4 30.557499999999994 34.152499999999996 57.51999999999999 0 0 0
1546 2 28.75999999999999 37.747499999999995 55.72249999999999 0 0 0
1547 3 30.557499999999994 35.949999999999996 55.72249999999999 0 0 0
1548 1 30.557499999999994 37.747499999999995 53.92499999999999 0 0 0
1549 3 28.75999999999999 35.949999999999996 57.51999999999999 0 0 0
1550 1 28.75999999999999 37.747499999999995 59.31749999999999 0 0 0
1551 5 30.557499999999994 35.949999999999996 59.31749999999999 0 0 0
1552 4 30.557499999999994 37.747499999999995 57.51999999999999 0 0 0
1562 4 28.75999999999999 41.342499999999994 48.53249999999999 0 0 0
1563 5 30.557499999999994 39.544999999999995 48.53249999999999 0 0 0
1564 1 30.557499999999994 41.342499999999994 46.735 0 0 0
1565 2 28.75999999999999 41.342499999999994 52.12749999999999 0 0 0
1566 5 30.557499999999994 39.544999999999995 52.12749999999999 0 0 0
1567 1 30.557499999999994 41.342499999999994 50.32999999999999 0 0 0
1568 2 28.75999999999999 39.544999999999995 53.92499999999999 0 0 0
1569 3 28.75999999999999 41.342499999999994 55.72249999999999 0 0 0
1570 3 30.557499999999994 39.544999999999995 55.72249999999999 0 0 0
1571 5 30.557499999999994 41.342499999999994 53.92499999999999 0 0 0
1572 3 28.75999999999999 39.544999999999995 57.51999999999999 0 0 0
1573 3 28.75999999999999 41.342499999999994 59.31749999999999 0 0 0
1574 5 30.557499999999994 39.544999999999995 59.31749999999999 0 0 0
1575 1 30.557499999999994 41.342499999999994 57.51999999999999 0 0 0
1592 2 28.75999999999999 44.93749999999999 44.93749999999999 0 0 0
1593 4 30.557499999999994 43.13999999999999 44.93749999999999 0 0 0
1594 3 30.557499999999994 44.93749999999999 43.13999999999999 0 0 0
1595 2 28.75999999999999 43.13999999999999 46.735 0 0 0
1596 3 28.75999999999999 44.93749999999999 48.53249999999999 0 0 0
1597 1 30.557499999999994 43.13999999999999 48.53249999999999 0 0 0
1598 1 30.557499999999994 44.93749999999999 46.735 0 0 0
1599 3 28.75999999999999 43.13999999999999 50.32999999999999 0 0 0
1600 1 28.75999999999999 44.93749999999999 52.12749999999999 0 0 0
1601 5 30.557499999999994 43.13999999999999 52.12749999999999 0 0 0
1602 2 30.557499999999994 44.93749999999999 50.32999999999999 0 0 0
1603 4 28.75999999999999 43.13999999999999 53.92499999999999 0 0 0
1604 4 28.75999999999999 44.93749999999999 55.72249999999999 0 0 0
1605 5 30.557499999999994 43.13999999999999 55.72249999999999 0 0 0
1606 4 30.557499999999994 44.93749999999999 53.92499999999999 0 0 0
1607 1 28.75999999999999 43.13999999999999 57.51999999999999 0 0 0
1608 2 28.75999999999999 44.93749999999999 59.31749999999999 0 0 0
1609 1 30.557499999999994 43.13999999999999 59.31749999999999 0 0 0
1610 5 30.557499999999994 44.93749999999999 57.51999999999999 0 0 0
1632 1 28.75999999999999 48.53249999999999 41.342499999999994 0 0 0
1633 2 30.557499999999994 46.735 41.342499999999994 0 0 0
1634 3 30.557499999999994 48.53249999999999 39.544999999999995 0 0 0
1635 5 28.75999999999999 46.735 43.13999999999999 0 0 0
1636 1 28.75999999999999 48.53249999999999 44.93749999999999 0 0 0
1637 2 30.557499999999994 46.735 44.93749999999999 0 0 0
1638 1 30.557499999999994 48.53249999999999 43.13999999999999 0 0 0
1639 1 28.75999999999999 46.735 46.735 0 0 0
1640 2 28.75999999999999 48.53249999999999 48.53249999999999 0 0 0
1641 3 30.557499999999994 46.735 48.53249999999999 0 0 0
1642 3 30.557499999999994 48.53249999999999 46.735 0 0 0
1643 2 28.75999999999999 46.735 50.32999999999999 0 0 0
1644 5 28.75999999999999 48.53249999999999 52.12749999999999 0 0 0
1645 2 30.557499999999994 46.735 52.12749999999999 0 0 0
1646 4 30.557499999999994 48.53249999999999 50.32999999999999 0 0 0
1647 2 28.75999999999999 46.735 53.92499999999999 0 0 0
1648 4 28.75999999999999 48.53249999999999 55.72249999999999 0 0 0
1649 4 30.557499999999994 46.735 55.72249999999999 0 0 0
1650 2 30.557499999999994 48.53249999999999 53.92499999999999 0 0 0
1651 5 28.75999999999999 46.735 57.51999999999999 0 0 0
1652 3 28.75999999999999 48.53249999999999 59.31749999999999 0 0 0
1653 1 30.557499999999994 46.735 59.31749999999999 0 0 0
1654 4 30.557499999999994 48.53249999999999 57.51999999999999 0 0 0
1680 1 28.75999999999999 52.12749999999999 41.342499999999994 0 0 0
1681 2 30.557499999999994 50.32999999999999 41.342499999999994 0 0 0
1682 5 30.557499999999994 52.12749999999999 39.544999999999995 0 0 0
1683 3 28.75999999999999 50.32999999999999 43.13999999999999 0 0 0
1684 5 28.75999999999999 52.12749999999999 44.93749999999999 0 0 0
1685 4 30.557499999999994 50.32999999999999 44.93749999999999 0 0 0
1686 4 30.557499999999994 52.12749999999999 43.13999999999999 0 0 0
1687 5 28.75999999999999 50.32999999999999 46.735 0 0 0
1688 3 28.75999999999999 52.12749999999999 48.53249999999999 0 0 0
1689 3 30.557499999999994 50.32999999999999 48.53249999999999 0 0 0
1690 5 30.557499999999994 52.12749999999999 46.735 0 0 0
1691 4 28.75999999999999 50.32999999999999 50.32999999999999 0 0 0
1692 5 28.75999999999999 52.12749999999999 52.12749999999999 0 0 0
1693 5 30.557499999999994 50.32999999999999 52.12749999999999 0 0 0
1694 4 30.557499999999994 52.12749999999999 50.32999999999999 0 0 0
1695 1 28.75999999999999 50.32999999999999 53.92499999999999 0 0 0
1696 4 28.75999999999999 52.12749999999999 55.72249999999999 0 0 0
1697 2 30.557499999999994 50.32999999999999 55.72249999999999 0 0 0
1698 4 30.557499999999994 52.12749999999999 53.92499999999999 0 0 0
1699 1 28.75999999999999 50.32999999999999 57.51999999999999 0 0 0
1700 4 28.75999999999999 52.12749999999999 59.31749999999999 0 0 0
1701 1 30.557499999999994 50.32999999999999 59.31749999999999 0 0 0
1702 2 30.557499999999994 52.12749999999999 57.51999999999999 0 0 0
1728 3 28.75999999999999 55.72249999999999 37.747499999999995 0 0 0
1729 2 30.557499999999994 53.92499999999999 37.747499999999995 0 0 0
1730 2 30.557499999999994 55.72249999999999 35.949999999999996 0 0 0
1731 1 28.75999999999999 53.92499999999999 39.544999999999995 0 0 0
1732 1 28.75999999999999 55.72249999999999 41.342499999999994 0 0 0
1733 1 30.557499999999994 53.92499999999999 41.342499999999994 0 0 0
1734 4 30.557499999999994 55.72249999999999 39.544999999999995 0 0 0
1735 2 28.75999999999999 53.92499999999999 43.13999999999999 0 0 0
1736 5 28.75999999999999 55.72249999999999 44.93749999999999 0 0 0
1737 1 30.557499999999994 53.92499999999999 44.93749999999999 0 0 0
1738 5 30.557499999999994 55.72249999999999 43.13999999999999 0 0 0
1739 3 28.75999999999999 53.92499999999999 46.735 0 0 0
1740 2 28.75999999999999 55.72249999999999 48.53249999999999 0 0 0
1741 5 30.557499999999994 53.92499999999999 48.53249999999999 0 0 0
1742 4 30.557499999999994 55.72249999999999 46.735 0 0 0
1743 3 28.75999999999999 53.92499999999999 50.32999999999999 0 0 0
1744 4 28.75999999999999 55.72249999999999 52.12749999999999 0 0 0
1745 3 30.557499999999994 53.92499999999999 52.12749999999999 0 0 0
1746 4 30.557499999999994 55.72249999999999 50.32999999999999 0 0 0
1747 1 28.75999999999999 53.92499999999999 53.92499999999999 0 0 0
1748 3 28.75999999999999 55.72249999999999 55.72249999999999 0 0 0
1749 1 30.557499999999994 53.92499999999999 55.72249999999999 0 0 0
1750 4 30.557499999999994 55.72249999999999 53.92499999999999 0 0 0
1751 2 28.75999999999999 53.92499999999999 57.51999999999999 0 0 0
1752 4 28.75999999999999 55.72249999999999 59.31749999999999 0 0 0
1753 5 30.557499999999994 53.92499999999999 59.31749999999999 0 0 0
1754 2 30.557499999999994 55.72249999999999 57.51999999999999 0 0 0
1784 1 28.75999999999999 59.31749999999999 34.152499999999996 0 0 0
1785 4 30.557499999999994 57.51999999999999 34.152499999999996 0 0 0
1786 1 30.557499999999994 59.31749999999999 32.355 0 0 0
1787 3 28.75999999999999 57.51999999999999 35.949999999999996 0 0 0
1788 2 28.75999999999999 59.31749999999999 37.747499999999995 0 0 0
1789 3 30.557499999999994 57.51999999999999 37.747499999999995 0 0 0
1790 2 30.557499999999994 59.31749999999999 35.949999999999996 0 0 0
1791 2 28.75999999999999 57.51999999999999 39.544999999999995 0 0 0
1792 2 28.75999999999999 59.31749999999999 41.342499999999994 0 0 0
1793 4 30.557499999999994 57.51999999999999 41.342499999999994 0 0 0
1794 4 30.557499999999994 59.31749999999999 39.544999999999995 0 0 0
1795 5 28.75999999999999 57.51999999999999 43.13999999999999 0 0 0
1796 3 28.75999999999999 59.31749999999999 44.93749999999999 0 0 0
1797 1 30.557499999999994 57.51999999999999 44.93749999999999 0 0 0
1798 2 30.557499999999994 59.31749999999999 43.13999999999999 0 0 0
1799 3 28.75999999999999 57.51999999999999 46.735 0 0 0
1800 3 28.75999999999999 59.31749999999999 48.53249999999999 0 0 0
1801 3 30.557499999999994 57.51999999999999 48.53249999999999 0 0 0
1802 3 30.557499999999994 59.31749999999999 46.735 0 0 0