LAMMPS data file via write_data, version 30 Nov 2020, timestep = 0

29659 atoms
5 atom types

0 68 xlo xhi
0 68 ylo yhi
0 68 zlo zhi

Masses

1 58.7
2 55.8
3 52
4 59
5 26

Atoms # atomic

1 2 7.105427357601002e-15 7.105427357601002e-15 1.8050000000000068 0 0 0
2 4 7.105427357601002e-15 7.105427357601002e-15 5.415000000000006 0 0 0
3 4 7.105427357601002e-15 7.105427357601002e-15 9.025000000000006 0 0 0
4 1 7.105427357601002e-15 7.105427357601002e-15 12.635000000000005 0 0 0
5 2 7.105427357601002e-15 7.105427357601002e-15 16.245000000000008 0 0 0
6 2 7.105427357601002e-15 7.105427357601002e-15 19.855000000000008 0 0 0
7 5 7.105427357601002e-15 7.105427357601002e-15 23.465000000000003 0 0 0
8 5 7.105427357601002e-15 7.105427357601002e-15 27.075000000000006 0 0 0
9 1 7.105427357601002e-15 7.105427357601002e-15 30.68500000000001 0 0 0
20 4 7.105427357601002e-15 1.8050000000000068 7.105427357601002e-15 0 0 0
21 1 7.105427357601002e-15 1.8050000000000068 3.6100000000000065 0 0 0
22 4 7.105427357601002e-15 3.6100000000000065 1.8050000000000068 0 0 0
23 2 7.105427357601002e-15 1.8050000000000068 7.220000000000006 0 0 0
24 4 7.105427357601002e-15 3.6100000000000065 5.415000000000006 0 0 0
25 1 7.105427357601002e-15 1.8050000000000068 10.830000000000005 0 0 0
26 5 7.105427357601002e-15 3.6100000000000065 9.025000000000006 0 0 0
27 5 7.105427357601002e-15 1.8050000000000068 14.440000000000008 0 0 0
28 4 7.105427357601002e-15 3.6100000000000065 12.635000000000005 0 0 0
29 4 7.105427357601002e-15 1.8050000000000068 18.050000000000008 0 0 0
30 1 7.105427357601002e-15 3.6100000000000065 16.245000000000008 0 0 0
31 3 7.105427357601002e-15 1.8050000000000068 21.660000000000007 0 0 0
32 1 7.105427357601002e-15 3.6100000000000065 19.855000000000008 0 0 0
33 1 7.105427357601002e-15 1.8050000000000068 25.270000000000007 0 0 0
34 2 7.105427357601002e-15 3.6100000000000065 23.465000000000003 0 0 0
35 3 7.105427357601002e-15 1.8050000000000068 28.880000000000006 0 0 0
36 5 7.105427357601002e-15 3.6100000000000065 27.075000000000006 0 0 0
37 2 7.105427357601002e-15 1.8050000000000068 32.49000000000001 0 0 0
38 5 7.105427357601002e-15 3.6100000000000065 30.68500000000001 0 0 0
57 4 7.105427357601002e-15 1.8050000000000068 0.590000000000022 0 0 0
59 2 7.105427357601002e-15 5.415000000000006 7.105427357601002e-15 0 0 0
60 5 7.105427357601002e-15 5.415000000000006 3.6100000000000065 0 0 0
61 4 7.105427357601002e-15 7.220000000000006 1.8050000000000068 0 0 0
62 4 7.105427357601002e-15 5.415000000000006 7.220000000000006 0 0 0
63 1 7.105427357601002e-15 7.220000000000006 5.415000000000006 0 0 0
64 5 7.105427357601002e-15 5.415000000000006 10.830000000000005 0 0 0
65 4 7.105427357601002e-15 7.220000000000006 9.025000000000006 0 0 0
66 5 7.105427357601002e-15 5.415000000000006 14.440000000000008 0 0 0
67 5 7.105427357601002e-15 7.220000000000006 12.635000000000005 0 0 0
68 4 7.105427357601002e-15 5.415000000000006 18.050000000000008 0 0 0
69 5 7.105427357601002e-15 7.220000000000006 16.245000000000008 0 0 0
70 5 7.105427357601002e-15 5.415000000000006 21.660000000000007 0 0 0
71 5 7.105427357601002e-15 7.220000000000006 19.855000000000008 0 0 0
72 1 7.105427357601002e-15 5.415000000000006 25.270000000000007 0 0 0
73 3 7.105427357601002e-15 7.220000000000006 23.465000000000003 0 0 0
74 2 7.105427357601002e-15 5.415000000000006 28.880000000000006 0 0 0
75 4 7.105427357601002e-15 7.220000000000006 27.075000000000006 0 0 0
76 1 7.105427357601002e-15 5.415000000000006 32.49000000000001 0 0 0
77 3 7.105427357601002e-15 7.220000000000006 30.68500000000001 0 0 0
96 1 7.105427357601002e-15 5.415000000000006 0.590000000000022 0 0 0
98 1 7.105427357601002e-15 9.025000000000006 7.105427357601002e-15 0 0 0
99 2 7.105427357601002e-15 9.025000000000006 3.6100000000000065 0 0 0
100 5 7.105427357601002e-15 10.830000000000005 1.8050000000000068 0 0 0
101 3 7.105427357601002e-15 9.025000000000006 7.220000000000006 0 0 0
102 3 7.105427357601002e-15 10.830000000000005 5.415000000000006 0 0 0
103 1 7.105427357601002e-15 9.025000000000006 10.830000000000005 0 0 0
104 5 7.105427357601002e-15 10.830000000000005 9.025000000000006 0 0 0
105 5 7.105427357601002e-15 9.025000000000006 14.440000000000008 0 0 0
106 5 7.105427357601002e-15 10.830000000000005 12.635000000000005 0 0 0
107 3 7.105427357601002e-15 9.025000000000006 18.050000000000008 0 0 0
108 5 7.105427357601002e-15 10.830000000000005 16.245000000000008 0 0 0
109 5 7.105427357601002e-15 9.025000000000006 21.660000000000007 0 0 0
110 4 7.105427357601002e-15 10.830000000000005 19.855000000000008 0 0 0
111 4 7.105427357601002e-15 9.025000000000006 25.270000000000007 0 0 0
112 5 7.105427357601002e-15 10.830000000000005 23.465000000000003 0 0 0
113 4 7.105427357601002e-15 9.025000000000006 28.880000000000006 0 0 0
114 3 7.105427357601002e-15 10.830000000000005 27.075000000000006 0 0 0
115 4 7.105427357601002e-15 9.025000000000006 32.49000000000001 0 0 0
116 1 7.105427357601002e-15 10.830000000000005 30.68500000000001 0 0 0
135 4 7.105427357601002e-15 9.025000000000006 0.590000000000022 0 0 0
137 4 7.105427357601002e-15 12.635000000000005 7.105427357601002e-15 0 0 0
138 2 7.105427357601002e-15 12.635000000000005 3.6100000000000065 0 0 0
139 3 7.105427357601002e-15 14.440000000000008 1.8050000000000068 0 0 0
140 5 7.105427357601002e-15 12.635000000000005 7.220000000000006 0 0 0
141 5 7.105427357601002e-15 14.440000000000008 5.415000000000006 0 0 0
142 2 7.105427357601002e-15 12.635000000000005 10.830000000000005 0 0 0
143 3 7.105427357601002e-15 14.440000000000008 9.025000000000006 0 0 0
144 1 7.105427357601002e-15 12.635000000000005 14.440000000000008 0 0 0
145 1 7.105427357601002e-15 14.440000000000008 12.635000000000005 0 0 0
146 5 7.105427357601002e-15 12.635000000000005 18.050000000000008 0 0 0
147 1 7.105427357601002e-15 14.440000000000008 16.245000000000008 0 0 0
148 4 7.105427357601002e-15 12.635000000000005 21.660000000000007 0 0 0
149 2 7.105427357601002e-15 14.440000000000008 19.855000000000008 0 0 0
150 3 7.105427357601002e-15 12.635000000000005 25.270000000000007 0 0 0
151 5 7.105427357601002e-15 14.440000000000008 23.465000000000003 0 0 0
152 5 7.105427357601002e-15 12.635000000000005 28.880000000000006 0 0 0
153 5 7.105427357601002e-15 14.440000000000008 27.075000000000006 0 0 0
154 1 7.105427357601002e-15 12.635000000000005 32.49000000000001 0 0 0
155 2 7.105427357601002e-15 14.440000000000008 30.68500000000001 0 0 0
174 4 7.105427357601002e-15 12.635000000000005 0.590000000000022 0 0 0
176 4 7.105427357601002e-15 16.245000000000008 7.105427357601002e-15 0 0 0
177 4 7.105427357601002e-15 16.245000000000008 3.6100000000000065 0 0 0
178 3 7.105427357601002e-15 18.050000000000008 1.8050000000000068 0 0 0
179 4 7.105427357601002e-15 16.245000000000008 7.220000000000006 0 0 0
180 1 7.105427357601002e-15 18.050000000000008 5.415000000000006 0 0 0
181 1 7.105427357601002e-15 16.245000000000008 10.830000000000005 0 0 0
182 1 7.105427357601002e-15 18.050000000000008 9.025000000000006 0 0 0
183 1 7.105427357601002e-15 16.245000000000008 14.440000000000008 0 0 0
184 2 7.105427357601002e-15 18.050000000000008 12.635000000000005 0 0 0
185 5 7.105427357601002e-15 16.245000000000008 18.050000000000008 0 0 0
186 3 7.105427357601002e-15 18.050000000000008 16.245000000000008 0 0 0
187 3 7.105427357601002e-15 16.245000000000008 21.660000000000007 0 0 0
188 3 7.105427357601002e-15 18.050000000000008 19.855000000000008 0 0 0
189 4 7.105427357601002e-15 16.245000000000008 25.270000000000007 0 0 0
190 5 7.105427357601002e-15 18.050000000000008 23.465000000000003 0 0 0
191 2 7.105427357601002e-15 16.245000000000008 28.880000000000006 0 0 0
192 3 7.105427357601002e-15 18.050000000000008 27.075000000000006 0 0 0
193 2 7.105427357601002e-15 16.245000000000008 32.49000000000001 0 0 0
194 1 7.105427357601002e-15 18.050000000000008 30.68500000000001 0 0 0
213 2 7.105427357601002e-15 16.245000000000008 0.590000000000022 0 0 0
215 5 7.105427357601002e-15 19.855000000000008 7.105427357601002e-15 0 0 0
216 5 7.105427357601002e-15 19.855000000000008 3.6100000000000065 0 0 0
217 5 7.105427357601002e-15 21.660000000000007 1.8050000000000068 0 0 0
218 5 7.105427357601002e-15 19.855000000000008 7.220000000000006 0 0 0
219 2 7.105427357601002e-15 21.660000000000007 5.415000000000006 0 0 0
220 5 7.105427357601002e-15 19.855000000000008 10.830000000000005 0 0 0
221 3 7.105427357601002e-15 21.660000000000007 9.025000000000006 0 0 0
222 3 7.105427357601002e-15 19.855000000000008 14.440000000000008 0 0 0
223 3 7.105427357601002e-15 21.660000000000007 12.635000000000005 0 0 0
224 1 7.105427357601002e-15 19.855000000000008 18.050000000000008 0 0 0
225 4 7.105427357601002e-15 21.660000000000007 16.245000000000008 0 0 0
226 4 7.105427357601002e-15 19.855000000000008 21.660000000000007 0 0 0
227 5 7.105427357601002e-15 21.660000000000007 19.855000000000008 0 0 0
228 4 7.105427357601002e-15 19.855000000000008 25.270000000000007 0 0 0
229 4 7.105427357601002e-15 21.660000000000007 23.465000000000003 0 0 0
230 5 7.105427357601002e-15 19.855000000000008 28.880000000000006 0 0 0
231 5 7.105427357601002e-15 21.660000000000007 27.075000000000006 0 0 0
232 5 7.105427357601002e-15 19.855000000000008 32.49000000000001 0 0 0
233 1 7.105427357601002e-15 21.660000000000007 30.68500000000001 0 0 0
252 5 7.105427357601002e-15 19.855000000000008 0.590000000000022 0 0 0
254 4 7.105427357601002e-15 23.465000000000003 7.105427357601002e-15 0 0 0
255 4 7.105427357601002e-15 23.465000000000003 3.6100000000000065 0 0 0
256 1 7.105427357601002e-15 25.270000000000007 1.8050000000000068 0 0 0
257 5 7.105427357601002e-15 23.465000000000003 7.220000000000006 0 0 0
258 3 7.105427357601002e-15 25.270000000000007 5.415000000000006 0 0 0
259 3 7.105427357601002e-15 23.465000000000003 10.830000000000005 0 0 0
260 5 7.105427357601002e-15 25.270000000000007 9.025000000000006 0 0 0
261 2 7.105427357601002e-15 23.465000000000003 14.440000000000008 0 0 0
262 3 7.105427357601002e-15 25.270000000000007 12.635000000000005 0 0 0
263 4 7.105427357601002e-15 23.465000000000003 18.050000000000008 0 0 0
264 4 7.105427357601002e-15 25.270000000000007 16.245000000000008 0 0 0
265 3 7.105427357601002e-15 23.465000000000003 21.660000000000007 0 0 0
266 2 7.105427357601002e-15 25.270000000000007 19.855000000000008 0 0 0
267 3 7.105427357601002e-15 23.465000000000003 25.270000000000007 0 0 0
268 4 7.105427357601002e-15 25.270000000000007 23.465000000000003 0 0 0
269 4 7.105427357601002e-15 23.465000000000003 28.880000000000006 0 0 0
270 4 7.105427357601002e-15 25.270000000000007 27.075000000000006 0 0 0
271 2 7.105427357601002e-15 23.465000000000003 32.49000000000001 0 0 0
272 4 7.105427357601002e-15 25.270000000000007 30.68500000000001 0 0 0
291 1 7.105427357601002e-15 23.465000000000003 0.590000000000022 0 0 0
293 3 7.105427357601002e-15 27.075000000000006 7.105427357601002e-15 0 0 0
294 5 7.105427357601002e-15 27.075000000000006 3.6100000000000065 0 0 0
295 4 7.105427357601002e-15 28.880000000000006 1.8050000000000068 0 0 0
296 1 7.105427357601002e-15 27.075000000000006 7.220000000000006 0 0 0
297 1 7.105427357601002e-15 28.880000000000006 5.415000000000006 0 0 0
298 5 7.105427357601002e-15 27.075000000000006 10.830000000000005 0 0 0
299 4 7.105427357601002e-15 28.880000000000006 9.025000000000006 0 0 0
300 1 7.105427357601002e-15 27.075000000000006 14.440000000000008 0 0 0
301 1 7.105427357601002e-15 28.880000000000006 12.635000000000005 0 0 0
302 4 7.105427357601002e-15 27.075000000000006 18.050000000000008 0 0 0
303 4 7.105427357601002e-15 28.880000000000006 16.245000000000008 0 0 0
304 3 7.105427357601002e-15 27.075000000000006 21.660000000000007 0 0 0
305 3 7.105427357601002e-15 28.880000000000006 19.855000000000008 0 0 0
306 2 7.105427357601002e-15 27.075000000000006 25.270000000000007 0 0 0
307 3 7.105427357601002e-15 28.880000000000006 23.465000000000003 0 0 0
308 5 7.105427357601002e-15 27.075000000000006 28.880000000000006 0 0 0
309 4 7.105427357601002e-15 28.880000000000006 27.075000000000006 0 0 0
310 1 7.105427357601002e-15 27.075000000000006 32.49000000000001 0 0 0
311 2 7.105427357601002e-15 28.880000000000006 30.68500000000001 0 0 0
330 3 7.105427357601002e-15 27.075000000000006 0.590000000000022 0 0 0
332 5 7.105427357601002e-15 30.68500000000001 7.105427357601002e-15 0 0 0
333 2 7.105427357601002e-15 30.68500000000001 3.6100000000000065 0 0 0
334 2 7.105427357601002e-15 32.49000000000001 1.8050000000000068 0 0 0
335 3 7.105427357601002e-15 30.68500000000001 7.220000000000006 0 0 0
336 2 7.105427357601002e-15 32.49000000000001 5.415000000000006 0 0 0
337 4 7.105427357601002e-15 30.68500000000001 10.830000000000005 0 0 0
338 5 7.105427357601002e-15 32.49000000000001 9.025000000000006 0 0 0
339 1 7.105427357601002e-15 30.68500000000001 14.440000000000008 0 0 0
340 4 7.105427357601002e-15 32.49000000000001 12.635000000000005 0 0 0
341 3 7.105427357601002e-15 30.68500000000001 18.050000000000008 0 0 0
342 2 7.105427357601002e-15 32.49000000000001 16.245000000000008 0 0 0
343 5 7.105427357601002e-15 30.68500000000001 21.660000000000007 0 0 0
344 2 7.105427357601002e-15 32.49000000000001 19.855000000000008 0 0 0
345 5 7.105427357601002e-15 30.68500000000001 25.270000000000007 0 0 0
346 2 7.105427357601002e-15 32.49000000000001 23.465000000000003 0 0 0
347 2 7.105427357601002e-15 30.68500000000001 28.880000000000006 0 0 0
348 1 7.105427357601002e-15 32.49000000000001 27.075000000000006 0 0 0
349 5 7.105427357601002e-15 30.68500000000001 32.49000000000001 0 0 0
350 4 7.105427357601002e-15 32.49000000000001 30.68500000000001 0 0 0
369 2 7.105427357601002e-15 30.68500000000001 0.590000000000022 0 0 0
724 5 7.105427357601002e-15 0.590000000000022 1.8050000000000068 0 0 0
726 2 7.105427357601002e-15 0.590000000000022 5.415000000000006 0 0 0
728 4 7.105427357601002e-15 0.590000000000022 9.025000000000006 0 0 0
730 3 7.105427357601002e-15 0.590000000000022 12.635000000000005 0 0 0
732 1 7.105427357601002e-15 0.590000000000022 16.245000000000008 0 0 0
734 1 7.105427357601002e-15 0.590000000000022 19.855000000000008 0 0 0
736 1 7.105427357601002e-15 0.590000000000022 23.465000000000003 0 0 0
738 2 7.105427357601002e-15 0.590000000000022 27.075000000000006 0 0 0
740 5 7.105427357601002e-15 0.590000000000022 30.68500000000001 0 0 0
761 5 1.8050000000000068 7.105427357601002e-15 7.105427357601002e-15 0 0 0
762 1 1.8050000000000068 7.105427357601002e-15 3.6100000000000065 0 0 0
763 1 3.6100000000000065 7.105427357601002e-15 1.8050000000000068 0 0 0
764 1 1.8050000000000068 7.105427357601002e-15 7.220000000000006 0 0 0
765 2 3.6100000000000065 7.105427357601002e-15 5.415000000000006 0 0 0
766 1 1.8050000000000068 7.105427357601002e-15 10.830000000000005 0 0 0
767 4 3.6100000000000065 7.105427357601002e-15 9.025000000000006 0 0 0
768 3 1.8050000000000068 7.105427357601002e-15 14.440000000000008 0 0 0
769 3 3.6100000000000065 7.105427357601002e-15 12.635000000000005 0 0 0
770 1 1.8050000000000068 7.105427357601002e-15 18.050000000000008 0 0 0
771 5 3.6100000000000065 7.105427357601002e-15 16.245000000000008 0 0 0
772 2 1.8050000000000068 7.105427357601002e-15 21.660000000000007 0 0 0
773 5 3.6100000000000065 7.105427357601002e-15 19.855000000000008 0 0 0
774 3 1.8050000000000068 7.105427357601002e-15 25.270000000000007 0 0 0
775 1 3.6100000000000065 7.105427357601002e-15 23.465000000000003 0 0 0
776 5 1.8050000000000068 7.105427357601002e-15 28.880000000000006 0 0 0
777 4 3.6100000000000065 7.105427357601002e-15 27.075000000000006 0 0 0
778 5 1.8050000000000068 7.105427357601002e-15 32.49000000000001 0 0 0
779 3 3.6100000000000065 7.105427357601002e-15 30.68500000000001 0 0 0
798 4 1.8050000000000068 7.105427357601002e-15 0.590000000000022 0 0 0
800 2 1.8050000000000068 3.6100000000000065 7.105427357601002e-15 0 0 0
801 2 3.6100000000000065 1.8050000000000068 7.105427357601002e-15 0 0 0
802 5 1.8050000000000068 1.8050000000000068 1.8050000000000068 0 0 0
803 1 1.8050000000000068 3.6100000000000065 3.6100000000000065 0 0 0
804 5 3.6100000000000065 1.8050000000000068 3.6100000000000065 0 0 0
805 3 3.6100000000000065 3.6100000000000065 1.8050000000000068 0 0 0
806 3 1.8050000000000068 1.8050000000000068 5.415000000000006 0 0 0
807 4 1.8050000000000068 3.6100000000000065 7.220000000000006 0 0 0
808 5 3.6100000000000065 1.8050000000000068 7.220000000000006 0 0 0
809 3 3.6100000000000065 3.6100000000000065 5.415000000000006 0 0 0
810 3 1.8050000000000068 1.8050000000000068 9.025000000000006 0 0 0
811 5 1.8050000000000068 3.6100000000000065 10.830000000000005 0 0 0
812 3 3.6100000000000065 1.8050000000000068 10.830000000000005 0 0 0
813 5 3.6100000000000065 3.6100000000000065 9.025000000000006 0 0 0
814 2 1.8050000000000068 1.8050000000000068 12.635000000000005 0 0 0
815 2 1.8050000000000068 3.6100000000000065 14.440000000000008 0 0 0
816 2 3.6100000000000065 1.8050000000000068 14.440000000000008 0 0 0
817 3 3.6100000000000065 3.6100000000000065 12.635000000000005 0 0 0
818 1 1.8050000000000068 1.8050000000000068 16.245000000000008 0 0 0
819 5 1.8050000000000068 3.6100000000000065 18.050000000000008 0 0 0
820 1 3.6100000000000065 1.8050000000000068 18.050000000000008 0 0 0
821 2 3.6100000000000065 3.6100000000000065 16.245000000000008 0 0 0
822 3 1.8050000000000068 1.8050000000000068 19.855000000000008 0 0 0
823 4 1.8050000000000068 3.6100000000000065 21.660000000000007 0 0 0
824 4 3.6100000000000065 1.8050000000000068 21.660000000000007 0 0 0
825 5 3.6100000000000065 3.6100000000000065 19.855000000000008 0 0 0
826 2 1.8050000000000068 1.8050000000000068 23.465000000000003 0 0 0
827 3 1.8050000000000068 3.6100000000000065 25.270000000000007 0 0 0
828 5 3.6100000000000065 1.8050000000000068 25.270000000000007 0 0 0
829 1 3.6100000000000065 3.6100000000000065 23.465000000000003 0 0 0
830 3 1.8050000000000068 1.8050000000000068 27.075000000000006 0 0 0
831 1 1.8050000000000068 3.6100000000000065 28.880000000000006 0 0 0
832 2 3.6100000000000065 1.8050000000000068 28.880000000000006 0 0 0
833 2 3.6100000000000065 3.6100000000000065 27.075000000000006 0 0 0
834 3 1.8050000000000068 1.8050000000000068 30.68500000000001 0 0 0
835 4 1.8050000000000068 3.6100000000000065 32.49000000000001 0 0 0
836 5 3.6100000000000065 1.8050000000000068 32.49000000000001 0 0 0
837 2 3.6100000000000065 3.6100000000000065 30.68500000000001 0 0 0
875 5 1.8050000000000068 3.6100000000000065 0.590000000000022 0 0 0
876 5 3.6100000000000065 1.8050000000000068 0.590000000000022 0 0 0
878 4 1.8050000000000068 7.220000000000006 7.105427357601002e-15 0 0 0
879 1 3.6100000000000065 5.415000000000006 7.105427357601002e-15 0 0 0
880 4 1.8050000000000068 5.415000000000006 1.8050000000000068 0 0 0
881 3 1.8050000000000068 7.220000000000006 3.6100000000000065 0 0 0
882 2 3.6100000000000065 5.415000000000006 3.6100000000000065 0 0 0
883 3 3.6100000000000065 7.220000000000006 1.8050000000000068 0 0 0
884 5 1.8050000000000068 5.415000000000006 5.415000000000006 0 0 0
885 5 1.8050000000000068 7.220000000000006 7.220000000000006 0 0 0
886 3 3.6100000000000065 5.415000000000006 7.220000000000006 0 0 0
887 4 3.6100000000000065 7.220000000000006 5.415000000000006 0 0 0
888 2 1.8050000000000068 5.415000000000006 9.025000000000006 0 0 0
889 4 1.8050000000000068 7.220000000000006 10.830000000000005 0 0 0
890 3 3.6100000000000065 5.415000000000006 10.830000000000005 0 0 0
891 5 3.6100000000000065 7.220000000000006 9.025000000000006 0 0 0
892 2 1.8050000000000068 5.415000000000006 12.635000000000005 0 0 0
893 4 1.8050000000000068 7.220000000000006 14.440000000000008 0 0 0
894 4 3.6100000000000065 5.415000000000006 14.440000000000008 0 0 0
895 2 3.6100000000000065 7.220000000000006 12.635000000000005 0 0 0
896 2 1.8050000000000068 5.415000000000006 16.245000000000008 0 0 0
897 3 1.8050000000000068 7.220000000000006 18.050000000000008 0 0 0
898 3 3.6100000000000065 5.415000000000006 18.050000000000008 0 0 0
899 4 3.6100000000000065 7.220000000000006 16.245000000000008 0 0 0
900 4 1.8050000000000068 5.415000000000006 19.855000000000008 0 0 0
901 4 1.8050000000000068 7.220000000000006 21.660000000000007 0 0 0
902 1 3.6100000000000065 5.415000000000006 21.660000000000007 0 0 0
903 3 3.6100000000000065 7.220000000000006 19.855000000000008 0 0 0
904 5 1.8050000000000068 5.415000000000006 23.465000000000003 0 0 0
905 2 1.8050000000000068 7.220000000000006 25.270000000000007 0 0 0
906 5 3.6100000000000065 5.415000000000006 25.270000000000007 0 0 0
907 3 3.6100000000000065 7.220000000000006 23.465000000000003 0 0 0
908 1 1.8050000000000068 5.415000000000006 27.075000000000006 0 0 0
909 4 1.8050000000000068 7.220000000000006 28.880000000000006 0 0 0
910 2 3.6100000000000065 5.415000000000006 28.880000000000006 0 0 0
911 2 3.6100000000000065 7.220000000000006 27.075000000000006 0 0 0
912 2 1.8050000000000068 5.415000000000006 30.68500000000001 0 0 0
913 2 1.8050000000000068 7.220000000000006 32.49000000000001 0 0 0
914 3 3.6100000000000065 5.415000000000006 32.49000000000001 0 0 0
915 2 3.6100000000000065 7.220000000000006 30.68500000000001 0 0 0
953 5 1.8050000000000068 7.220000000000006 0.590000000000022 0 0 0
954 1 3.6100000000000065 5.415000000000006 0.590000000000022 0 0 0
956 5 1.8050000000000068 10.830000000000005 7.105427357601002e-15 0 0 0
957 2 3.6100000000000065 9.025000000000006 7.105427357601002e-15 0 0 0
958 5 1.8050000000000068 9.025000000000006 1.8050000000000068 0 0 0
959 5 1.8050000000000068 10.830000000000005 3.6100000000000065 0 0 0
960 5 3.6100000000000065 9.025000000000006 3.6100000000000065 0 0 0
961 2 3.6100000000000065 10.830000000000005 1.8050000000000068 0 0 0
962 4 1.8050000000000068 9.025000000000006 5.415000000000006 0 0 0
963 5 1.8050000000000068 10.830000000000005 7.220000000000006 0 0 0
964 5 3.6100000000000065 9.025000000000006 7.220000000000006 0 0 0
965 4 3.6100000000000065 10.830000000000005 5.415000000000006 0 0 0
966 1 1.8050000000000068 9.025000000000006 9.025000000000006 0 0 0
967 1 1.8050000000000068 10.830000000000005 10.830000000000005 0 0 0
968 5 3.6100000000000065 9.025000000000006 10.830000000000005 0 0 0
969 2 3.6100000000000065 10.830000000000005 9.025000000000006 0 0 0
970 5 1.8050000000000068 9.025000000000006 12.635000000000005 0 0 0
971 4 1.8050000000000068 10.830000000000005 14.440000000000008 0 0 0
972 4 3.6100000000000065 9.025000000000006 14.440000000000008 0 0 0
973 3 3.6100000000000065 10.830000000000005 12.635000000000005 0 0 0
974 2 1.8050000000000068 9.025000000000006 16.245000000000008 0 0 0
975 2 1.8050000000000068 10.830000000000005 18.050000000000008 0 0 0
976 2 3.6100000000000065 9.025000000000006 18.050000000000008 0 0 0
977 5 3.6100000000000065 10.830000000000005 16.245000000000008 0 0 0
978 5 1.8050000000000068 9.025000000000006 19.855000000000008 0 0 0
979 1 1.8050000000000068 10.830000000000005 21.660000000000007 0 0 0
980 5 3.6100000000000065 9.025000000000006 21.660000000000007 0 0 0
981 1 3.6100000000000065 10.830000000000005 19.855000000000008 0 0 0
982 5 1.8050000000000068 9.025000000000006 23.465000000000003 0 0 0
983 4 1.8050000000000068 10.830000000000005 25.270000000000007 0 0 0
984 3 3.6100000000000065 9.025000000000006 25.270000000000007 0 0 0
985 1 3.6100000000000065 10.830000000000005 23.465000000000003 0 0 0
986 1 1.8050000000000068 9.025000000000006 27.075000000000006 0 0 0
987 5 1.8050000000000068 10.830000000000005 28.880000000000006 0 0 0
988 2 3.6100000000000065 9.025000000000006 28.880000000000006 0 0 0
989 2 3.6100000000000065 10.830000000000005 27.075000000000006 0 0 0
990 5 1.8050000000000068 9.025000000000006 30.68500000000001 0 0 0
991 2 1.8050000000000068 10.830000000000005 32.49000000000001 0 0 0
992 2 3.6100000000000065 9.025000000000006 32.49000000000001 0 0 0
993 4 3.6100000000000065 10.830000000000005 30.68500000000001 0 0 0
1031 2 1.8050000000000068 10.830000000000005 0.590000000000022 0 0 0
1032 4 3.6100000000000065 9.025000000000006 0.590000000000022 0 0 0
1034 5 1.8050000000000068 14.440000000000008 7.105427357601002e-15 0 0 0
1035 2 3.6100000000000065 12.635000000000005 7.105427357601002e-15 0 0 0
1036 4 1.8050000000000068 12.635000000000005 1.8050000000000068 0 0 0
1037 3 1.8050000000000068 14.440000000000008 3.6100000000000065 0 0 0
1038 4 3.6100000000000065 12.635000000000005 3.6100000000000065 0 0 0
1039 1 3.6100000000000065 14.440000000000008 1.8050000000000068 0 0 0
1040 5 1.8050000000000068 12.635000000000005 5.415000000000006 0 0 0
1041 4 1.8050000000000068 14.440000000000008 7.220000000000006 0 0 0
1042 1 3.6100000000000065 12.635000000000005 7.220000000000006 0 0 0
1043 1 3.6100000000000065 14.440000000000008 5.415000000000006 0 0 0
1044 4 1.8050000000000068 12.635000000000005 9.025000000000006 0 0 0
1045 2 1.8050000000000068 14.440000000000008 10.830000000000005 0 0 0
1046 3 3.6100000000000065 12.635000000000005 10.830000000000005 0 0 0
1047 4 3.6100000000000065 14.440000000000008 9.025000000000006 0 0 0
1048 4 1.8050000000000068 12.635000000000005 12.635000000000005 0 0 0
1049 4 1.8050000000000068 14.440000000000008 14.440000000000008 0 0 0
1050 4 3.6100000000000065 12.635000000000005 14.440000000000008 0 0 0
1051 4 3.6100000000000065 14.440000000000008 12.635000000000005 0 0 0
1052 2 1.8050000000000068 12.635000000000005 16.245000000000008 0 0 0
1053 2 1.8050000000000068 14.440000000000008 18.050000000000008 0 0 0
1054 5 3.6100000000000065 12.635000000000005 18.050000000000008 0 0 0
1055 2 3.6100000000000065 14.440000000000008 16.245000000000008 0 0 0
1056 1 1.8050000000000068 12.635000000000005 19.855000000000008 0 0 0
1057 2 1.8050000000000068 14.440000000000008 21.660000000000007 0 0 0
1058 5 3.6100000000000065 12.635000000000005 21.660000000000007 0 0 0
1059 1 3.6100000000000065 14.440000000000008 19.855000000000008 0 0 0
1060 2 1.8050000000000068 12.635000000000005 23.465000000000003 0 0 0
1061 2 1.8050000000000068 14.440000000000008 25.270000000000007 0 0 0
1062 3 3.6100000000000065 12.635000000000005 25.270000000000007 0 0 0
1063 5 3.6100000000000065 14.440000000000008 23.465000000000003 0 0 0
1064 1 1.8050000000000068 12.635000000000005 27.075000000000006 0 0 0
1065 2 1.8050000000000068 14.440000000000008 28.880000000000006 0 0 0
1066 2 3.6100000000000065 12.635000000000005 28.880000000000006 0 0 0
1067 4 3.6100000000000065 14.440000000000008 27.075000000000006 0 0 0
1068 4 1.8050000000000068 12.635000000000005 30.68500000000001 0 0 0
1069 1 1.8050000000000068 14.440000000000008 32.49000000000001 0 0 0
1070 5 3.6100000000000065 12.635000000000005 32.49000000000001 0 0 0
1071 3 3.6100000000000065 14.440000000000008 30.68500000000001 0 0 0
1109 1 1.8050000000000068 14.440000000000008 0.590000000000022 0 0 0
1110 4 3.6100000000000065 12.635000000000005 0.590000000000022 0 0 0
1112 3 1.8050000000000068 18.050000000000008 7.105427357601002e-15 0 0 0
1113 4 3.6100000000000065 16.245000000000008 7.105427357601002e-15 0 0 0
1114 4 1.8050000000000068 16.245000000000008 1.8050000000000068 0 0 0
1115 5 1.8050000000000068 18.050000000000008 3.6100000000000065 0 0 0
1116 2 3.6100000000000065 16.245000000000008 3.6100000000000065 0 0 0
1117 2 3.6100000000000065 18.050000000000008 1.8050000000000068 0 0 0
1118 2 1.8050000000000068 16.245000000000008 5.415000000000006 0 0 0
1119 2 1.8050000000000068 18.050000000000008 7.220000000000006 0 0 0
1120 2 3.6100000000000065 16.245000000000008 7.220000000000006 0 0 0
1121 5 3.6100000000000065 18.050000000000008 5.415000000000006 0 0 0
1122 5 1.8050000000000068 16.245000000000008 9.025000000000006 0 0 0
1123 2 1.8050000000000068 18.050000000000008 10.830000000000005 0 0 0
1124 4 3.6100000000000065 16.245000000000008 10.830000000000005 0 0 0
1125 1 3.6100000000000065 18.050000000000008 9.025000000000006 0 0 0
1126 5 1.8050000000000068 16.245000000000008 12.635000000000005 0 0 0
1127 1 1.8050000000000068 18.050000000000008 14.440000000000008 0 0 0
1128 1 3.6100000000000065 16.245000000000008 14.440000000000008 0 0 0
1129 4 3.6100000000000065 18.050000000000008 12.635000000000005 0 0 0
1130 2 1.8050000000000068 16.245000000000008 16.245000000000008 0 0 0
1131 2 1.8050000000000068 18.050000000000008 18.050000000000008 0 0 0
1132 1 3.6100000000000065 16.245000000000008 18.050000000000008 0 0 0
1133 3 3.6100000000000065 18.050000000000008 16.245000000000008 0 0 0
1134 5 1.8050000000000068 16.245000000000008 19.855000000000008 0 0 0
1135 5 1.8050000000000068 18.050000000000008 21.660000000000007 0 0 0
1136 1 3.6100000000000065 16.245000000000008 21.660000000000007 0 0 0
1137 5 3.6100000000000065 18.050000000000008 19.855000000000008 0 0 0
1138 3 1.8050000000000068 16.245000000000008 23.465000000000003 0 0 0
1139 1 1.8050000000000068 18.050000000000008 25.270000000000007 0 0 0
1140 1 3.6100000000000065 16.245000000000008 25.270000000000007 0 0 0
1141 2 3.6100000000000065 18.050000000000008 23.465000000000003 0 0 0
1142 1 1.8050000000000068 16.245000000000008 27.075000000000006 0 0 0
1143 4 1.8050000000000068 18.050000000000008 28.880000000000006 0 0 0
1144 5 3.6100000000000065 16.245000000000008 28.880000000000006 0 0 0
1145 2 3.6100000000000065 18.050000000000008 27.075000000000006 0 0 0
1146 3 1.8050000000000068 16.245000000000008 30.68500000000001 0 0 0
1147 2 1.8050000000000068 18.050000000000008 32.49000000000001 0 0 0
1148 3 3.6100000000000065 16.245000000000008 32.49000000000001 0 0 0
1149 3 3.6100000000000065 18.050000000000008 30.68500000000001 0 0 0
1187 3 1.8050000000000068 18.050000000000008 0.590000000000022 0 0 0
1188 4 3.6100000000000065 16.245000000000008 0.590000000000022 0 0 0
1190 2 1.8050000000000068 21.660000000000007 7.105427357601002e-15 0 0 0
1191 3 3.6100000000000065 19.855000000000008 7.105427357601002e-15 0 0 0
1192 1 1.8050000000000068 19.855000000000008 1.8050000000000068 0 0 0
1193 1 1.8050000000000068 21.660000000000007 3.6100000000000065 0 0 0
1194 5 3.6100000000000065 19.855000000000008 3.6100000000000065 0 0 0
1195 5 3.6100000000000065 21.660000000000007 1.8050000000000068 0 0 0