model_files/NiFeCrCoAl/NiFeCrCoAl_30000/NiFeCrCoAl_100/NiFeCrCoAl_100_fcc_29659_temp.data (written by ASE) 

29659 	 atoms 
5  atom types
0.0                      68  xlo xhi
0.0                      68  ylo yhi
0.0                      68  zlo zhi


Atoms 

     1   1  7.1054273576010019e-15  7.1054273576010019e-15      1.8050000000000068
     2   1  7.1054273576010019e-15  7.1054273576010019e-15      5.4150000000000063
     3   1  7.1054273576010019e-15  7.1054273576010019e-15      9.0250000000000057
     4   1  7.1054273576010019e-15  7.1054273576010019e-15      12.635000000000005
     5   1  7.1054273576010019e-15  7.1054273576010019e-15      16.245000000000008
     6   1  7.1054273576010019e-15  7.1054273576010019e-15      19.855000000000008
     7   1  7.1054273576010019e-15  7.1054273576010019e-15      23.465000000000003
     8   1  7.1054273576010019e-15  7.1054273576010019e-15      27.075000000000006
     9   1  7.1054273576010019e-15  7.1054273576010019e-15      30.685000000000009
    10   1  7.1054273576010019e-15  7.1054273576010019e-15      34.295000000000009
    11   1  7.1054273576010019e-15  7.1054273576010019e-15      37.905000000000001
    12   1  7.1054273576010019e-15  7.1054273576010019e-15      41.515000000000008
    13   1  7.1054273576010019e-15  7.1054273576010019e-15      45.125000000000007
    14   1  7.1054273576010019e-15  7.1054273576010019e-15      48.735000000000007
    15   1  7.1054273576010019e-15  7.1054273576010019e-15      52.345000000000006
    16   1  7.1054273576010019e-15  7.1054273576010019e-15      55.955000000000005
    17   1  7.1054273576010019e-15  7.1054273576010019e-15      59.564999999999998
    18   1  7.1054273576010019e-15  7.1054273576010019e-15      63.175000000000011
    19   1  7.1054273576010019e-15  7.1054273576010019e-15      66.785000000000011
    20   1  7.1054273576010019e-15      1.8050000000000068  7.1054273576010019e-15
    21   1  7.1054273576010019e-15      1.8050000000000068      3.6100000000000065
    22   1  7.1054273576010019e-15      3.6100000000000065      1.8050000000000068
    23   1  7.1054273576010019e-15      1.8050000000000068       7.220000000000006
    24   1  7.1054273576010019e-15      3.6100000000000065      5.4150000000000063
    25   1  7.1054273576010019e-15      1.8050000000000068      10.830000000000005
    26   1  7.1054273576010019e-15      3.6100000000000065      9.0250000000000057
    27   1  7.1054273576010019e-15      1.8050000000000068      14.440000000000008
    28   1  7.1054273576010019e-15      3.6100000000000065      12.635000000000005
    29   1  7.1054273576010019e-15      1.8050000000000068      18.050000000000008
    30   1  7.1054273576010019e-15      3.6100000000000065      16.245000000000008
    31   1  7.1054273576010019e-15      1.8050000000000068      21.660000000000007
    32   1  7.1054273576010019e-15      3.6100000000000065      19.855000000000008
    33   1  7.1054273576010019e-15      1.8050000000000068      25.270000000000007
    34   1  7.1054273576010019e-15      3.6100000000000065      23.465000000000003
    35   1  7.1054273576010019e-15      1.8050000000000068      28.880000000000006
    36   1  7.1054273576010019e-15      3.6100000000000065      27.075000000000006
    37   1  7.1054273576010019e-15      1.8050000000000068      32.490000000000009
    38   1  7.1054273576010019e-15      3.6100000000000065      30.685000000000009
    39   1  7.1054273576010019e-15      1.8050000000000068      36.100000000000009
    40   1  7.1054273576010019e-15      3.6100000000000065      34.295000000000009
    41   1  7.1054273576010019e-15      1.8050000000000068      39.710000000000008
    42   1  7.1054273576010019e-15      3.6100000000000065      37.905000000000001
    43   1  7.1054273576010019e-15      1.8050000000000068      43.320000000000007
    44   1  7.1054273576010019e-15      3.6100000000000065      41.515000000000008
    45   1  7.1054273576010019e-15      1.8050000000000068      46.930000000000007
    46   1  7.1054273576010019e-15      3.6100000000000065      45.125000000000007
    47   1  7.1054273576010019e-15      1.8050000000000068      50.540000000000006
    48   1  7.1054273576010019e-15      3.6100000000000065      48.735000000000007
    49   1  7.1054273576010019e-15      1.8050000000000068      54.150000000000006
    50   1  7.1054273576010019e-15      3.6100000000000065      52.345000000000006
    51   1  7.1054273576010019e-15      1.8050000000000068      57.760000000000005
    52   1  7.1054273576010019e-15      3.6100000000000065      55.955000000000005
    53   1  7.1054273576010019e-15      1.8050000000000068      61.370000000000005
    54   1  7.1054273576010019e-15      3.6100000000000065      59.564999999999998
    55   1  7.1054273576010019e-15      1.8050000000000068      64.980000000000018
    56   1  7.1054273576010019e-15      3.6100000000000065      63.175000000000011
    57   1  7.1054273576010019e-15      1.8050000000000068     0.59000000000002195
    58   1  7.1054273576010019e-15      3.6100000000000065      66.785000000000011
    59   1  7.1054273576010019e-15      5.4150000000000063  7.1054273576010019e-15
    60   1  7.1054273576010019e-15      5.4150000000000063      3.6100000000000065
    61   1  7.1054273576010019e-15       7.220000000000006      1.8050000000000068
    62   1  7.1054273576010019e-15      5.4150000000000063       7.220000000000006
    63   1  7.1054273576010019e-15       7.220000000000006      5.4150000000000063
    64   1  7.1054273576010019e-15      5.4150000000000063      10.830000000000005
    65   1  7.1054273576010019e-15       7.220000000000006      9.0250000000000057
    66   1  7.1054273576010019e-15      5.4150000000000063      14.440000000000008
    67   1  7.1054273576010019e-15       7.220000000000006      12.635000000000005
    68   1  7.1054273576010019e-15      5.4150000000000063      18.050000000000008
    69   1  7.1054273576010019e-15       7.220000000000006      16.245000000000008
    70   1  7.1054273576010019e-15      5.4150000000000063      21.660000000000007
    71   1  7.1054273576010019e-15       7.220000000000006      19.855000000000008
    72   1  7.1054273576010019e-15      5.4150000000000063      25.270000000000007
    73   1  7.1054273576010019e-15       7.220000000000006      23.465000000000003
    74   1  7.1054273576010019e-15      5.4150000000000063      28.880000000000006
    75   1  7.1054273576010019e-15       7.220000000000006      27.075000000000006
    76   1  7.1054273576010019e-15      5.4150000000000063      32.490000000000009
    77   1  7.1054273576010019e-15       7.220000000000006      30.685000000000009
    78   1  7.1054273576010019e-15      5.4150000000000063      36.100000000000009
    79   1  7.1054273576010019e-15       7.220000000000006      34.295000000000009
    80   1  7.1054273576010019e-15      5.4150000000000063      39.710000000000008
    81   1  7.1054273576010019e-15       7.220000000000006      37.905000000000001
    82   1  7.1054273576010019e-15      5.4150000000000063      43.320000000000007
    83   1  7.1054273576010019e-15       7.220000000000006      41.515000000000008
    84   1  7.1054273576010019e-15      5.4150000000000063      46.930000000000007
    85   1  7.1054273576010019e-15       7.220000000000006      45.125000000000007
    86   1  7.1054273576010019e-15      5.4150000000000063      50.540000000000006
    87   1  7.1054273576010019e-15       7.220000000000006      48.735000000000007
    88   1  7.1054273576010019e-15      5.4150000000000063      54.150000000000006
    89   1  7.1054273576010019e-15       7.220000000000006      52.345000000000006
    90   1  7.1054273576010019e-15      5.4150000000000063      57.760000000000005
    91   1  7.1054273576010019e-15       7.220000000000006      55.955000000000005
    92   1  7.1054273576010019e-15      5.4150000000000063      61.370000000000005
    93   1  7.1054273576010019e-15       7.220000000000006      59.564999999999998
    94   1  7.1054273576010019e-15      5.4150000000000063      64.980000000000018
    95   1  7.1054273576010019e-15       7.220000000000006      63.175000000000011
    96   1  7.1054273576010019e-15      5.4150000000000063     0.59000000000002195
    97   1  7.1054273576010019e-15       7.220000000000006      66.785000000000011
    98   1  7.1054273576010019e-15      9.0250000000000057  7.1054273576010019e-15
    99   1  7.1054273576010019e-15      9.0250000000000057      3.6100000000000065
   100   1  7.1054273576010019e-15      10.830000000000005      1.8050000000000068
   101   1  7.1054273576010019e-15      9.0250000000000057       7.220000000000006
   102   1  7.1054273576010019e-15      10.830000000000005      5.4150000000000063
   103   1  7.1054273576010019e-15      9.0250000000000057      10.830000000000005
   104   1  7.1054273576010019e-15      10.830000000000005      9.0250000000000057
   105   1  7.1054273576010019e-15      9.0250000000000057      14.440000000000008
   106   1  7.1054273576010019e-15      10.830000000000005      12.635000000000005
   107   1  7.1054273576010019e-15      9.0250000000000057      18.050000000000008
   108   1  7.1054273576010019e-15      10.830000000000005      16.245000000000008
   109   1  7.1054273576010019e-15      9.0250000000000057      21.660000000000007
   110   1  7.1054273576010019e-15      10.830000000000005      19.855000000000008
   111   1  7.1054273576010019e-15      9.0250000000000057      25.270000000000007
   112   1  7.1054273576010019e-15      10.830000000000005      23.465000000000003
   113   1  7.1054273576010019e-15      9.0250000000000057      28.880000000000006
   114   1  7.1054273576010019e-15      10.830000000000005      27.075000000000006
   115   1  7.1054273576010019e-15      9.0250000000000057      32.490000000000009
   116   1  7.1054273576010019e-15      10.830000000000005      30.685000000000009
   117   1  7.1054273576010019e-15      9.0250000000000057      36.100000000000009
   118   1  7.1054273576010019e-15      10.830000000000005      34.295000000000009
   119   1  7.1054273576010019e-15      9.0250000000000057      39.710000000000008
   120   1  7.1054273576010019e-15      10.830000000000005      37.905000000000001
   121   1  7.1054273576010019e-15      9.0250000000000057      43.320000000000007
   122   1  7.1054273576010019e-15      10.830000000000005      41.515000000000008
   123   1  7.1054273576010019e-15      9.0250000000000057      46.930000000000007
   124   1  7.1054273576010019e-15      10.830000000000005      45.125000000000007
   125   1  7.1054273576010019e-15      9.0250000000000057      50.540000000000006
   126   1  7.1054273576010019e-15      10.830000000000005      48.735000000000007
   127   1  7.1054273576010019e-15      9.0250000000000057      54.150000000000006
   128   1  7.1054273576010019e-15      10.830000000000005      52.345000000000006
   129   1  7.1054273576010019e-15      9.0250000000000057      57.760000000000005
   130   1  7.1054273576010019e-15      10.830000000000005      55.955000000000005
   131   1  7.1054273576010019e-15      9.0250000000000057      61.370000000000005
   132   1  7.1054273576010019e-15      10.830000000000005      59.564999999999998
   133   1  7.1054273576010019e-15      9.0250000000000057      64.980000000000018
   134   1  7.1054273576010019e-15      10.830000000000005      63.175000000000011
   135   1  7.1054273576010019e-15      9.0250000000000057     0.59000000000002195
   136   1  7.1054273576010019e-15      10.830000000000005      66.785000000000011
   137   1  7.1054273576010019e-15      12.635000000000005  7.1054273576010019e-15
   138   1  7.1054273576010019e-15      12.635000000000005      3.6100000000000065
   139   1  7.1054273576010019e-15      14.440000000000008      1.8050000000000068
   140   1  7.1054273576010019e-15      12.635000000000005       7.220000000000006
   141   1  7.1054273576010019e-15      14.440000000000008      5.4150000000000063
   142   1  7.1054273576010019e-15      12.635000000000005      10.830000000000005
   143   1  7.1054273576010019e-15      14.440000000000008      9.0250000000000057
   144   1  7.1054273576010019e-15      12.635000000000005      14.440000000000008
   145   1  7.1054273576010019e-15      14.440000000000008      12.635000000000005
   146   1  7.1054273576010019e-15      12.635000000000005      18.050000000000008
   147   1  7.1054273576010019e-15      14.440000000000008      16.245000000000008
   148   1  7.1054273576010019e-15      12.635000000000005      21.660000000000007
   149   1  7.1054273576010019e-15      14.440000000000008      19.855000000000008
   150   1  7.1054273576010019e-15      12.635000000000005      25.270000000000007
   151   1  7.1054273576010019e-15      14.440000000000008      23.465000000000003
   152   1  7.1054273576010019e-15      12.635000000000005      28.880000000000006
   153   1  7.1054273576010019e-15      14.440000000000008      27.075000000000006
   154   1  7.1054273576010019e-15      12.635000000000005      32.490000000000009
   155   1  7.1054273576010019e-15      14.440000000000008      30.685000000000009
   156   1  7.1054273576010019e-15      12.635000000000005      36.100000000000009
   157   1  7.1054273576010019e-15      14.440000000000008      34.295000000000009
   158   1  7.1054273576010019e-15      12.635000000000005      39.710000000000008
   159   1  7.1054273576010019e-15      14.440000000000008      37.905000000000001
   160   1  7.1054273576010019e-15      12.635000000000005      43.320000000000007
   161   1  7.1054273576010019e-15      14.440000000000008      41.515000000000008
   162   1  7.1054273576010019e-15      12.635000000000005      46.930000000000007
   163   1  7.1054273576010019e-15      14.440000000000008      45.125000000000007
   164   1  7.1054273576010019e-15      12.635000000000005      50.540000000000006
   165   1  7.1054273576010019e-15      14.440000000000008      48.735000000000007
   166   1  7.1054273576010019e-15      12.635000000000005      54.150000000000006
   167   1  7.1054273576010019e-15      14.440000000000008      52.345000000000006
   168   1  7.1054273576010019e-15      12.635000000000005      57.760000000000005
   169   1  7.1054273576010019e-15      14.440000000000008      55.955000000000005
   170   1  7.1054273576010019e-15      12.635000000000005      61.370000000000005
   171   1  7.1054273576010019e-15      14.440000000000008      59.564999999999998
   172   1  7.1054273576010019e-15      12.635000000000005      64.980000000000018
   173   1  7.1054273576010019e-15      14.440000000000008      63.175000000000011
   174   1  7.1054273576010019e-15      12.635000000000005     0.59000000000002195
   175   1  7.1054273576010019e-15      14.440000000000008      66.785000000000011
   176   1  7.1054273576010019e-15      16.245000000000008  7.1054273576010019e-15
   177   1  7.1054273576010019e-15      16.245000000000008      3.6100000000000065
   178   1  7.1054273576010019e-15      18.050000000000008      1.8050000000000068
   179   1  7.1054273576010019e-15      16.245000000000008       7.220000000000006
   180   1  7.1054273576010019e-15      18.050000000000008      5.4150000000000063
   181   1  7.1054273576010019e-15      16.245000000000008      10.830000000000005
   182   1  7.1054273576010019e-15      18.050000000000008      9.0250000000000057
   183   1  7.1054273576010019e-15      16.245000000000008      14.440000000000008
   184   1  7.1054273576010019e-15      18.050000000000008      12.635000000000005
   185   1  7.1054273576010019e-15      16.245000000000008      18.050000000000008
   186   1  7.1054273576010019e-15      18.050000000000008      16.245000000000008
   187   1  7.1054273576010019e-15      16.245000000000008      21.660000000000007
   188   1  7.1054273576010019e-15      18.050000000000008      19.855000000000008
   189   1  7.1054273576010019e-15      16.245000000000008      25.270000000000007
   190   1  7.1054273576010019e-15      18.050000000000008      23.465000000000003
   191   1  7.1054273576010019e-15      16.245000000000008      28.880000000000006
   192   1  7.1054273576010019e-15      18.050000000000008      27.075000000000006
   193   1  7.1054273576010019e-15      16.245000000000008      32.490000000000009
   194   1  7.1054273576010019e-15      18.050000000000008      30.685000000000009
   195   1  7.1054273576010019e-15      16.245000000000008      36.100000000000009
   196   1  7.1054273576010019e-15      18.050000000000008      34.295000000000009
   197   1  7.1054273576010019e-15      16.245000000000008      39.710000000000008
   198   1  7.1054273576010019e-15      18.050000000000008      37.905000000000001
   199   1  7.1054273576010019e-15      16.245000000000008      43.320000000000007
   200   1  7.1054273576010019e-15      18.050000000000008      41.515000000000008
   201   1  7.1054273576010019e-15      16.245000000000008      46.930000000000007
   202   1  7.1054273576010019e-15      18.050000000000008      45.125000000000007
   203   1  7.1054273576010019e-15      16.245000000000008      50.540000000000006
   204   1  7.1054273576010019e-15      18.050000000000008      48.735000000000007
   205   1  7.1054273576010019e-15      16.245000000000008      54.150000000000006
   206   1  7.1054273576010019e-15      18.050000000000008      52.345000000000006
   207   1  7.1054273576010019e-15      16.245000000000008      57.760000000000005
   208   1  7.1054273576010019e-15      18.050000000000008      55.955000000000005
   209   1  7.1054273576010019e-15      16.245000000000008      61.370000000000005
   210   1  7.1054273576010019e-15      18.050000000000008      59.564999999999998
   211   1  7.1054273576010019e-15      16.245000000000008      64.980000000000018
   212   1  7.1054273576010019e-15      18.050000000000008      63.175000000000011
   213   1  7.1054273576010019e-15      16.245000000000008     0.59000000000002195
   214   1  7.1054273576010019e-15      18.050000000000008      66.785000000000011
   215   1  7.1054273576010019e-15      19.855000000000008  7.1054273576010019e-15
   216   1  7.1054273576010019e-15      19.855000000000008      3.6100000000000065
   217   1  7.1054273576010019e-15      21.660000000000007      1.8050000000000068
   218   1  7.1054273576010019e-15      19.855000000000008       7.220000000000006
   219   1  7.1054273576010019e-15      21.660000000000007      5.4150000000000063
   220   1  7.1054273576010019e-15      19.855000000000008      10.830000000000005
   221   1  7.1054273576010019e-15      21.660000000000007      9.0250000000000057
   222   1  7.1054273576010019e-15      19.855000000000008      14.440000000000008
   223   1  7.1054273576010019e-15      21.660000000000007      12.635000000000005
   224   1  7.1054273576010019e-15      19.855000000000008      18.050000000000008
   225   1  7.1054273576010019e-15      21.660000000000007      16.245000000000008
   226   1  7.1054273576010019e-15      19.855000000000008      21.660000000000007
   227   1  7.1054273576010019e-15      21.660000000000007      19.855000000000008
   228   1  7.1054273576010019e-15      19.855000000000008      25.270000000000007
   229   1  7.1054273576010019e-15      21.660000000000007      23.465000000000003
   230   1  7.1054273576010019e-15      19.855000000000008      28.880000000000006
   231   1  7.1054273576010019e-15      21.660000000000007      27.075000000000006
   232   1  7.1054273576010019e-15      19.855000000000008      32.490000000000009
   233   1  7.1054273576010019e-15      21.660000000000007      30.685000000000009
   234   1  7.1054273576010019e-15      19.855000000000008      36.100000000000009
   235   1  7.1054273576010019e-15      21.660000000000007      34.295000000000009
   236   1  7.1054273576010019e-15      19.855000000000008      39.710000000000008
   237   1  7.1054273576010019e-15      21.660000000000007      37.905000000000001
   238   1  7.1054273576010019e-15      19.855000000000008      43.320000000000007
   239   1  7.1054273576010019e-15      21.660000000000007      41.515000000000008
   240   1  7.1054273576010019e-15      19.855000000000008      46.930000000000007
   241   1  7.1054273576010019e-15      21.660000000000007      45.125000000000007
   242   1  7.1054273576010019e-15      19.855000000000008      50.540000000000006
   243   1  7.1054273576010019e-15      21.660000000000007      48.735000000000007
   244   1  7.1054273576010019e-15      19.855000000000008      54.150000000000006
   245   1  7.1054273576010019e-15      21.660000000000007      52.345000000000006
   246   1  7.1054273576010019e-15      19.855000000000008      57.760000000000005
   247   1  7.1054273576010019e-15      21.660000000000007      55.955000000000005
   248   1  7.1054273576010019e-15      19.855000000000008      61.370000000000005
   249   1  7.1054273576010019e-15      21.660000000000007      59.564999999999998
   250   1  7.1054273576010019e-15      19.855000000000008      64.980000000000018
   251   1  7.1054273576010019e-15      21.660000000000007      63.175000000000011
   252   1  7.1054273576010019e-15      19.855000000000008     0.59000000000002195
   253   1  7.1054273576010019e-15      21.660000000000007      66.785000000000011
   254   1  7.1054273576010019e-15      23.465000000000003  7.1054273576010019e-15
   255   1  7.1054273576010019e-15      23.465000000000003      3.6100000000000065
   256   1  7.1054273576010019e-15      25.270000000000007      1.8050000000000068
   257   1  7.1054273576010019e-15      23.465000000000003       7.220000000000006
   258   1  7.1054273576010019e-15      25.270000000000007      5.4150000000000063
   259   1  7.1054273576010019e-15      23.465000000000003      10.830000000000005
   260   1  7.1054273576010019e-15      25.270000000000007      9.0250000000000057
   261   1  7.1054273576010019e-15      23.465000000000003      14.440000000000008
   262   1  7.1054273576010019e-15      25.270000000000007      12.635000000000005
   263   1  7.1054273576010019e-15      23.465000000000003      18.050000000000008
   264   1  7.1054273576010019e-15      25.270000000000007      16.245000000000008
   265   1  7.1054273576010019e-15      23.465000000000003      21.660000000000007
   266   1  7.1054273576010019e-15      25.270000000000007      19.855000000000008
   267   1  7.1054273576010019e-15      23.465000000000003      25.270000000000007
   268   1  7.1054273576010019e-15      25.270000000000007      23.465000000000003
   269   1  7.1054273576010019e-15      23.465000000000003      28.880000000000006
   270   1  7.1054273576010019e-15      25.270000000000007      27.075000000000006
   271   1  7.1054273576010019e-15      23.465000000000003      32.490000000000009
   272   1  7.1054273576010019e-15      25.270000000000007      30.685000000000009
   273   1  7.1054273576010019e-15      23.465000000000003      36.100000000000009
   274   1  7.1054273576010019e-15      25.270000000000007      34.295000000000009
   275   1  7.1054273576010019e-15      23.465000000000003      39.710000000000008
   276   1  7.1054273576010019e-15      25.270000000000007      37.905000000000001
   277   1  7.1054273576010019e-15      23.465000000000003      43.320000000000007
   278   1  7.1054273576010019e-15      25.270000000000007      41.515000000000008
   279   1  7.1054273576010019e-15      23.465000000000003      46.930000000000007
   280   1  7.1054273576010019e-15      25.270000000000007      45.125000000000007
   281   1  7.1054273576010019e-15      23.465000000000003      50.540000000000006
   282   1  7.1054273576010019e-15      25.270000000000007      48.735000000000007
   283   1  7.1054273576010019e-15      23.465000000000003      54.150000000000006
   284   1  7.1054273576010019e-15      25.270000000000007      52.345000000000006
   285   1  7.1054273576010019e-15      23.465000000000003      57.760000000000005
   286   1  7.1054273576010019e-15      25.270000000000007      55.955000000000005
   287   1  7.1054273576010019e-15      23.465000000000003      61.370000000000005
   288   1  7.1054273576010019e-15      25.270000000000007      59.564999999999998
   289   1  7.1054273576010019e-15      23.465000000000003      64.980000000000018
   290   1  7.1054273576010019e-15      25.270000000000007      63.175000000000011
   291   1  7.1054273576010019e-15      23.465000000000003     0.59000000000002195
   292   1  7.1054273576010019e-15      25.270000000000007      66.785000000000011
   293   1  7.1054273576010019e-15      27.075000000000006  7.1054273576010019e-15
   294   1  7.1054273576010019e-15      27.075000000000006      3.6100000000000065
   295   1  7.1054273576010019e-15      28.880000000000006      1.8050000000000068
   296   1  7.1054273576010019e-15      27.075000000000006       7.220000000000006
   297   1  7.1054273576010019e-15      28.880000000000006      5.4150000000000063
   298   1  7.1054273576010019e-15      27.075000000000006      10.830000000000005
   299   1  7.1054273576010019e-15      28.880000000000006      9.0250000000000057
   300   1  7.1054273576010019e-15      27.075000000000006      14.440000000000008
   301   1  7.1054273576010019e-15      28.880000000000006      12.635000000000005
   302   1  7.1054273576010019e-15      27.075000000000006      18.050000000000008
   303   1  7.1054273576010019e-15      28.880000000000006      16.245000000000008
   304   1  7.1054273576010019e-15      27.075000000000006      21.660000000000007
   305   1  7.1054273576010019e-15      28.880000000000006      19.855000000000008
   306   1  7.1054273576010019e-15      27.075000000000006      25.270000000000007
   307   1  7.1054273576010019e-15      28.880000000000006      23.465000000000003
   308   1  7.1054273576010019e-15      27.075000000000006      28.880000000000006
   309   1  7.1054273576010019e-15      28.880000000000006      27.075000000000006
   310   1  7.1054273576010019e-15      27.075000000000006      32.490000000000009
   311   1  7.1054273576010019e-15      28.880000000000006      30.685000000000009
   312   1  7.1054273576010019e-15      27.075000000000006      36.100000000000009
   313   1  7.1054273576010019e-15      28.880000000000006      34.295000000000009
   314   1  7.1054273576010019e-15      27.075000000000006      39.710000000000008
   315   1  7.1054273576010019e-15      28.880000000000006      37.905000000000001
   316   1  7.1054273576010019e-15      27.075000000000006      43.320000000000007
   317   1  7.1054273576010019e-15      28.880000000000006      41.515000000000008
   318   1  7.1054273576010019e-15      27.075000000000006      46.930000000000007
   319   1  7.1054273576010019e-15      28.880000000000006      45.125000000000007
   320   1  7.1054273576010019e-15      27.075000000000006      50.540000000000006
   321   1  7.1054273576010019e-15      28.880000000000006      48.735000000000007
   322   1  7.1054273576010019e-15      27.075000000000006      54.150000000000006
   323   1  7.1054273576010019e-15      28.880000000000006      52.345000000000006
   324   1  7.1054273576010019e-15      27.075000000000006      57.760000000000005
   325   1  7.1054273576010019e-15      28.880000000000006      55.955000000000005
   326   1  7.1054273576010019e-15      27.075000000000006      61.370000000000005
   327   1  7.1054273576010019e-15      28.880000000000006      59.564999999999998
   328   1  7.1054273576010019e-15      27.075000000000006      64.980000000000018
   329   1  7.1054273576010019e-15      28.880000000000006      63.175000000000011
   330   1  7.1054273576010019e-15      27.075000000000006     0.59000000000002195
   331   1  7.1054273576010019e-15      28.880000000000006      66.785000000000011
   332   1  7.1054273576010019e-15      30.685000000000009  7.1054273576010019e-15
   333   1  7.1054273576010019e-15      30.685000000000009      3.6100000000000065
   334   1  7.1054273576010019e-15      32.490000000000009      1.8050000000000068
   335   1  7.1054273576010019e-15      30.685000000000009       7.220000000000006
   336   1  7.1054273576010019e-15      32.490000000000009      5.4150000000000063
   337   1  7.1054273576010019e-15      30.685000000000009      10.830000000000005
   338   1  7.1054273576010019e-15      32.490000000000009      9.0250000000000057
   339   1  7.1054273576010019e-15      30.685000000000009      14.440000000000008
   340   1  7.1054273576010019e-15      32.490000000000009      12.635000000000005
   341   1  7.1054273576010019e-15      30.685000000000009      18.050000000000008
   342   1  7.1054273576010019e-15      32.490000000000009      16.245000000000008
   343   1  7.1054273576010019e-15      30.685000000000009      21.660000000000007
   344   1  7.1054273576010019e-15      32.490000000000009      19.855000000000008
   345   1  7.1054273576010019e-15      30.685000000000009      25.270000000000007
   346   1  7.1054273576010019e-15      32.490000000000009      23.465000000000003
   347   1  7.1054273576010019e-15      30.685000000000009      28.880000000000006
   348   1  7.1054273576010019e-15      32.490000000000009      27.075000000000006
   349   1  7.1054273576010019e-15      30.685000000000009      32.490000000000009
   350   1  7.1054273576010019e-15      32.490000000000009      30.685000000000009
   351   1  7.1054273576010019e-15      30.685000000000009      36.100000000000009
   352   1  7.1054273576010019e-15      32.490000000000009      34.295000000000009
   353   1  7.1054273576010019e-15      30.685000000000009      39.710000000000008
   354   1  7.1054273576010019e-15      32.490000000000009      37.905000000000001
   355   1  7.1054273576010019e-15      30.685000000000009      43.320000000000007
   356   1  7.1054273576010019e-15      32.490000000000009      41.515000000000008
   357   1  7.1054273576010019e-15      30.685000000000009      46.930000000000007
   358   1  7.1054273576010019e-15      32.490000000000009      45.125000000000007