model_files/NiCoCrFeMn/NiCoCrFeMn_30000/NiCoCrFeMn_541/NiCoCrFeMn_541_fcc_30387_temp.data (written by ASE) 

30387 	 atoms 
5  atom types
0.0                     109  xlo xhi
0.0                     109  ylo yhi
0.0                     109  zlo zhi


Atoms 

     1   1      1.7974999999999997      52.127500000000012      53.925000000000004
     2   1      1.7974999999999997      53.925000000000004      52.127500000000012
     3   1                       0      53.925000000000004      53.925000000000004
     4   1      1.7974999999999997      53.925000000000004      55.722500000000004
     5   1      1.7974999999999997      55.722500000000004      53.925000000000004
     6   1      5.3924999999999983      48.532500000000006      50.330000000000005
     7   1      5.3924999999999983      48.532500000000006      53.925000000000004
     8   1      5.3924999999999983      48.532500000000006       57.52000000000001
     9   1      5.3924999999999983      50.330000000000005      48.532500000000006
    10   1      3.5949999999999993      50.330000000000005      50.330000000000005
    11   1      3.5949999999999993      52.127500000000012      52.127500000000012
    12   1      5.3924999999999983      50.330000000000005      52.127500000000012
    13   1      5.3924999999999983      52.127500000000012      50.330000000000005
    14   1      3.5949999999999993      50.330000000000005      53.925000000000004
    15   1      3.5949999999999993      52.127500000000012      55.722500000000004
    16   1      5.3924999999999983      50.330000000000005      55.722500000000004
    17   1      5.3924999999999983      52.127500000000012      53.925000000000004
    18   1      3.5949999999999993      50.330000000000005       57.52000000000001
    19   1      5.3924999999999983      50.330000000000005       59.31750000000001
    20   1      5.3924999999999983      52.127500000000012       57.52000000000001
    21   1      5.3924999999999983      53.925000000000004      48.532500000000006
    22   1      3.5949999999999993      53.925000000000004      50.330000000000005
    23   1      3.5949999999999993      55.722500000000004      52.127500000000012
    24   1      5.3924999999999983      53.925000000000004      52.127500000000012
    25   1      5.3924999999999983      55.722500000000004      50.330000000000005
    26   1      3.5949999999999993      53.925000000000004      53.925000000000004
    27   1      3.5949999999999993      55.722500000000004      55.722500000000004
    28   1      5.3924999999999983      53.925000000000004      55.722500000000004
    29   1      5.3924999999999983      55.722500000000004      53.925000000000004
    30   1      3.5949999999999993      53.925000000000004       57.52000000000001
    31   1      5.3924999999999983      53.925000000000004       59.31750000000001
    32   1      5.3924999999999983      55.722500000000004       57.52000000000001
    33   1      5.3924999999999983       57.52000000000001      48.532500000000006
    34   1      3.5949999999999993       57.52000000000001      50.330000000000005
    35   1      5.3924999999999983       57.52000000000001      52.127500000000012
    36   1      5.3924999999999983       59.31750000000001      50.330000000000005
    37   1      3.5949999999999993       57.52000000000001      53.925000000000004
    38   1      5.3924999999999983       57.52000000000001      55.722500000000004
    39   1      5.3924999999999983       59.31750000000001      53.925000000000004
    40   1      3.5949999999999993       57.52000000000001       57.52000000000001
    41   1      5.3924999999999983       57.52000000000001       59.31750000000001
    42   1      5.3924999999999983       59.31750000000001       57.52000000000001
    43   1       8.987500000000006      44.937500000000007      46.734999999999999
    44   1       8.987500000000006      43.140000000000001      52.127500000000012
    45   1       8.987500000000006      44.937500000000007      50.330000000000005
    46   1       8.987500000000006      43.140000000000001      55.722500000000004
    47   1       8.987500000000006      44.937500000000007      53.925000000000004
    48   1       8.987500000000006      44.937500000000007       57.52000000000001
    49   1       8.987500000000006      44.937500000000007      61.115000000000002
    50   1       8.987500000000006      46.734999999999999      44.937500000000007
    51   1      7.1899999999999986      46.734999999999999      46.734999999999999
    52   1      7.1899999999999986      48.532500000000006      48.532500000000006
    53   1       8.987500000000006      46.734999999999999      48.532500000000006
    54   1       8.987500000000006      48.532500000000006      46.734999999999999
    55   1      7.1899999999999986      46.734999999999999      50.330000000000005
    56   1      7.1899999999999986      48.532500000000006      52.127500000000012
    57   1       8.987500000000006      46.734999999999999      52.127500000000012
    58   1       8.987500000000006      48.532500000000006      50.330000000000005
    59   1      7.1899999999999986      46.734999999999999      53.925000000000004
    60   1      7.1899999999999986      48.532500000000006      55.722500000000004
    61   1       8.987500000000006      46.734999999999999      55.722500000000004
    62   1       8.987500000000006      48.532500000000006      53.925000000000004
    63   1      7.1899999999999986      46.734999999999999       57.52000000000001
    64   1      7.1899999999999986      48.532500000000006       59.31750000000001
    65   1       8.987500000000006      46.734999999999999       59.31750000000001
    66   1       8.987500000000006      48.532500000000006       57.52000000000001
    67   1      7.1899999999999986      46.734999999999999      61.115000000000002
    68   1       8.987500000000006      46.734999999999999      62.912500000000001
    69   1       8.987500000000006      48.532500000000006      61.115000000000002
    70   1       8.987500000000006      50.330000000000005      44.937500000000007
    71   1       8.987500000000006      52.127500000000012      43.140000000000001
    72   1      7.1899999999999986      50.330000000000005      46.734999999999999
    73   1      7.1899999999999986      52.127500000000012      48.532500000000006
    74   1       8.987500000000006      50.330000000000005      48.532500000000006
    75   1       8.987500000000006      52.127500000000012      46.734999999999999
    76   1      7.1899999999999986      50.330000000000005      50.330000000000005
    77   1      7.1899999999999986      52.127500000000012      52.127500000000012
    78   1       8.987500000000006      50.330000000000005      52.127500000000012
    79   1       8.987500000000006      52.127500000000012      50.330000000000005
    80   1      7.1899999999999986      50.330000000000005      53.925000000000004
    81   1      7.1899999999999986      52.127500000000012      55.722500000000004
    82   1       8.987500000000006      50.330000000000005      55.722500000000004
    83   1       8.987500000000006      52.127500000000012      53.925000000000004
    84   1      7.1899999999999986      50.330000000000005       57.52000000000001
    85   1      7.1899999999999986      52.127500000000012       59.31750000000001
    86   1       8.987500000000006      50.330000000000005       59.31750000000001
    87   1       8.987500000000006      52.127500000000012       57.52000000000001
    88   1      7.1899999999999986      50.330000000000005      61.115000000000002
    89   1       8.987500000000006      50.330000000000005      62.912500000000001
    90   1       8.987500000000006      52.127500000000012      61.115000000000002
    91   1       8.987500000000006      52.127500000000012      64.710000000000008
    92   1       8.987500000000006      53.925000000000004      44.937500000000007
    93   1       8.987500000000006      55.722500000000004      43.140000000000001
    94   1      7.1899999999999986      53.925000000000004      46.734999999999999
    95   1      7.1899999999999986      55.722500000000004      48.532500000000006
    96   1       8.987500000000006      53.925000000000004      48.532500000000006
    97   1       8.987500000000006      55.722500000000004      46.734999999999999
    98   1      7.1899999999999986      53.925000000000004      50.330000000000005
    99   1      7.1899999999999986      55.722500000000004      52.127500000000012
   100   1       8.987500000000006      53.925000000000004      52.127500000000012
   101   1       8.987500000000006      55.722500000000004      50.330000000000005
   102   1      7.1899999999999986      53.925000000000004      53.925000000000004
   103   1      7.1899999999999986      55.722500000000004      55.722500000000004
   104   1       8.987500000000006      53.925000000000004      55.722500000000004
   105   1       8.987500000000006      55.722500000000004      53.925000000000004
   106   1      7.1899999999999986      53.925000000000004       57.52000000000001
   107   1      7.1899999999999986      55.722500000000004       59.31750000000001
   108   1       8.987500000000006      53.925000000000004       59.31750000000001
   109   1       8.987500000000006      55.722500000000004       57.52000000000001
   110   1      7.1899999999999986      53.925000000000004      61.115000000000002
   111   1       8.987500000000006      53.925000000000004      62.912500000000001
   112   1       8.987500000000006      55.722500000000004      61.115000000000002
   113   1       8.987500000000006      55.722500000000004      64.710000000000008
   114   1       8.987500000000006       57.52000000000001      44.937500000000007
   115   1      7.1899999999999986       57.52000000000001      46.734999999999999
   116   1      7.1899999999999986       59.31750000000001      48.532500000000006
   117   1       8.987500000000006       57.52000000000001      48.532500000000006
   118   1       8.987500000000006       59.31750000000001      46.734999999999999
   119   1      7.1899999999999986       57.52000000000001      50.330000000000005
   120   1      7.1899999999999986       59.31750000000001      52.127500000000012
   121   1       8.987500000000006       57.52000000000001      52.127500000000012
   122   1       8.987500000000006       59.31750000000001      50.330000000000005
   123   1      7.1899999999999986       57.52000000000001      53.925000000000004
   124   1      7.1899999999999986       59.31750000000001      55.722500000000004
   125   1       8.987500000000006       57.52000000000001      55.722500000000004
   126   1       8.987500000000006       59.31750000000001      53.925000000000004
   127   1      7.1899999999999986       57.52000000000001       57.52000000000001
   128   1      7.1899999999999986       59.31750000000001       59.31750000000001
   129   1       8.987500000000006       57.52000000000001       59.31750000000001
   130   1       8.987500000000006       59.31750000000001       57.52000000000001
   131   1      7.1899999999999986       57.52000000000001      61.115000000000002
   132   1       8.987500000000006       57.52000000000001      62.912500000000001
   133   1       8.987500000000006       59.31750000000001      61.115000000000002
   134   1       8.987500000000006      61.115000000000002      44.937500000000007
   135   1      7.1899999999999986      61.115000000000002      46.734999999999999
   136   1       8.987500000000006      61.115000000000002      48.532500000000006
   137   1       8.987500000000006      62.912500000000001      46.734999999999999
   138   1      7.1899999999999986      61.115000000000002      50.330000000000005
   139   1       8.987500000000006      61.115000000000002      52.127500000000012
   140   1       8.987500000000006      62.912500000000001      50.330000000000005
   141   1      7.1899999999999986      61.115000000000002      53.925000000000004
   142   1       8.987500000000006      61.115000000000002      55.722500000000004
   143   1       8.987500000000006      62.912500000000001      53.925000000000004
   144   1      7.1899999999999986      61.115000000000002       57.52000000000001
   145   1       8.987500000000006      61.115000000000002       59.31750000000001
   146   1       8.987500000000006      62.912500000000001       57.52000000000001
   147   1      7.1899999999999986      61.115000000000002      61.115000000000002
   148   1       8.987500000000006      61.115000000000002      62.912500000000001
   149   1       8.987500000000006      62.912500000000001      61.115000000000002
   150   1       8.987500000000006      64.710000000000008      52.127500000000012
   151   1       8.987500000000006      64.710000000000008      55.722500000000004
   152   1      12.582500000000005      41.342500000000008      43.140000000000001
   153   1      12.582500000000005      39.545000000000002      48.532500000000006
   154   1      12.582500000000005      41.342500000000008      46.734999999999999
   155   1      10.785000000000005      41.342500000000008      52.127500000000012
   156   1      12.582500000000005      39.545000000000002      52.127500000000012
   157   1      12.582500000000005      41.342500000000008      50.330000000000005
   158   1      10.785000000000005      41.342500000000008      55.722500000000004
   159   1      12.582500000000005      39.545000000000002      55.722500000000004
   160   1      12.582500000000005      41.342500000000008      53.925000000000004
   161   1      12.582500000000005      39.545000000000002       59.31750000000001
   162   1      12.582500000000005      41.342500000000008       57.52000000000001
   163   1      12.582500000000005      41.342500000000008      61.115000000000002
   164   1      12.582500000000005      41.342500000000008      64.710000000000008
   165   1      12.582500000000005      43.140000000000001      41.342500000000008
   166   1      10.785000000000005      43.140000000000001      43.140000000000001
   167   1      10.785000000000005      44.937500000000007      44.937500000000007
   168   1      12.582500000000005      43.140000000000001      44.937500000000007
   169   1      12.582500000000005      44.937500000000007      43.140000000000001
   170   1      10.785000000000005      43.140000000000001      46.734999999999999
   171   1      10.785000000000005      44.937500000000007      48.532500000000006
   172   1      12.582500000000005      43.140000000000001      48.532500000000006
   173   1      12.582500000000005      44.937500000000007      46.734999999999999
   174   1      10.785000000000005      43.140000000000001      50.330000000000005
   175   1      10.785000000000005      44.937500000000007      52.127500000000012
   176   1      12.582500000000005      43.140000000000001      52.127500000000012
   177   1      12.582500000000005      44.937500000000007      50.330000000000005
   178   1      10.785000000000005      43.140000000000001      53.925000000000004
   179   1      10.785000000000005      44.937500000000007      55.722500000000004
   180   1      12.582500000000005      43.140000000000001      55.722500000000004
   181   1      12.582500000000005      44.937500000000007      53.925000000000004
   182   1      10.785000000000005      43.140000000000001       57.52000000000001
   183   1      10.785000000000005      44.937500000000007       59.31750000000001
   184   1      12.582500000000005      43.140000000000001       59.31750000000001
   185   1      12.582500000000005      44.937500000000007       57.52000000000001
   186   1      10.785000000000005      43.140000000000001      61.115000000000002
   187   1      10.785000000000005      44.937500000000007      62.912500000000001
   188   1      12.582500000000005      43.140000000000001      62.912500000000001
   189   1      12.582500000000005      44.937500000000007      61.115000000000002
   190   1      10.785000000000005      43.140000000000001      64.710000000000008
   191   1      12.582500000000005      43.140000000000001      66.507500000000007
   192   1      12.582500000000005      44.937500000000007      64.710000000000008
   193   1      12.582500000000005      46.734999999999999      41.342500000000008
   194   1      12.582500000000005      48.532500000000006      39.545000000000002
   195   1      10.785000000000005      46.734999999999999      43.140000000000001
   196   1      10.785000000000005      48.532500000000006      44.937500000000007
   197   1      12.582500000000005      46.734999999999999      44.937500000000007
   198   1      12.582500000000005      48.532500000000006      43.140000000000001
   199   1      10.785000000000005      46.734999999999999      46.734999999999999
   200   1      10.785000000000005      48.532500000000006      48.532500000000006
   201   1      12.582500000000005      46.734999999999999      48.532500000000006
   202   1      12.582500000000005      48.532500000000006      46.734999999999999
   203   1      10.785000000000005      46.734999999999999      50.330000000000005
   204   1      10.785000000000005      48.532500000000006      52.127500000000012
   205   1      12.582500000000005      46.734999999999999      52.127500000000012
   206   1      12.582500000000005      48.532500000000006      50.330000000000005
   207   1      10.785000000000005      46.734999999999999      53.925000000000004
   208   1      10.785000000000005      48.532500000000006      55.722500000000004
   209   1      12.582500000000005      46.734999999999999      55.722500000000004
   210   1      12.582500000000005      48.532500000000006      53.925000000000004
   211   1      10.785000000000005      46.734999999999999       57.52000000000001
   212   1      10.785000000000005      48.532500000000006       59.31750000000001
   213   1      12.582500000000005      46.734999999999999       59.31750000000001
   214   1      12.582500000000005      48.532500000000006       57.52000000000001
   215   1      10.785000000000005      46.734999999999999      61.115000000000002
   216   1      10.785000000000005      48.532500000000006      62.912500000000001
   217   1      12.582500000000005      46.734999999999999      62.912500000000001
   218   1      12.582500000000005      48.532500000000006      61.115000000000002
   219   1      10.785000000000005      46.734999999999999      64.710000000000008
   220   1      12.582500000000005      46.734999999999999      66.507500000000007
   221   1      12.582500000000005      48.532500000000006      64.710000000000008
   222   1      12.582500000000005      48.532500000000006      68.305000000000007
   223   1      10.785000000000005      52.127500000000012      41.342500000000008
   224   1      12.582500000000005      50.330000000000005      41.342500000000008
   225   1      12.582500000000005      52.127500000000012      39.545000000000002
   226   1      10.785000000000005      50.330000000000005      43.140000000000001
   227   1      10.785000000000005      52.127500000000012      44.937500000000007
   228   1      12.582500000000005      50.330000000000005      44.937500000000007
   229   1      12.582500000000005      52.127500000000012      43.140000000000001
   230   1      10.785000000000005      50.330000000000005      46.734999999999999
   231   1      10.785000000000005      52.127500000000012      48.532500000000006
   232   1      12.582500000000005      50.330000000000005      48.532500000000006
   233   1      12.582500000000005      52.127500000000012      46.734999999999999
   234   1      10.785000000000005      50.330000000000005      50.330000000000005
   235   1      10.785000000000005      52.127500000000012      52.127500000000012
   236   1      12.582500000000005      50.330000000000005      52.127500000000012
   237   1      12.582500000000005      52.127500000000012      50.330000000000005
   238   1      10.785000000000005      50.330000000000005      53.925000000000004
   239   1      10.785000000000005      52.127500000000012      55.722500000000004
   240   1      12.582500000000005      50.330000000000005      55.722500000000004
   241   1      12.582500000000005      52.127500000000012      53.925000000000004
   242   1      10.785000000000005      50.330000000000005       57.52000000000001
   243   1      10.785000000000005      52.127500000000012       59.31750000000001
   244   1      12.582500000000005      50.330000000000005       59.31750000000001
   245   1      12.582500000000005      52.127500000000012       57.52000000000001
   246   1      10.785000000000005      50.330000000000005      61.115000000000002
   247   1      10.785000000000005      52.127500000000012      62.912500000000001
   248   1      12.582500000000005      50.330000000000005      62.912500000000001
   249   1      12.582500000000005      52.127500000000012      61.115000000000002
   250   1      10.785000000000005      50.330000000000005      64.710000000000008
   251   1      10.785000000000005      52.127500000000012      66.507500000000007
   252   1      12.582500000000005      50.330000000000005      66.507500000000007
   253   1      12.582500000000005      52.127500000000012      64.710000000000008
   254   1      12.582500000000005      52.127500000000012      68.305000000000007
   255   1      10.785000000000005      55.722500000000004      41.342500000000008
   256   1      12.582500000000005      53.925000000000004      41.342500000000008
   257   1      12.582500000000005      55.722500000000004      39.545000000000002
   258   1      10.785000000000005      53.925000000000004      43.140000000000001
   259   1      10.785000000000005      55.722500000000004      44.937500000000007
   260   1      12.582500000000005      53.925000000000004      44.937500000000007
   261   1      12.582500000000005      55.722500000000004      43.140000000000001
   262   1      10.785000000000005      53.925000000000004      46.734999999999999
   263   1      10.785000000000005      55.722500000000004      48.532500000000006
   264   1      12.582500000000005      53.925000000000004      48.532500000000006
   265   1      12.582500000000005      55.722500000000004      46.734999999999999
   266   1      10.785000000000005      53.925000000000004      50.330000000000005
   267   1      10.785000000000005      55.722500000000004      52.127500000000012
   268   1      12.582500000000005      53.925000000000004      52.127500000000012
   269   1      12.582500000000005      55.722500000000004      50.330000000000005
   270   1      10.785000000000005      53.925000000000004      53.925000000000004
   271   1      10.785000000000005      55.722500000000004      55.722500000000004
   272   1      12.582500000000005      53.925000000000004      55.722500000000004
   273   1      12.582500000000005      55.722500000000004      53.925000000000004
   274   1      10.785000000000005      53.925000000000004       57.52000000000001
   275   1      10.785000000000005      55.722500000000004       59.31750000000001
   276   1      12.582500000000005      53.925000000000004       59.31750000000001
   277   1      12.582500000000005      55.722500000000004       57.52000000000001
   278   1      10.785000000000005      53.925000000000004      61.115000000000002
   279   1      10.785000000000005      55.722500000000004      62.912500000000001
   280   1      12.582500000000005      53.925000000000004      62.912500000000001
   281   1      12.582500000000005      55.722500000000004      61.115000000000002
   282   1      10.785000000000005      53.925000000000004      64.710000000000008
   283   1      10.785000000000005      55.722500000000004      66.507500000000007
   284   1      12.582500000000005      53.925000000000004      66.507500000000007
   285   1      12.582500000000005      55.722500000000004      64.710000000000008
   286   1      12.582500000000005      55.722500000000004      68.305000000000007
   287   1      12.582500000000005       57.52000000000001      41.342500000000008
   288   1      12.582500000000005       59.31750000000001      39.545000000000002
   289   1      10.785000000000005       57.52000000000001      43.140000000000001
   290   1      10.785000000000005       59.31750000000001      44.937500000000007
   291   1      12.582500000000005       57.52000000000001      44.937500000000007
   292   1      12.582500000000005       59.31750000000001      43.140000000000001
   293   1      10.785000000000005       57.52000000000001      46.734999999999999
   294   1      10.785000000000005       59.31750000000001      48.532500000000006
   295   1      12.582500000000005       57.52000000000001      48.532500000000006
   296   1      12.582500000000005       59.31750000000001      46.734999999999999
   297   1      10.785000000000005       57.52000000000001      50.330000000000005
   298   1      10.785000000000005       59.31750000000001      52.127500000000012
   299   1      12.582500000000005       57.52000000000001      52.127500000000012
   300   1      12.582500000000005       59.31750000000001      50.330000000000005
   301   1      10.785000000000005       57.52000000000001      53.925000000000004
   302   1      10.785000000000005       59.31750000000001      55.722500000000004
   303   1      12.582500000000005       57.52000000000001      55.722500000000004
   304   1      12.582500000000005       59.31750000000001      53.925000000000004
   305   1      10.785000000000005       57.52000000000001       57.52000000000001
   306   1      10.785000000000005       59.31750000000001       59.31750000000001
   307   1      12.582500000000005       57.52000000000001       59.31750000000001
   308   1      12.582500000000005       59.31750000000001       57.52000000000001
   309   1      10.785000000000005       57.52000000000001      61.115000000000002
   310   1      10.785000000000005       59.31750000000001      62.912500000000001
   311   1      12.582500000000005       57.52000000000001      62.912500000000001
   312   1      12.582500000000005       59.31750000000001      61.115000000000002
   313   1      10.785000000000005       57.52000000000001      64.710000000000008
   314   1      12.582500000000005       57.52000000000001      66.507500000000007
   315   1      12.582500000000005       59.31750000000001      64.710000000000008
   316   1      12.582500000000005       59.31750000000001      68.305000000000007
   317   1      12.582500000000005      61.115000000000002      41.342500000000008
   318   1      10.785000000000005      61.115000000000002      43.140000000000001
   319   1      10.785000000000005      62.912500000000001      44.937500000000007
   320   1      12.582500000000005      61.115000000000002      44.937500000000007
   321   1      12.582500000000005      62.912500000000001      43.140000000000001
   322   1      10.785000000000005      61.115000000000002      46.734999999999999
   323   1      10.785000000000005      62.912500000000001      48.532500000000006
   324   1      12.582500000000005      61.115000000000002      48.532500000000006
   325   1      12.582500000000005      62.912500000000001      46.734999999999999
   326   1      10.785000000000005      61.115000000000002      50.330000000000005
   327   1      10.785000000000005      62.912500000000001      52.127500000000012
   328   1      12.582500000000005      61.115000000000002      52.127500000000012
   329   1      12.582500000000005      62.912500000000001      50.330000000000005
   330   1      10.785000000000005      61.115000000000002      53.925000000000004
   331   1      10.785000000000005      62.912500000000001      55.722500000000004
   332   1      12.582500000000005      61.115000000000002      55.722500000000004
   333   1      12.582500000000005      62.912500000000001      53.925000000000004
   334   1      10.785000000000005      61.115000000000002       57.52000000000001
   335   1      10.785000000000005      62.912500000000001       59.31750000000001
   336   1      12.582500000000005      61.115000000000002       59.31750000000001
   337   1      12.582500000000005      62.912500000000001       57.52000000000001
   338   1      10.785000000000005      61.115000000000002      61.115000000000002
   339   1      10.785000000000005      62.912500000000001      62.912500000000001
   340   1      12.582500000000005      61.115000000000002      62.912500000000001
   341   1      12.582500000000005      62.912500000000001      61.115000000000002
   342   1      10.785000000000005      61.115000000000002      64.710000000000008
   343   1      12.582500000000005      61.115000000000002      66.507500000000007
   344   1      12.582500000000005      62.912500000000001      64.710000000000008
   345   1      12.582500000000005      64.710000000000008      41.342500000000008
   346   1      10.785000000000005      64.710000000000008      43.140000000000001
   347   1      12.582500000000005      64.710000000000008      44.937500000000007
   348   1      12.582500000000005      66.507500000000007      43.140000000000001
   349   1      10.785000000000005      64.710000000000008      46.734999999999999
   350   1      12.582500000000005      64.710000000000008      48.532500000000006
   351   1      12.582500000000005      66.507500000000007      46.734999999999999
   352   1      10.785000000000005      64.710000000000008      50.330000000000005
   353   1      10.785000000000005      66.507500000000007      52.127500000000012
   354   1      12.582500000000005      64.710000000000008      52.127500000000012
   355   1      12.582500000000005      66.507500000000007      50.330000000000005
   356   1      10.785000000000005      64.710000000000008      53.925000000000004
   357   1      10.785000000000005      66.507500000000007      55.722500000000004
   358   1      12.582500000000005      64.710000000000008      55.722500000000004