model_files/Pd/Pd_30000/Pd_551/data.Pd_551_fcc_30369 (written by ASE) 

30369 	 atoms 
1  atom types
0.0                     124  xlo xhi
0.0                     124  ylo yhi
0.0                     124  zlo zhi


Atoms 

     1   1      1.9450000000000143      60.295000000000016      62.240000000000002
     2   1      1.9450000000000143      62.240000000000002      60.295000000000016
     3   1  1.4210854715202004e-14      62.240000000000002      62.240000000000002
     4   1      1.9450000000000143      62.240000000000002      64.185000000000002
     5   1      1.9450000000000143      64.185000000000002      62.240000000000002
     6   1      5.8350000000000151      56.405000000000015      62.240000000000002
     7   1      3.8900000000000148      60.295000000000016      60.295000000000016
     8   1      5.8350000000000151      58.350000000000016      60.295000000000016
     9   1      5.8350000000000151      60.295000000000016      58.350000000000016
    10   1      3.8900000000000148      58.350000000000016      62.240000000000002
    11   1      3.8900000000000148      60.295000000000016      64.185000000000002
    12   1      5.8350000000000151      58.350000000000016      64.185000000000002
    13   1      5.8350000000000151      60.295000000000016      62.240000000000002
    14   1      5.8350000000000151      60.295000000000016      66.129999999999995
    15   1      5.8350000000000151      62.240000000000002      56.405000000000015
    16   1      3.8900000000000148      62.240000000000002      58.350000000000016
    17   1      3.8900000000000148      64.185000000000002      60.295000000000016
    18   1      5.8350000000000151      62.240000000000002      60.295000000000016
    19   1      5.8350000000000151      64.185000000000002      58.350000000000016
    20   1      3.8900000000000148      62.240000000000002      62.240000000000002
    21   1      3.8900000000000148      64.185000000000002      64.185000000000002
    22   1      5.8350000000000151      62.240000000000002      64.185000000000002
    23   1      5.8350000000000151      64.185000000000002      62.240000000000002
    24   1      3.8900000000000148      62.240000000000002      66.129999999999995
    25   1      5.8350000000000151      62.240000000000002      68.074999999999989
    26   1      5.8350000000000151      64.185000000000002      66.129999999999995
    27   1      5.8350000000000151      66.129999999999995      60.295000000000016
    28   1      3.8900000000000148      66.129999999999995      62.240000000000002
    29   1      5.8350000000000151      66.129999999999995      64.185000000000002
    30   1      5.8350000000000151      68.074999999999989      62.240000000000002
    31   1      9.7250000000000156      52.515000000000015      62.240000000000002
    32   1      7.7800000000000153      56.405000000000015      56.405000000000015
    33   1      9.7250000000000156      54.460000000000015      56.405000000000015
    34   1      9.7250000000000156      56.405000000000015      54.460000000000015
    35   1      7.7800000000000153      56.405000000000015      60.295000000000016
    36   1      9.7250000000000156      54.460000000000015      60.295000000000016
    37   1      9.7250000000000156      56.405000000000015      58.350000000000016
    38   1      7.7800000000000153      54.460000000000015      62.240000000000002
    39   1      7.7800000000000153      56.405000000000015      64.185000000000002
    40   1      9.7250000000000156      54.460000000000015      64.185000000000002
    41   1      9.7250000000000156      56.405000000000015      62.240000000000002
    42   1      7.7800000000000153      56.405000000000015      68.074999999999989
    43   1      9.7250000000000156      54.460000000000015      68.074999999999989
    44   1      9.7250000000000156      56.405000000000015      66.129999999999995
    45   1      9.7250000000000156      56.405000000000015      70.019999999999996
    46   1      7.7800000000000153      60.295000000000016      56.405000000000015
    47   1      9.7250000000000156      58.350000000000016      56.405000000000015
    48   1      9.7250000000000156      60.295000000000016      54.460000000000015
    49   1      7.7800000000000153      58.350000000000016      58.350000000000016
    50   1      7.7800000000000153      60.295000000000016      60.295000000000016
    51   1      9.7250000000000156      58.350000000000016      60.295000000000016
    52   1      9.7250000000000156      60.295000000000016      58.350000000000016
    53   1      7.7800000000000153      58.350000000000016      62.240000000000002
    54   1      7.7800000000000153      60.295000000000016      64.185000000000002
    55   1      9.7250000000000156      58.350000000000016      64.185000000000002
    56   1      9.7250000000000156      60.295000000000016      62.240000000000002
    57   1      7.7800000000000153      58.350000000000016      66.129999999999995
    58   1      7.7800000000000153      60.295000000000016      68.074999999999989
    59   1      9.7250000000000156      58.350000000000016      68.074999999999989
    60   1      9.7250000000000156      60.295000000000016      66.129999999999995
    61   1      9.7250000000000156      60.295000000000016      70.019999999999996
    62   1      9.7250000000000156      62.240000000000002      52.515000000000015
    63   1      7.7800000000000153      62.240000000000002      54.460000000000015
    64   1      7.7800000000000153      64.185000000000002      56.405000000000015
    65   1      9.7250000000000156      62.240000000000002      56.405000000000015
    66   1      9.7250000000000156      64.185000000000002      54.460000000000015
    67   1      7.7800000000000153      62.240000000000002      58.350000000000016
    68   1      7.7800000000000153      64.185000000000002      60.295000000000016
    69   1      9.7250000000000156      62.240000000000002      60.295000000000016
    70   1      9.7250000000000156      64.185000000000002      58.350000000000016
    71   1      7.7800000000000153      62.240000000000002      62.240000000000002
    72   1      7.7800000000000153      64.185000000000002      64.185000000000002
    73   1      9.7250000000000156      62.240000000000002      64.185000000000002
    74   1      9.7250000000000156      64.185000000000002      62.240000000000002
    75   1      7.7800000000000153      62.240000000000002      66.129999999999995
    76   1      7.7800000000000153      64.185000000000002      68.074999999999989
    77   1      9.7250000000000156      62.240000000000002      68.074999999999989
    78   1      9.7250000000000156      64.185000000000002      66.129999999999995
    79   1      7.7800000000000153      62.240000000000002      70.019999999999996
    80   1      9.7250000000000156      62.240000000000002      71.964999999999989
    81   1      9.7250000000000156      64.185000000000002      70.019999999999996
    82   1      7.7800000000000153      68.074999999999989      56.405000000000015
    83   1      9.7250000000000156      66.129999999999995      56.405000000000015
    84   1      9.7250000000000156      68.074999999999989      54.460000000000015
    85   1      7.7800000000000153      66.129999999999995      58.350000000000016
    86   1      7.7800000000000153      68.074999999999989      60.295000000000016
    87   1      9.7250000000000156      66.129999999999995      60.295000000000016
    88   1      9.7250000000000156      68.074999999999989      58.350000000000016
    89   1      7.7800000000000153      66.129999999999995      62.240000000000002
    90   1      7.7800000000000153      68.074999999999989      64.185000000000002
    91   1      9.7250000000000156      66.129999999999995      64.185000000000002
    92   1      9.7250000000000156      68.074999999999989      62.240000000000002
    93   1      7.7800000000000153      66.129999999999995      66.129999999999995
    94   1      7.7800000000000153      68.074999999999989      68.074999999999989
    95   1      9.7250000000000156      66.129999999999995      68.074999999999989
    96   1      9.7250000000000156      68.074999999999989      66.129999999999995
    97   1      9.7250000000000156      68.074999999999989      70.019999999999996
    98   1      9.7250000000000156      70.019999999999996      56.405000000000015
    99   1      9.7250000000000156      70.019999999999996      60.295000000000016
   100   1      7.7800000000000153      70.019999999999996      62.240000000000002
   101   1      9.7250000000000156      70.019999999999996      64.185000000000002
   102   1      9.7250000000000156      71.964999999999989      62.240000000000002
   103   1      9.7250000000000156      70.019999999999996      68.074999999999989
   104   1      13.615000000000009      48.625000000000014      62.240000000000002
   105   1      11.670000000000016      52.515000000000015      52.515000000000015
   106   1      13.615000000000009      50.570000000000014      52.515000000000015
   107   1      13.615000000000009      52.515000000000015      50.570000000000014
   108   1      11.670000000000016      52.515000000000015      56.405000000000015
   109   1      13.615000000000009      50.570000000000014      56.405000000000015
   110   1      13.615000000000009      52.515000000000015      54.460000000000015
   111   1      11.670000000000016      52.515000000000015      60.295000000000016
   112   1      13.615000000000009      50.570000000000014      60.295000000000016
   113   1      13.615000000000009      52.515000000000015      58.350000000000016
   114   1      11.670000000000016      50.570000000000014      62.240000000000002
   115   1      11.670000000000016      52.515000000000015      64.185000000000002
   116   1      13.615000000000009      50.570000000000014      64.185000000000002
   117   1      13.615000000000009      52.515000000000015      62.240000000000002
   118   1      11.670000000000016      52.515000000000015      68.074999999999989
   119   1      13.615000000000009      50.570000000000014      68.074999999999989
   120   1      13.615000000000009      52.515000000000015      66.129999999999995
   121   1      11.670000000000016      52.515000000000015      71.964999999999989
   122   1      13.615000000000009      50.570000000000014      71.964999999999989
   123   1      13.615000000000009      52.515000000000015      70.019999999999996
   124   1      13.615000000000009      52.515000000000015      73.909999999999997
   125   1      11.670000000000016      56.405000000000015      52.515000000000015
   126   1      13.615000000000009      54.460000000000015      52.515000000000015
   127   1      13.615000000000009      56.405000000000015      50.570000000000014
   128   1      11.670000000000016      54.460000000000015      54.460000000000015
   129   1      11.670000000000016      56.405000000000015      56.405000000000015
   130   1      13.615000000000009      54.460000000000015      56.405000000000015
   131   1      13.615000000000009      56.405000000000015      54.460000000000015
   132   1      11.670000000000016      54.460000000000015      58.350000000000016
   133   1      11.670000000000016      56.405000000000015      60.295000000000016
   134   1      13.615000000000009      54.460000000000015      60.295000000000016
   135   1      13.615000000000009      56.405000000000015      58.350000000000016
   136   1      11.670000000000016      54.460000000000015      62.240000000000002
   137   1      11.670000000000016      56.405000000000015      64.185000000000002
   138   1      13.615000000000009      54.460000000000015      64.185000000000002
   139   1      13.615000000000009      56.405000000000015      62.240000000000002
   140   1      11.670000000000016      54.460000000000015      66.129999999999995
   141   1      11.670000000000016      56.405000000000015      68.074999999999989
   142   1      13.615000000000009      54.460000000000015      68.074999999999989
   143   1      13.615000000000009      56.405000000000015      66.129999999999995
   144   1      11.670000000000016      54.460000000000015      70.019999999999996
   145   1      11.670000000000016      56.405000000000015      71.964999999999989
   146   1      13.615000000000009      54.460000000000015      71.964999999999989
   147   1      13.615000000000009      56.405000000000015      70.019999999999996
   148   1      13.615000000000009      56.405000000000015      73.909999999999997
   149   1      11.670000000000016      60.295000000000016      52.515000000000015
   150   1      13.615000000000009      58.350000000000016      52.515000000000015
   151   1      13.615000000000009      60.295000000000016      50.570000000000014
   152   1      11.670000000000016      58.350000000000016      54.460000000000015
   153   1      11.670000000000016      60.295000000000016      56.405000000000015
   154   1      13.615000000000009      58.350000000000016      56.405000000000015
   155   1      13.615000000000009      60.295000000000016      54.460000000000015
   156   1      11.670000000000016      58.350000000000016      58.350000000000016
   157   1      11.670000000000016      60.295000000000016      60.295000000000016
   158   1      13.615000000000009      58.350000000000016      60.295000000000016
   159   1      13.615000000000009      60.295000000000016      58.350000000000016
   160   1      11.670000000000016      58.350000000000016      62.240000000000002
   161   1      11.670000000000016      60.295000000000016      64.185000000000002
   162   1      13.615000000000009      58.350000000000016      64.185000000000002
   163   1      13.615000000000009      60.295000000000016      62.240000000000002
   164   1      11.670000000000016      58.350000000000016      66.129999999999995
   165   1      11.670000000000016      60.295000000000016      68.074999999999989
   166   1      13.615000000000009      58.350000000000016      68.074999999999989
   167   1      13.615000000000009      60.295000000000016      66.129999999999995
   168   1      11.670000000000016      58.350000000000016      70.019999999999996
   169   1      11.670000000000016      60.295000000000016      71.964999999999989
   170   1      13.615000000000009      58.350000000000016      71.964999999999989
   171   1      13.615000000000009      60.295000000000016      70.019999999999996
   172   1      13.615000000000009      60.295000000000016      73.909999999999997
   173   1      13.615000000000009      62.240000000000002      48.625000000000014
   174   1      11.670000000000016      62.240000000000002      50.570000000000014
   175   1      11.670000000000016      64.185000000000002      52.515000000000015
   176   1      13.615000000000009      62.240000000000002      52.515000000000015
   177   1      13.615000000000009      64.185000000000002      50.570000000000014
   178   1      11.670000000000016      62.240000000000002      54.460000000000015
   179   1      11.670000000000016      64.185000000000002      56.405000000000015
   180   1      13.615000000000009      62.240000000000002      56.405000000000015
   181   1      13.615000000000009      64.185000000000002      54.460000000000015
   182   1      11.670000000000016      62.240000000000002      58.350000000000016
   183   1      11.670000000000016      64.185000000000002      60.295000000000016
   184   1      13.615000000000009      62.240000000000002      60.295000000000016
   185   1      13.615000000000009      64.185000000000002      58.350000000000016
   186   1      11.670000000000016      62.240000000000002      62.240000000000002
   187   1      11.670000000000016      64.185000000000002      64.185000000000002
   188   1      13.615000000000009      62.240000000000002      64.185000000000002
   189   1      13.615000000000009      64.185000000000002      62.240000000000002
   190   1      11.670000000000016      62.240000000000002      66.129999999999995
   191   1      11.670000000000016      64.185000000000002      68.074999999999989
   192   1      13.615000000000009      62.240000000000002      68.074999999999989
   193   1      13.615000000000009      64.185000000000002      66.129999999999995
   194   1      11.670000000000016      62.240000000000002      70.019999999999996
   195   1      11.670000000000016      64.185000000000002      71.964999999999989
   196   1      13.615000000000009      62.240000000000002      71.964999999999989
   197   1      13.615000000000009      64.185000000000002      70.019999999999996
   198   1      11.670000000000016      62.240000000000002      73.909999999999997
   199   1      13.615000000000009      62.240000000000002       75.85499999999999
   200   1      13.615000000000009      64.185000000000002      73.909999999999997
   201   1      11.670000000000016      68.074999999999989      52.515000000000015
   202   1      13.615000000000009      66.129999999999995      52.515000000000015
   203   1      13.615000000000009      68.074999999999989      50.570000000000014
   204   1      11.670000000000016      66.129999999999995      54.460000000000015
   205   1      11.670000000000016      68.074999999999989      56.405000000000015
   206   1      13.615000000000009      66.129999999999995      56.405000000000015
   207   1      13.615000000000009      68.074999999999989      54.460000000000015
   208   1      11.670000000000016      66.129999999999995      58.350000000000016
   209   1      11.670000000000016      68.074999999999989      60.295000000000016
   210   1      13.615000000000009      66.129999999999995      60.295000000000016
   211   1      13.615000000000009      68.074999999999989      58.350000000000016
   212   1      11.670000000000016      66.129999999999995      62.240000000000002
   213   1      11.670000000000016      68.074999999999989      64.185000000000002
   214   1      13.615000000000009      66.129999999999995      64.185000000000002
   215   1      13.615000000000009      68.074999999999989      62.240000000000002
   216   1      11.670000000000016      66.129999999999995      66.129999999999995
   217   1      11.670000000000016      68.074999999999989      68.074999999999989
   218   1      13.615000000000009      66.129999999999995      68.074999999999989
   219   1      13.615000000000009      68.074999999999989      66.129999999999995
   220   1      11.670000000000016      66.129999999999995      70.019999999999996
   221   1      11.670000000000016      68.074999999999989      71.964999999999989
   222   1      13.615000000000009      66.129999999999995      71.964999999999989
   223   1      13.615000000000009      68.074999999999989      70.019999999999996
   224   1      13.615000000000009      68.074999999999989      73.909999999999997
   225   1      11.670000000000016      71.964999999999989      52.515000000000015
   226   1      13.615000000000009      70.019999999999996      52.515000000000015
   227   1      13.615000000000009      71.964999999999989      50.570000000000014
   228   1      11.670000000000016      70.019999999999996      54.460000000000015
   229   1      11.670000000000016      71.964999999999989      56.405000000000015
   230   1      13.615000000000009      70.019999999999996      56.405000000000015
   231   1      13.615000000000009      71.964999999999989      54.460000000000015
   232   1      11.670000000000016      70.019999999999996      58.350000000000016
   233   1      11.670000000000016      71.964999999999989      60.295000000000016
   234   1      13.615000000000009      70.019999999999996      60.295000000000016
   235   1      13.615000000000009      71.964999999999989      58.350000000000016
   236   1      11.670000000000016      70.019999999999996      62.240000000000002
   237   1      11.670000000000016      71.964999999999989      64.185000000000002
   238   1      13.615000000000009      70.019999999999996      64.185000000000002
   239   1      13.615000000000009      71.964999999999989      62.240000000000002
   240   1      11.670000000000016      70.019999999999996      66.129999999999995
   241   1      11.670000000000016      71.964999999999989      68.074999999999989
   242   1      13.615000000000009      70.019999999999996      68.074999999999989
   243   1      13.615000000000009      71.964999999999989      66.129999999999995
   244   1      11.670000000000016      70.019999999999996      70.019999999999996
   245   1      11.670000000000016      71.964999999999989      71.964999999999989
   246   1      13.615000000000009      70.019999999999996      71.964999999999989
   247   1      13.615000000000009      71.964999999999989      70.019999999999996
   248   1      13.615000000000009      71.964999999999989      73.909999999999997
   249   1      13.615000000000009      73.909999999999997      52.515000000000015
   250   1      13.615000000000009      73.909999999999997      56.405000000000015
   251   1      13.615000000000009      73.909999999999997      60.295000000000016
   252   1      11.670000000000016      73.909999999999997      62.240000000000002
   253   1      13.615000000000009      73.909999999999997      64.185000000000002
   254   1      13.615000000000009       75.85499999999999      62.240000000000002
   255   1      13.615000000000009      73.909999999999997      68.074999999999989
   256   1      13.615000000000009      73.909999999999997      71.964999999999989
   257   1       17.50500000000001      44.735000000000014      62.240000000000002
   258   1      15.560000000000018      48.625000000000014      52.515000000000015
   259   1       17.50500000000001      46.680000000000014      52.515000000000015
   260   1       17.50500000000001      48.625000000000014      50.570000000000014
   261   1      15.560000000000018      48.625000000000014      56.405000000000015
   262   1       17.50500000000001      46.680000000000014      56.405000000000015
   263   1       17.50500000000001      48.625000000000014      54.460000000000015
   264   1      15.560000000000018      48.625000000000014      60.295000000000016
   265   1       17.50500000000001      46.680000000000014      60.295000000000016
   266   1       17.50500000000001      48.625000000000014      58.350000000000016
   267   1      15.560000000000018      46.680000000000014      62.240000000000002
   268   1      15.560000000000018      48.625000000000014      64.185000000000002
   269   1       17.50500000000001      46.680000000000014      64.185000000000002
   270   1       17.50500000000001      48.625000000000014      62.240000000000002
   271   1      15.560000000000018      48.625000000000014      68.074999999999989
   272   1       17.50500000000001      46.680000000000014      68.074999999999989
   273   1       17.50500000000001      48.625000000000014      66.129999999999995
   274   1      15.560000000000018      48.625000000000014      71.964999999999989
   275   1       17.50500000000001      46.680000000000014      71.964999999999989
   276   1       17.50500000000001      48.625000000000014      70.019999999999996
   277   1       17.50500000000001      48.625000000000014      73.909999999999997
   278   1      15.560000000000018      52.515000000000015      48.625000000000014
   279   1       17.50500000000001      50.570000000000014      48.625000000000014
   280   1       17.50500000000001      52.515000000000015      46.680000000000014
   281   1      15.560000000000018      50.570000000000014      50.570000000000014
   282   1      15.560000000000018      52.515000000000015      52.515000000000015
   283   1       17.50500000000001      50.570000000000014      52.515000000000015
   284   1       17.50500000000001      52.515000000000015      50.570000000000014
   285   1      15.560000000000018      50.570000000000014      54.460000000000015
   286   1      15.560000000000018      52.515000000000015      56.405000000000015
   287   1       17.50500000000001      50.570000000000014      56.405000000000015
   288   1       17.50500000000001      52.515000000000015      54.460000000000015
   289   1      15.560000000000018      50.570000000000014      58.350000000000016
   290   1      15.560000000000018      52.515000000000015      60.295000000000016
   291   1       17.50500000000001      50.570000000000014      60.295000000000016
   292   1       17.50500000000001      52.515000000000015      58.350000000000016
   293   1      15.560000000000018      50.570000000000014      62.240000000000002
   294   1      15.560000000000018      52.515000000000015      64.185000000000002
   295   1       17.50500000000001      50.570000000000014      64.185000000000002
   296   1       17.50500000000001      52.515000000000015      62.240000000000002
   297   1      15.560000000000018      50.570000000000014      66.129999999999995
   298   1      15.560000000000018      52.515000000000015      68.074999999999989
   299   1       17.50500000000001      50.570000000000014      68.074999999999989
   300   1       17.50500000000001      52.515000000000015      66.129999999999995
   301   1      15.560000000000018      50.570000000000014      70.019999999999996
   302   1      15.560000000000018      52.515000000000015      71.964999999999989
   303   1       17.50500000000001      50.570000000000014      71.964999999999989
   304   1       17.50500000000001      52.515000000000015      70.019999999999996
   305   1      15.560000000000018      50.570000000000014      73.909999999999997
   306   1      15.560000000000018      52.515000000000015       75.85499999999999
   307   1       17.50500000000001      50.570000000000014       75.85499999999999
   308   1       17.50500000000001      52.515000000000015      73.909999999999997
   309   1       17.50500000000001      52.515000000000015      77.799999999999997
   310   1      15.560000000000018      56.405000000000015      48.625000000000014
   311   1       17.50500000000001      54.460000000000015      48.625000000000014
   312   1       17.50500000000001      56.405000000000015      46.680000000000014
   313   1      15.560000000000018      54.460000000000015      50.570000000000014
   314   1      15.560000000000018      56.405000000000015      52.515000000000015
   315   1       17.50500000000001      54.460000000000015      52.515000000000015
   316   1       17.50500000000001      56.405000000000015      50.570000000000014
   317   1      15.560000000000018      54.460000000000015      54.460000000000015
   318   1      15.560000000000018      56.405000000000015      56.405000000000015
   319   1       17.50500000000001      54.460000000000015      56.405000000000015
   320   1       17.50500000000001      56.405000000000015      54.460000000000015
   321   1      15.560000000000018      54.460000000000015      58.350000000000016
   322   1      15.560000000000018      56.405000000000015      60.295000000000016
   323   1       17.50500000000001      54.460000000000015      60.295000000000016
   324   1       17.50500000000001      56.405000000000015      58.350000000000016
   325   1      15.560000000000018      54.460000000000015      62.240000000000002
   326   1      15.560000000000018      56.405000000000015      64.185000000000002
   327   1       17.50500000000001      54.460000000000015      64.185000000000002
   328   1       17.50500000000001      56.405000000000015      62.240000000000002
   329   1      15.560000000000018      54.460000000000015      66.129999999999995
   330   1      15.560000000000018      56.405000000000015      68.074999999999989
   331   1       17.50500000000001      54.460000000000015      68.074999999999989
   332   1       17.50500000000001      56.405000000000015      66.129999999999995
   333   1      15.560000000000018      54.460000000000015      70.019999999999996
   334   1      15.560000000000018      56.405000000000015      71.964999999999989
   335   1       17.50500000000001      54.460000000000015      71.964999999999989
   336   1       17.50500000000001      56.405000000000015      70.019999999999996
   337   1      15.560000000000018      54.460000000000015      73.909999999999997
   338   1      15.560000000000018      56.405000000000015       75.85499999999999
   339   1       17.50500000000001      54.460000000000015       75.85499999999999
   340   1       17.50500000000001      56.405000000000015      73.909999999999997
   341   1       17.50500000000001      56.405000000000015      77.799999999999997
   342   1      15.560000000000018      60.295000000000016      48.625000000000014
   343   1       17.50500000000001      58.350000000000016      48.625000000000014
   344   1       17.50500000000001      60.295000000000016      46.680000000000014
   345   1      15.560000000000018      58.350000000000016      50.570000000000014
   346   1      15.560000000000018      60.295000000000016      52.515000000000015
   347   1       17.50500000000001      58.350000000000016      52.515000000000015
   348   1       17.50500000000001      60.295000000000016      50.570000000000014
   349   1      15.560000000000018      58.350000000000016      54.460000000000015
   350   1      15.560000000000018      60.295000000000016      56.405000000000015
   351   1       17.50500000000001      58.350000000000016      56.405000000000015
   352   1       17.50500000000001      60.295000000000016      54.460000000000015
   353   1      15.560000000000018      58.350000000000016      58.350000000000016
   354   1      15.560000000000018      60.295000000000016      60.295000000000016
   355   1       17.50500000000001      58.350000000000016      60.295000000000016
   356   1       17.50500000000001      60.295000000000016      58.350000000000016
   357   1      15.560000000000018      58.350000000000016      62.240000000000002
   358   1      15.560000000000018      60.295000000000016      64.185000000000002