model_files/Au/Au_30000/Au_110/data.Au_110_fcc_31263 (written by ASE) 

31263 	 atoms 
1  atom types
0.0                     122  xlo xhi
0.0                     122  ylo yhi
0.0                     122  zlo zhi


Atoms 

     1   1                       0      59.160000000000004      59.160000000000004
     2   1      2.0399999999999991      57.120000000000012      59.160000000000004
     3   1      2.0399999999999991      59.160000000000004      57.120000000000012
     4   1                       0      59.160000000000004      63.240000000000016
     5   1      2.0399999999999991      57.120000000000012      63.240000000000016
     6   1      2.0399999999999991      59.160000000000004       61.20000000000001
     7   1      2.0399999999999991      59.160000000000004      65.280000000000001
     8   1                       0      63.240000000000016      59.160000000000004
     9   1      2.0399999999999991       61.20000000000001      59.160000000000004
    10   1      2.0399999999999991      63.240000000000016      57.120000000000012
    11   1                       0       61.20000000000001       61.20000000000001
    12   1                       0      63.240000000000016      63.240000000000016
    13   1      2.0399999999999991       61.20000000000001      63.240000000000016
    14   1      2.0399999999999991      63.240000000000016       61.20000000000001
    15   1      2.0399999999999991      63.240000000000016      65.280000000000001
    16   1      2.0399999999999991      65.280000000000001      59.160000000000004
    17   1      2.0399999999999991      65.280000000000001      63.240000000000016
    18   1      4.0799999999999983      55.080000000000013      55.080000000000013
    19   1      6.1200000000000045      53.040000000000006      55.080000000000013
    20   1      6.1200000000000045      55.080000000000013      53.040000000000006
    21   1      4.0799999999999983      55.080000000000013      59.160000000000004
    22   1      6.1200000000000045      53.040000000000006      59.160000000000004
    23   1      6.1200000000000045      55.080000000000013      57.120000000000012
    24   1      4.0799999999999983      55.080000000000013      63.240000000000016
    25   1      6.1200000000000045      53.040000000000006      63.240000000000016
    26   1      6.1200000000000045      55.080000000000013       61.20000000000001
    27   1      4.0799999999999983      55.080000000000013      67.320000000000007
    28   1      6.1200000000000045      53.040000000000006      67.320000000000007
    29   1      6.1200000000000045      55.080000000000013      65.280000000000001
    30   1      6.1200000000000045      55.080000000000013      69.359999999999999
    31   1      4.0799999999999983      59.160000000000004      55.080000000000013
    32   1      6.1200000000000045      57.120000000000012      55.080000000000013
    33   1      6.1200000000000045      59.160000000000004      53.040000000000006
    34   1      4.0799999999999983      57.120000000000012      57.120000000000012
    35   1      4.0799999999999983      59.160000000000004      59.160000000000004
    36   1      6.1200000000000045      57.120000000000012      59.160000000000004
    37   1      6.1200000000000045      59.160000000000004      57.120000000000012
    38   1      4.0799999999999983      57.120000000000012       61.20000000000001
    39   1      4.0799999999999983      59.160000000000004      63.240000000000016
    40   1      6.1200000000000045      57.120000000000012      63.240000000000016
    41   1      6.1200000000000045      59.160000000000004       61.20000000000001
    42   1      4.0799999999999983      57.120000000000012      65.280000000000001
    43   1      4.0799999999999983      59.160000000000004      67.320000000000007
    44   1      6.1200000000000045      57.120000000000012      67.320000000000007
    45   1      6.1200000000000045      59.160000000000004      65.280000000000001
    46   1      6.1200000000000045      59.160000000000004      69.359999999999999
    47   1      4.0799999999999983      63.240000000000016      55.080000000000013
    48   1      6.1200000000000045       61.20000000000001      55.080000000000013
    49   1      6.1200000000000045      63.240000000000016      53.040000000000006
    50   1      4.0799999999999983       61.20000000000001      57.120000000000012
    51   1      4.0799999999999983      63.240000000000016      59.160000000000004
    52   1      6.1200000000000045       61.20000000000001      59.160000000000004
    53   1      6.1200000000000045      63.240000000000016      57.120000000000012
    54   1      4.0799999999999983       61.20000000000001       61.20000000000001
    55   1      4.0799999999999983      63.240000000000016      63.240000000000016
    56   1      6.1200000000000045       61.20000000000001      63.240000000000016
    57   1      6.1200000000000045      63.240000000000016       61.20000000000001
    58   1      4.0799999999999983       61.20000000000001      65.280000000000001
    59   1      4.0799999999999983      63.240000000000016      67.320000000000007
    60   1      6.1200000000000045       61.20000000000001      67.320000000000007
    61   1      6.1200000000000045      63.240000000000016      65.280000000000001
    62   1      6.1200000000000045      63.240000000000016      69.359999999999999
    63   1      4.0799999999999983      67.320000000000007      55.080000000000013
    64   1      6.1200000000000045      65.280000000000001      55.080000000000013
    65   1      6.1200000000000045      67.320000000000007      53.040000000000006
    66   1      4.0799999999999983      65.280000000000001      57.120000000000012
    67   1      4.0799999999999983      67.320000000000007      59.160000000000004
    68   1      6.1200000000000045      65.280000000000001      59.160000000000004
    69   1      6.1200000000000045      67.320000000000007      57.120000000000012
    70   1      4.0799999999999983      65.280000000000001       61.20000000000001
    71   1      4.0799999999999983      67.320000000000007      63.240000000000016
    72   1      6.1200000000000045      65.280000000000001      63.240000000000016
    73   1      6.1200000000000045      67.320000000000007       61.20000000000001
    74   1      4.0799999999999983      65.280000000000001      65.280000000000001
    75   1      4.0799999999999983      67.320000000000007      67.320000000000007
    76   1      6.1200000000000045      65.280000000000001      67.320000000000007
    77   1      6.1200000000000045      67.320000000000007      65.280000000000001
    78   1      6.1200000000000045      67.320000000000007      69.359999999999999
    79   1      6.1200000000000045      69.359999999999999      55.080000000000013
    80   1      6.1200000000000045      69.359999999999999      59.160000000000004
    81   1      6.1200000000000045      69.359999999999999      63.240000000000016
    82   1      6.1200000000000045      69.359999999999999      67.320000000000007
    83   1      8.1600000000000055                      51                      51
    84   1      10.200000000000003      48.960000000000001                      51
    85   1      10.200000000000003                      51      48.960000000000001
    86   1      8.1600000000000055                      51      55.080000000000013
    87   1      10.200000000000003      48.960000000000001      55.080000000000013
    88   1      10.200000000000003                      51      53.040000000000006
    89   1      8.1600000000000055                      51      59.160000000000004
    90   1      10.200000000000003      48.960000000000001      59.160000000000004
    91   1      10.200000000000003                      51      57.120000000000012
    92   1      8.1600000000000055                      51      63.240000000000016
    93   1      10.200000000000003      48.960000000000001      63.240000000000016
    94   1      10.200000000000003                      51       61.20000000000001
    95   1      8.1600000000000055                      51      67.320000000000007
    96   1      10.200000000000003      48.960000000000001      67.320000000000007
    97   1      10.200000000000003                      51      65.280000000000001
    98   1      8.1600000000000055                      51      71.400000000000006
    99   1      10.200000000000003      48.960000000000001      71.400000000000006
   100   1      10.200000000000003                      51      69.359999999999999
   101   1      10.200000000000003                      51      73.439999999999998
   102   1      8.1600000000000055      55.080000000000013                      51
   103   1      10.200000000000003      53.040000000000006                      51
   104   1      10.200000000000003      55.080000000000013      48.960000000000001
   105   1      8.1600000000000055      53.040000000000006      53.040000000000006
   106   1      8.1600000000000055      55.080000000000013      55.080000000000013
   107   1      10.200000000000003      53.040000000000006      55.080000000000013
   108   1      10.200000000000003      55.080000000000013      53.040000000000006
   109   1      8.1600000000000055      53.040000000000006      57.120000000000012
   110   1      8.1600000000000055      55.080000000000013      59.160000000000004
   111   1      10.200000000000003      53.040000000000006      59.160000000000004
   112   1      10.200000000000003      55.080000000000013      57.120000000000012
   113   1      8.1600000000000055      53.040000000000006       61.20000000000001
   114   1      8.1600000000000055      55.080000000000013      63.240000000000016
   115   1      10.200000000000003      53.040000000000006      63.240000000000016
   116   1      10.200000000000003      55.080000000000013       61.20000000000001
   117   1      8.1600000000000055      53.040000000000006      65.280000000000001
   118   1      8.1600000000000055      55.080000000000013      67.320000000000007
   119   1      10.200000000000003      53.040000000000006      67.320000000000007
   120   1      10.200000000000003      55.080000000000013      65.280000000000001
   121   1      8.1600000000000055      53.040000000000006      69.359999999999999
   122   1      8.1600000000000055      55.080000000000013      71.400000000000006
   123   1      10.200000000000003      53.040000000000006      71.400000000000006
   124   1      10.200000000000003      55.080000000000013      69.359999999999999
   125   1      10.200000000000003      55.080000000000013      73.439999999999998
   126   1      8.1600000000000055      59.160000000000004                      51
   127   1      10.200000000000003      57.120000000000012                      51
   128   1      10.200000000000003      59.160000000000004      48.960000000000001
   129   1      8.1600000000000055      57.120000000000012      53.040000000000006
   130   1      8.1600000000000055      59.160000000000004      55.080000000000013
   131   1      10.200000000000003      57.120000000000012      55.080000000000013
   132   1      10.200000000000003      59.160000000000004      53.040000000000006
   133   1      8.1600000000000055      57.120000000000012      57.120000000000012
   134   1      8.1600000000000055      59.160000000000004      59.160000000000004
   135   1      10.200000000000003      57.120000000000012      59.160000000000004
   136   1      10.200000000000003      59.160000000000004      57.120000000000012
   137   1      8.1600000000000055      57.120000000000012       61.20000000000001
   138   1      8.1600000000000055      59.160000000000004      63.240000000000016
   139   1      10.200000000000003      57.120000000000012      63.240000000000016
   140   1      10.200000000000003      59.160000000000004       61.20000000000001
   141   1      8.1600000000000055      57.120000000000012      65.280000000000001
   142   1      8.1600000000000055      59.160000000000004      67.320000000000007
   143   1      10.200000000000003      57.120000000000012      67.320000000000007
   144   1      10.200000000000003      59.160000000000004      65.280000000000001
   145   1      8.1600000000000055      57.120000000000012      69.359999999999999
   146   1      8.1600000000000055      59.160000000000004      71.400000000000006
   147   1      10.200000000000003      57.120000000000012      71.400000000000006
   148   1      10.200000000000003      59.160000000000004      69.359999999999999
   149   1      10.200000000000003      59.160000000000004      73.439999999999998
   150   1      8.1600000000000055      63.240000000000016                      51
   151   1      10.200000000000003       61.20000000000001                      51
   152   1      10.200000000000003      63.240000000000016      48.960000000000001
   153   1      8.1600000000000055       61.20000000000001      53.040000000000006
   154   1      8.1600000000000055      63.240000000000016      55.080000000000013
   155   1      10.200000000000003       61.20000000000001      55.080000000000013
   156   1      10.200000000000003      63.240000000000016      53.040000000000006
   157   1      8.1600000000000055       61.20000000000001      57.120000000000012
   158   1      8.1600000000000055      63.240000000000016      59.160000000000004
   159   1      10.200000000000003       61.20000000000001      59.160000000000004
   160   1      10.200000000000003      63.240000000000016      57.120000000000012
   161   1      8.1600000000000055       61.20000000000001       61.20000000000001
   162   1      8.1600000000000055      63.240000000000016      63.240000000000016
   163   1      10.200000000000003       61.20000000000001      63.240000000000016
   164   1      10.200000000000003      63.240000000000016       61.20000000000001
   165   1      8.1600000000000055       61.20000000000001      65.280000000000001
   166   1      8.1600000000000055      63.240000000000016      67.320000000000007
   167   1      10.200000000000003       61.20000000000001      67.320000000000007
   168   1      10.200000000000003      63.240000000000016      65.280000000000001
   169   1      8.1600000000000055       61.20000000000001      69.359999999999999
   170   1      8.1600000000000055      63.240000000000016      71.400000000000006
   171   1      10.200000000000003       61.20000000000001      71.400000000000006
   172   1      10.200000000000003      63.240000000000016      69.359999999999999
   173   1      10.200000000000003      63.240000000000016      73.439999999999998
   174   1      8.1600000000000055      67.320000000000007                      51
   175   1      10.200000000000003      65.280000000000001                      51
   176   1      10.200000000000003      67.320000000000007      48.960000000000001
   177   1      8.1600000000000055      65.280000000000001      53.040000000000006
   178   1      8.1600000000000055      67.320000000000007      55.080000000000013
   179   1      10.200000000000003      65.280000000000001      55.080000000000013
   180   1      10.200000000000003      67.320000000000007      53.040000000000006
   181   1      8.1600000000000055      65.280000000000001      57.120000000000012
   182   1      8.1600000000000055      67.320000000000007      59.160000000000004
   183   1      10.200000000000003      65.280000000000001      59.160000000000004
   184   1      10.200000000000003      67.320000000000007      57.120000000000012
   185   1      8.1600000000000055      65.280000000000001       61.20000000000001
   186   1      8.1600000000000055      67.320000000000007      63.240000000000016
   187   1      10.200000000000003      65.280000000000001      63.240000000000016
   188   1      10.200000000000003      67.320000000000007       61.20000000000001
   189   1      8.1600000000000055      65.280000000000001      65.280000000000001
   190   1      8.1600000000000055      67.320000000000007      67.320000000000007
   191   1      10.200000000000003      65.280000000000001      67.320000000000007
   192   1      10.200000000000003      67.320000000000007      65.280000000000001
   193   1      8.1600000000000055      65.280000000000001      69.359999999999999
   194   1      8.1600000000000055      67.320000000000007      71.400000000000006
   195   1      10.200000000000003      65.280000000000001      71.400000000000006
   196   1      10.200000000000003      67.320000000000007      69.359999999999999
   197   1      10.200000000000003      67.320000000000007      73.439999999999998
   198   1      8.1600000000000055      71.400000000000006                      51
   199   1      10.200000000000003      69.359999999999999                      51
   200   1      10.200000000000003      71.400000000000006      48.960000000000001
   201   1      8.1600000000000055      69.359999999999999      53.040000000000006
   202   1      8.1600000000000055      71.400000000000006      55.080000000000013
   203   1      10.200000000000003      69.359999999999999      55.080000000000013
   204   1      10.200000000000003      71.400000000000006      53.040000000000006
   205   1      8.1600000000000055      69.359999999999999      57.120000000000012
   206   1      8.1600000000000055      71.400000000000006      59.160000000000004
   207   1      10.200000000000003      69.359999999999999      59.160000000000004
   208   1      10.200000000000003      71.400000000000006      57.120000000000012
   209   1      8.1600000000000055      69.359999999999999       61.20000000000001
   210   1      8.1600000000000055      71.400000000000006      63.240000000000016
   211   1      10.200000000000003      69.359999999999999      63.240000000000016
   212   1      10.200000000000003      71.400000000000006       61.20000000000001
   213   1      8.1600000000000055      69.359999999999999      65.280000000000001
   214   1      8.1600000000000055      71.400000000000006      67.320000000000007
   215   1      10.200000000000003      69.359999999999999      67.320000000000007
   216   1      10.200000000000003      71.400000000000006      65.280000000000001
   217   1      8.1600000000000055      69.359999999999999      69.359999999999999
   218   1      8.1600000000000055      71.400000000000006      71.400000000000006
   219   1      10.200000000000003      69.359999999999999      71.400000000000006
   220   1      10.200000000000003      71.400000000000006      69.359999999999999
   221   1      10.200000000000003      71.400000000000006      73.439999999999998
   222   1      10.200000000000003      73.439999999999998                      51
   223   1      10.200000000000003      73.439999999999998      55.080000000000013
   224   1      10.200000000000003      73.439999999999998      59.160000000000004
   225   1      10.200000000000003      73.439999999999998      63.240000000000016
   226   1      10.200000000000003      73.439999999999998      67.320000000000007
   227   1      10.200000000000003      73.439999999999998      71.400000000000006
   228   1      12.240000000000002      46.920000000000002      46.920000000000002
   229   1      14.280000000000003       44.88000000000001      46.920000000000002
   230   1      14.280000000000003      46.920000000000002       44.88000000000001
   231   1      12.240000000000002      46.920000000000002                      51
   232   1      14.280000000000003       44.88000000000001                      51
   233   1      14.280000000000003      46.920000000000002      48.960000000000001
   234   1      12.240000000000002      46.920000000000002      55.080000000000013
   235   1      14.280000000000003       44.88000000000001      55.080000000000013
   236   1      14.280000000000003      46.920000000000002      53.040000000000006
   237   1      12.240000000000002      46.920000000000002      59.160000000000004
   238   1      14.280000000000003       44.88000000000001      59.160000000000004
   239   1      14.280000000000003      46.920000000000002      57.120000000000012
   240   1      12.240000000000002      46.920000000000002      63.240000000000016
   241   1      14.280000000000003       44.88000000000001      63.240000000000016
   242   1      14.280000000000003      46.920000000000002       61.20000000000001
   243   1      12.240000000000002      46.920000000000002      67.320000000000007
   244   1      14.280000000000003       44.88000000000001      67.320000000000007
   245   1      14.280000000000003      46.920000000000002      65.280000000000001
   246   1      12.240000000000002      46.920000000000002      71.400000000000006
   247   1      14.280000000000003       44.88000000000001      71.400000000000006
   248   1      14.280000000000003      46.920000000000002      69.359999999999999
   249   1      12.240000000000002      46.920000000000002      75.480000000000004
   250   1      14.280000000000003       44.88000000000001      75.480000000000004
   251   1      14.280000000000003      46.920000000000002      73.439999999999998
   252   1      14.280000000000003      46.920000000000002      77.519999999999996
   253   1      12.240000000000002                      51      46.920000000000002
   254   1      14.280000000000003      48.960000000000001      46.920000000000002
   255   1      14.280000000000003                      51       44.88000000000001
   256   1      12.240000000000002      48.960000000000001      48.960000000000001
   257   1      12.240000000000002                      51                      51
   258   1      14.280000000000003      48.960000000000001                      51
   259   1      14.280000000000003                      51      48.960000000000001
   260   1      12.240000000000002      48.960000000000001      53.040000000000006
   261   1      12.240000000000002                      51      55.080000000000013
   262   1      14.280000000000003      48.960000000000001      55.080000000000013
   263   1      14.280000000000003                      51      53.040000000000006
   264   1      12.240000000000002      48.960000000000001      57.120000000000012
   265   1      12.240000000000002                      51      59.160000000000004
   266   1      14.280000000000003      48.960000000000001      59.160000000000004
   267   1      14.280000000000003                      51      57.120000000000012
   268   1      12.240000000000002      48.960000000000001       61.20000000000001
   269   1      12.240000000000002                      51      63.240000000000016
   270   1      14.280000000000003      48.960000000000001      63.240000000000016
   271   1      14.280000000000003                      51       61.20000000000001
   272   1      12.240000000000002      48.960000000000001      65.280000000000001
   273   1      12.240000000000002                      51      67.320000000000007
   274   1      14.280000000000003      48.960000000000001      67.320000000000007
   275   1      14.280000000000003                      51      65.280000000000001
   276   1      12.240000000000002      48.960000000000001      69.359999999999999
   277   1      12.240000000000002                      51      71.400000000000006
   278   1      14.280000000000003      48.960000000000001      71.400000000000006
   279   1      14.280000000000003                      51      69.359999999999999
   280   1      12.240000000000002      48.960000000000001      73.439999999999998
   281   1      12.240000000000002                      51      75.480000000000004
   282   1      14.280000000000003      48.960000000000001      75.480000000000004
   283   1      14.280000000000003                      51      73.439999999999998
   284   1      14.280000000000003                      51      77.519999999999996
   285   1      12.240000000000002      55.080000000000013      46.920000000000002
   286   1      14.280000000000003      53.040000000000006      46.920000000000002
   287   1      14.280000000000003      55.080000000000013       44.88000000000001
   288   1      12.240000000000002      53.040000000000006      48.960000000000001
   289   1      12.240000000000002      55.080000000000013                      51
   290   1      14.280000000000003      53.040000000000006                      51
   291   1      14.280000000000003      55.080000000000013      48.960000000000001
   292   1      12.240000000000002      53.040000000000006      53.040000000000006
   293   1      12.240000000000002      55.080000000000013      55.080000000000013
   294   1      14.280000000000003      53.040000000000006      55.080000000000013
   295   1      14.280000000000003      55.080000000000013      53.040000000000006
   296   1      12.240000000000002      53.040000000000006      57.120000000000012
   297   1      12.240000000000002      55.080000000000013      59.160000000000004
   298   1      14.280000000000003      53.040000000000006      59.160000000000004
   299   1      14.280000000000003      55.080000000000013      57.120000000000012
   300   1      12.240000000000002      53.040000000000006       61.20000000000001
   301   1      12.240000000000002      55.080000000000013      63.240000000000016
   302   1      14.280000000000003      53.040000000000006      63.240000000000016
   303   1      14.280000000000003      55.080000000000013       61.20000000000001
   304   1      12.240000000000002      53.040000000000006      65.280000000000001
   305   1      12.240000000000002      55.080000000000013      67.320000000000007
   306   1      14.280000000000003      53.040000000000006      67.320000000000007
   307   1      14.280000000000003      55.080000000000013      65.280000000000001
   308   1      12.240000000000002      53.040000000000006      69.359999999999999
   309   1      12.240000000000002      55.080000000000013      71.400000000000006
   310   1      14.280000000000003      53.040000000000006      71.400000000000006
   311   1      14.280000000000003      55.080000000000013      69.359999999999999
   312   1      12.240000000000002      53.040000000000006      73.439999999999998
   313   1      12.240000000000002      55.080000000000013      75.480000000000004
   314   1      14.280000000000003      53.040000000000006      75.480000000000004
   315   1      14.280000000000003      55.080000000000013      73.439999999999998
   316   1      14.280000000000003      55.080000000000013      77.519999999999996
   317   1      12.240000000000002      59.160000000000004      46.920000000000002
   318   1      14.280000000000003      57.120000000000012      46.920000000000002
   319   1      14.280000000000003      59.160000000000004       44.88000000000001
   320   1      12.240000000000002      57.120000000000012      48.960000000000001
   321   1      12.240000000000002      59.160000000000004                      51
   322   1      14.280000000000003      57.120000000000012                      51
   323   1      14.280000000000003      59.160000000000004      48.960000000000001
   324   1      12.240000000000002      57.120000000000012      53.040000000000006
   325   1      12.240000000000002      59.160000000000004      55.080000000000013
   326   1      14.280000000000003      57.120000000000012      55.080000000000013
   327   1      14.280000000000003      59.160000000000004      53.040000000000006
   328   1      12.240000000000002      57.120000000000012      57.120000000000012
   329   1      12.240000000000002      59.160000000000004      59.160000000000004
   330   1      14.280000000000003      57.120000000000012      59.160000000000004
   331   1      14.280000000000003      59.160000000000004      57.120000000000012
   332   1      12.240000000000002      57.120000000000012       61.20000000000001
   333   1      12.240000000000002      59.160000000000004      63.240000000000016
   334   1      14.280000000000003      57.120000000000012      63.240000000000016
   335   1      14.280000000000003      59.160000000000004       61.20000000000001
   336   1      12.240000000000002      57.120000000000012      65.280000000000001
   337   1      12.240000000000002      59.160000000000004      67.320000000000007
   338   1      14.280000000000003      57.120000000000012      67.320000000000007
   339   1      14.280000000000003      59.160000000000004      65.280000000000001
   340   1      12.240000000000002      57.120000000000012      69.359999999999999
   341   1      12.240000000000002      59.160000000000004      71.400000000000006
   342   1      14.280000000000003      57.120000000000012      71.400000000000006
   343   1      14.280000000000003      59.160000000000004      69.359999999999999
   344   1      12.240000000000002      57.120000000000012      73.439999999999998
   345   1      12.240000000000002      59.160000000000004      75.480000000000004
   346   1      14.280000000000003      57.120000000000012      75.480000000000004
   347   1      14.280000000000003      59.160000000000004      73.439999999999998
   348   1      14.280000000000003      59.160000000000004      77.519999999999996
   349   1      12.240000000000002      63.240000000000016      46.920000000000002
   350   1      14.280000000000003       61.20000000000001      46.920000000000002
   351   1      14.280000000000003      63.240000000000016       44.88000000000001
   352   1      12.240000000000002       61.20000000000001      48.960000000000001
   353   1      12.240000000000002      63.240000000000016                      51
   354   1      14.280000000000003       61.20000000000001                      51
   355   1      14.280000000000003      63.240000000000016      48.960000000000001
   356   1      12.240000000000002       61.20000000000001      53.040000000000006
   357   1      12.240000000000002      63.240000000000016      55.080000000000013
   358   1      14.280000000000003       61.20000000000001      55.080000000000013