model_files/NiFeCrCoAl/NiFeCrCoAl_30000/NiFeCrCoAl_331/NiFeCrCoAl_331_fcc_30729_temp.data (written by ASE) 

30729 	 atoms 
5  atom types
0.0                     117  xlo xhi
0.0                     117  ylo yhi
0.0                     117  zlo zhi


Atoms 

     1   1      1.8049999999999999      55.955000000000005      57.760000000000005
     2   1      1.8049999999999999      57.760000000000005      55.955000000000005
     3   1                       0      57.760000000000005      57.760000000000005
     4   1      1.8049999999999999      57.760000000000005      59.565000000000005
     5   1      1.8049999999999999      59.565000000000005      57.760000000000005
     6   1                   5.415      52.344999999999999      54.150000000000006
     7   1                   5.415      52.344999999999999      57.760000000000005
     8   1                   5.415      52.344999999999999      61.370000000000005
     9   1                   5.415      54.150000000000006      52.344999999999999
    10   1      3.6099999999999999      54.150000000000006      54.150000000000006
    11   1      3.6099999999999999      55.955000000000005      55.955000000000005
    12   1                   5.415      54.150000000000006      55.955000000000005
    13   1                   5.415      55.955000000000005      54.150000000000006
    14   1      3.6099999999999999      54.150000000000006      57.760000000000005
    15   1      3.6099999999999999      55.955000000000005      59.565000000000005
    16   1                   5.415      54.150000000000006      59.565000000000005
    17   1                   5.415      55.955000000000005      57.760000000000005
    18   1      3.6099999999999999      54.150000000000006      61.370000000000005
    19   1                   5.415      54.150000000000006      63.175000000000026
    20   1                   5.415      55.955000000000005      61.370000000000005
    21   1                   5.415      57.760000000000005      52.344999999999999
    22   1      3.6099999999999999      57.760000000000005      54.150000000000006
    23   1      3.6099999999999999      59.565000000000005      55.955000000000005
    24   1                   5.415      57.760000000000005      55.955000000000005
    25   1                   5.415      59.565000000000005      54.150000000000006
    26   1      3.6099999999999999      57.760000000000005      57.760000000000005
    27   1      3.6099999999999999      59.565000000000005      59.565000000000005
    28   1                   5.415      57.760000000000005      59.565000000000005
    29   1                   5.415      59.565000000000005      57.760000000000005
    30   1      3.6099999999999999      57.760000000000005      61.370000000000005
    31   1                   5.415      57.760000000000005      63.175000000000026
    32   1                   5.415      59.565000000000005      61.370000000000005
    33   1                   5.415      61.370000000000005      52.344999999999999
    34   1      3.6099999999999999      61.370000000000005      54.150000000000006
    35   1                   5.415      61.370000000000005      55.955000000000005
    36   1                   5.415      63.175000000000026      54.150000000000006
    37   1      3.6099999999999999      61.370000000000005      57.760000000000005
    38   1                   5.415      61.370000000000005      59.565000000000005
    39   1                   5.415      63.175000000000026      57.760000000000005
    40   1      3.6099999999999999      61.370000000000005      61.370000000000005
    41   1                   5.415      61.370000000000005      63.175000000000026
    42   1                   5.415      63.175000000000026      61.370000000000005
    43   1      9.0249999999999986      48.735000000000007      54.150000000000006
    44   1      9.0249999999999986      48.735000000000007      57.760000000000005
    45   1      9.0249999999999986      48.735000000000007      61.370000000000005
    46   1      7.2199999999999998      52.344999999999999      52.344999999999999
    47   1      9.0249999999999986      50.540000000000006      52.344999999999999
    48   1      9.0249999999999986      52.344999999999999      50.540000000000006
    49   1      7.2199999999999998      50.540000000000006      54.150000000000006
    50   1      7.2199999999999998      52.344999999999999      55.955000000000005
    51   1      9.0249999999999986      50.540000000000006      55.955000000000005
    52   1      9.0249999999999986      52.344999999999999      54.150000000000006
    53   1      7.2199999999999998      50.540000000000006      57.760000000000005
    54   1      7.2199999999999998      52.344999999999999      59.565000000000005
    55   1      9.0249999999999986      50.540000000000006      59.565000000000005
    56   1      9.0249999999999986      52.344999999999999      57.760000000000005
    57   1      7.2199999999999998      50.540000000000006      61.370000000000005
    58   1      7.2199999999999998      52.344999999999999      63.175000000000026
    59   1      9.0249999999999986      50.540000000000006      63.175000000000026
    60   1      9.0249999999999986      52.344999999999999      61.370000000000005
    61   1      9.0249999999999986      52.344999999999999      64.980000000000004
    62   1      9.0249999999999986      54.150000000000006      48.735000000000007
    63   1      7.2199999999999998      54.150000000000006      50.540000000000006
    64   1      7.2199999999999998      55.955000000000005      52.344999999999999
    65   1      9.0249999999999986      54.150000000000006      52.344999999999999
    66   1      9.0249999999999986      55.955000000000005      50.540000000000006
    67   1      7.2199999999999998      54.150000000000006      54.150000000000006
    68   1      7.2199999999999998      55.955000000000005      55.955000000000005
    69   1      9.0249999999999986      54.150000000000006      55.955000000000005
    70   1      9.0249999999999986      55.955000000000005      54.150000000000006
    71   1      7.2199999999999998      54.150000000000006      57.760000000000005
    72   1      7.2199999999999998      55.955000000000005      59.565000000000005
    73   1      9.0249999999999986      54.150000000000006      59.565000000000005
    74   1      9.0249999999999986      55.955000000000005      57.760000000000005
    75   1      7.2199999999999998      54.150000000000006      61.370000000000005
    76   1      7.2199999999999998      55.955000000000005      63.175000000000026
    77   1      9.0249999999999986      54.150000000000006      63.175000000000026
    78   1      9.0249999999999986      55.955000000000005      61.370000000000005
    79   1      7.2199999999999998      54.150000000000006      64.980000000000004
    80   1      9.0249999999999986      54.150000000000006      66.785000000000011
    81   1      9.0249999999999986      55.955000000000005      64.980000000000004
    82   1      9.0249999999999986      57.760000000000005      48.735000000000007
    83   1      7.2199999999999998      57.760000000000005      50.540000000000006
    84   1      7.2199999999999998      59.565000000000005      52.344999999999999
    85   1      9.0249999999999986      57.760000000000005      52.344999999999999
    86   1      9.0249999999999986      59.565000000000005      50.540000000000006
    87   1      7.2199999999999998      57.760000000000005      54.150000000000006
    88   1      7.2199999999999998      59.565000000000005      55.955000000000005
    89   1      9.0249999999999986      57.760000000000005      55.955000000000005
    90   1      9.0249999999999986      59.565000000000005      54.150000000000006
    91   1      7.2199999999999998      57.760000000000005      57.760000000000005
    92   1      7.2199999999999998      59.565000000000005      59.565000000000005
    93   1      9.0249999999999986      57.760000000000005      59.565000000000005
    94   1      9.0249999999999986      59.565000000000005      57.760000000000005
    95   1      7.2199999999999998      57.760000000000005      61.370000000000005
    96   1      7.2199999999999998      59.565000000000005      63.175000000000026
    97   1      9.0249999999999986      57.760000000000005      63.175000000000026
    98   1      9.0249999999999986      59.565000000000005      61.370000000000005
    99   1      7.2199999999999998      57.760000000000005      64.980000000000004
   100   1      9.0249999999999986      57.760000000000005      66.785000000000011
   101   1      9.0249999999999986      59.565000000000005      64.980000000000004
   102   1      9.0249999999999986      61.370000000000005      48.735000000000007
   103   1      7.2199999999999998      61.370000000000005      50.540000000000006
   104   1      7.2199999999999998      63.175000000000026      52.344999999999999
   105   1      9.0249999999999986      61.370000000000005      52.344999999999999
   106   1      9.0249999999999986      63.175000000000026      50.540000000000006
   107   1      7.2199999999999998      61.370000000000005      54.150000000000006
   108   1      7.2199999999999998      63.175000000000026      55.955000000000005
   109   1      9.0249999999999986      61.370000000000005      55.955000000000005
   110   1      9.0249999999999986      63.175000000000026      54.150000000000006
   111   1      7.2199999999999998      61.370000000000005      57.760000000000005
   112   1      7.2199999999999998      63.175000000000026      59.565000000000005
   113   1      9.0249999999999986      61.370000000000005      59.565000000000005
   114   1      9.0249999999999986      63.175000000000026      57.760000000000005
   115   1      7.2199999999999998      61.370000000000005      61.370000000000005
   116   1      7.2199999999999998      63.175000000000026      63.175000000000026
   117   1      9.0249999999999986      61.370000000000005      63.175000000000026
   118   1      9.0249999999999986      63.175000000000026      61.370000000000005
   119   1      7.2199999999999998      61.370000000000005      64.980000000000004
   120   1      9.0249999999999986      61.370000000000005      66.785000000000011
   121   1      9.0249999999999986      63.175000000000026      64.980000000000004
   122   1      9.0249999999999986      64.980000000000004      52.344999999999999
   123   1      7.2199999999999998      64.980000000000004      54.150000000000006
   124   1      9.0249999999999986      64.980000000000004      55.955000000000005
   125   1      9.0249999999999986      66.785000000000011      54.150000000000006
   126   1      7.2199999999999998      64.980000000000004      57.760000000000005
   127   1      9.0249999999999986      64.980000000000004      59.565000000000005
   128   1      9.0249999999999986      66.785000000000011      57.760000000000005
   129   1      7.2199999999999998      64.980000000000004      61.370000000000005
   130   1      9.0249999999999986      64.980000000000004      63.175000000000026
   131   1      9.0249999999999986      66.785000000000011      61.370000000000005
   132   1                  12.635                  45.125      54.150000000000006
   133   1                  12.635                  45.125      57.760000000000005
   134   1                  12.635                  45.125      61.370000000000005
   135   1                   10.83      48.735000000000007      48.735000000000007
   136   1                  12.635      46.930000000000007      48.735000000000007
   137   1                  12.635      48.735000000000007      46.930000000000007
   138   1                   10.83      48.735000000000007      52.344999999999999
   139   1                  12.635      46.930000000000007      52.344999999999999
   140   1                  12.635      48.735000000000007      50.540000000000006
   141   1                   10.83      46.930000000000007      54.150000000000006
   142   1                   10.83      48.735000000000007      55.955000000000005
   143   1                  12.635      46.930000000000007      55.955000000000005
   144   1                  12.635      48.735000000000007      54.150000000000006
   145   1                   10.83      46.930000000000007      57.760000000000005
   146   1                   10.83      48.735000000000007      59.565000000000005
   147   1                  12.635      46.930000000000007      59.565000000000005
   148   1                  12.635      48.735000000000007      57.760000000000005
   149   1                   10.83      46.930000000000007      61.370000000000005
   150   1                   10.83      48.735000000000007      63.175000000000026
   151   1                  12.635      46.930000000000007      63.175000000000026
   152   1                  12.635      48.735000000000007      61.370000000000005
   153   1                   10.83      48.735000000000007      66.785000000000011
   154   1                  12.635      46.930000000000007      66.785000000000011
   155   1                  12.635      48.735000000000007      64.980000000000004
   156   1                  12.635      48.735000000000007      68.590000000000018
   157   1                   10.83      52.344999999999999      48.735000000000007
   158   1                  12.635      50.540000000000006      48.735000000000007
   159   1                  12.635      52.344999999999999      46.930000000000007
   160   1                   10.83      50.540000000000006      50.540000000000006
   161   1                   10.83      52.344999999999999      52.344999999999999
   162   1                  12.635      50.540000000000006      52.344999999999999
   163   1                  12.635      52.344999999999999      50.540000000000006
   164   1                   10.83      50.540000000000006      54.150000000000006
   165   1                   10.83      52.344999999999999      55.955000000000005
   166   1                  12.635      50.540000000000006      55.955000000000005
   167   1                  12.635      52.344999999999999      54.150000000000006
   168   1                   10.83      50.540000000000006      57.760000000000005
   169   1                   10.83      52.344999999999999      59.565000000000005
   170   1                  12.635      50.540000000000006      59.565000000000005
   171   1                  12.635      52.344999999999999      57.760000000000005
   172   1                   10.83      50.540000000000006      61.370000000000005
   173   1                   10.83      52.344999999999999      63.175000000000026
   174   1                  12.635      50.540000000000006      63.175000000000026
   175   1                  12.635      52.344999999999999      61.370000000000005
   176   1                   10.83      50.540000000000006      64.980000000000004
   177   1                   10.83      52.344999999999999      66.785000000000011
   178   1                  12.635      50.540000000000006      66.785000000000011
   179   1                  12.635      52.344999999999999      64.980000000000004
   180   1                  12.635      52.344999999999999      68.590000000000018
   181   1                  12.635      54.150000000000006                  45.125
   182   1                   10.83      54.150000000000006      46.930000000000007
   183   1                   10.83      55.955000000000005      48.735000000000007
   184   1                  12.635      54.150000000000006      48.735000000000007
   185   1                  12.635      55.955000000000005      46.930000000000007
   186   1                   10.83      54.150000000000006      50.540000000000006
   187   1                   10.83      55.955000000000005      52.344999999999999
   188   1                  12.635      54.150000000000006      52.344999999999999
   189   1                  12.635      55.955000000000005      50.540000000000006
   190   1                   10.83      54.150000000000006      54.150000000000006
   191   1                   10.83      55.955000000000005      55.955000000000005
   192   1                  12.635      54.150000000000006      55.955000000000005
   193   1                  12.635      55.955000000000005      54.150000000000006
   194   1                   10.83      54.150000000000006      57.760000000000005
   195   1                   10.83      55.955000000000005      59.565000000000005
   196   1                  12.635      54.150000000000006      59.565000000000005
   197   1                  12.635      55.955000000000005      57.760000000000005
   198   1                   10.83      54.150000000000006      61.370000000000005
   199   1                   10.83      55.955000000000005      63.175000000000026
   200   1                  12.635      54.150000000000006      63.175000000000026
   201   1                  12.635      55.955000000000005      61.370000000000005
   202   1                   10.83      54.150000000000006      64.980000000000004
   203   1                   10.83      55.955000000000005      66.785000000000011
   204   1                  12.635      54.150000000000006      66.785000000000011
   205   1                  12.635      55.955000000000005      64.980000000000004
   206   1                   10.83      54.150000000000006      68.590000000000018
   207   1                  12.635      54.150000000000006       70.39500000000001
   208   1                  12.635      55.955000000000005      68.590000000000018
   209   1                  12.635      57.760000000000005                  45.125
   210   1                   10.83      57.760000000000005      46.930000000000007
   211   1                   10.83      59.565000000000005      48.735000000000007
   212   1                  12.635      57.760000000000005      48.735000000000007
   213   1                  12.635      59.565000000000005      46.930000000000007
   214   1                   10.83      57.760000000000005      50.540000000000006
   215   1                   10.83      59.565000000000005      52.344999999999999
   216   1                  12.635      57.760000000000005      52.344999999999999
   217   1                  12.635      59.565000000000005      50.540000000000006
   218   1                   10.83      57.760000000000005      54.150000000000006
   219   1                   10.83      59.565000000000005      55.955000000000005
   220   1                  12.635      57.760000000000005      55.955000000000005
   221   1                  12.635      59.565000000000005      54.150000000000006
   222   1                   10.83      57.760000000000005      57.760000000000005
   223   1                   10.83      59.565000000000005      59.565000000000005
   224   1                  12.635      57.760000000000005      59.565000000000005
   225   1                  12.635      59.565000000000005      57.760000000000005
   226   1                   10.83      57.760000000000005      61.370000000000005
   227   1                   10.83      59.565000000000005      63.175000000000026
   228   1                  12.635      57.760000000000005      63.175000000000026
   229   1                  12.635      59.565000000000005      61.370000000000005
   230   1                   10.83      57.760000000000005      64.980000000000004
   231   1                   10.83      59.565000000000005      66.785000000000011
   232   1                  12.635      57.760000000000005      66.785000000000011
   233   1                  12.635      59.565000000000005      64.980000000000004
   234   1                   10.83      57.760000000000005      68.590000000000018
   235   1                  12.635      57.760000000000005       70.39500000000001
   236   1                  12.635      59.565000000000005      68.590000000000018
   237   1                  12.635      61.370000000000005                  45.125
   238   1                   10.83      61.370000000000005      46.930000000000007
   239   1                   10.83      63.175000000000026      48.735000000000007
   240   1                  12.635      61.370000000000005      48.735000000000007
   241   1                  12.635      63.175000000000026      46.930000000000007
   242   1                   10.83      61.370000000000005      50.540000000000006
   243   1                   10.83      63.175000000000026      52.344999999999999
   244   1                  12.635      61.370000000000005      52.344999999999999
   245   1                  12.635      63.175000000000026      50.540000000000006
   246   1                   10.83      61.370000000000005      54.150000000000006
   247   1                   10.83      63.175000000000026      55.955000000000005
   248   1                  12.635      61.370000000000005      55.955000000000005
   249   1                  12.635      63.175000000000026      54.150000000000006
   250   1                   10.83      61.370000000000005      57.760000000000005
   251   1                   10.83      63.175000000000026      59.565000000000005
   252   1                  12.635      61.370000000000005      59.565000000000005
   253   1                  12.635      63.175000000000026      57.760000000000005
   254   1                   10.83      61.370000000000005      61.370000000000005
   255   1                   10.83      63.175000000000026      63.175000000000026
   256   1                  12.635      61.370000000000005      63.175000000000026
   257   1                  12.635      63.175000000000026      61.370000000000005
   258   1                   10.83      61.370000000000005      64.980000000000004
   259   1                   10.83      63.175000000000026      66.785000000000011
   260   1                  12.635      61.370000000000005      66.785000000000011
   261   1                  12.635      63.175000000000026      64.980000000000004
   262   1                   10.83      61.370000000000005      68.590000000000018
   263   1                  12.635      61.370000000000005       70.39500000000001
   264   1                  12.635      63.175000000000026      68.590000000000018
   265   1                   10.83      66.785000000000011      48.735000000000007
   266   1                  12.635      64.980000000000004      48.735000000000007
   267   1                  12.635      66.785000000000011      46.930000000000007
   268   1                   10.83      64.980000000000004      50.540000000000006
   269   1                   10.83      66.785000000000011      52.344999999999999
   270   1                  12.635      64.980000000000004      52.344999999999999
   271   1                  12.635      66.785000000000011      50.540000000000006
   272   1                   10.83      64.980000000000004      54.150000000000006
   273   1                   10.83      66.785000000000011      55.955000000000005
   274   1                  12.635      64.980000000000004      55.955000000000005
   275   1                  12.635      66.785000000000011      54.150000000000006
   276   1                   10.83      64.980000000000004      57.760000000000005
   277   1                   10.83      66.785000000000011      59.565000000000005
   278   1                  12.635      64.980000000000004      59.565000000000005
   279   1                  12.635      66.785000000000011      57.760000000000005
   280   1                   10.83      64.980000000000004      61.370000000000005
   281   1                   10.83      66.785000000000011      63.175000000000026
   282   1                  12.635      64.980000000000004      63.175000000000026
   283   1                  12.635      66.785000000000011      61.370000000000005
   284   1                   10.83      64.980000000000004      64.980000000000004
   285   1                   10.83      66.785000000000011      66.785000000000011
   286   1                  12.635      64.980000000000004      66.785000000000011
   287   1                  12.635      66.785000000000011      64.980000000000004
   288   1                  12.635      66.785000000000011      68.590000000000018
   289   1                  12.635      68.590000000000018      48.735000000000007
   290   1                  12.635      68.590000000000018      52.344999999999999
   291   1                   10.83      68.590000000000018      54.150000000000006
   292   1                  12.635      68.590000000000018      55.955000000000005
   293   1                  12.635       70.39500000000001      54.150000000000006
   294   1                   10.83      68.590000000000018      57.760000000000005
   295   1                  12.635      68.590000000000018      59.565000000000005
   296   1                  12.635       70.39500000000001      57.760000000000005
   297   1                   10.83      68.590000000000018      61.370000000000005
   298   1                  12.635      68.590000000000018      63.175000000000026
   299   1                  12.635       70.39500000000001      61.370000000000005
   300   1                  12.635      68.590000000000018      66.785000000000011
   301   1      16.245000000000001      41.515000000000008      54.150000000000006
   302   1      16.245000000000001      41.515000000000008      57.760000000000005
   303   1      16.245000000000001      41.515000000000008      61.370000000000005
   304   1      14.440000000000007                  45.125      48.735000000000007
   305   1      16.245000000000001      43.320000000000007      48.735000000000007
   306   1      16.245000000000001                  45.125      46.930000000000007
   307   1      14.440000000000007                  45.125      52.344999999999999
   308   1      16.245000000000001      43.320000000000007      52.344999999999999
   309   1      16.245000000000001                  45.125      50.540000000000006
   310   1      14.440000000000007      43.320000000000007      54.150000000000006
   311   1      14.440000000000007                  45.125      55.955000000000005
   312   1      16.245000000000001      43.320000000000007      55.955000000000005
   313   1      16.245000000000001                  45.125      54.150000000000006
   314   1      14.440000000000007      43.320000000000007      57.760000000000005
   315   1      14.440000000000007                  45.125      59.565000000000005
   316   1      16.245000000000001      43.320000000000007      59.565000000000005
   317   1      16.245000000000001                  45.125      57.760000000000005
   318   1      14.440000000000007      43.320000000000007      61.370000000000005
   319   1      14.440000000000007                  45.125      63.175000000000026
   320   1      16.245000000000001      43.320000000000007      63.175000000000026
   321   1      16.245000000000001                  45.125      61.370000000000005
   322   1      14.440000000000007                  45.125      66.785000000000011
   323   1      16.245000000000001      43.320000000000007      66.785000000000011
   324   1      16.245000000000001                  45.125      64.980000000000004
   325   1      16.245000000000001                  45.125      68.590000000000018
   326   1      14.440000000000007      48.735000000000007                  45.125
   327   1      16.245000000000001      46.930000000000007                  45.125
   328   1      16.245000000000001      48.735000000000007      43.320000000000007
   329   1      14.440000000000007      46.930000000000007      46.930000000000007
   330   1      14.440000000000007      48.735000000000007      48.735000000000007
   331   1      16.245000000000001      46.930000000000007      48.735000000000007
   332   1      16.245000000000001      48.735000000000007      46.930000000000007
   333   1      14.440000000000007      46.930000000000007      50.540000000000006
   334   1      14.440000000000007      48.735000000000007      52.344999999999999
   335   1      16.245000000000001      46.930000000000007      52.344999999999999
   336   1      16.245000000000001      48.735000000000007      50.540000000000006
   337   1      14.440000000000007      46.930000000000007      54.150000000000006
   338   1      14.440000000000007      48.735000000000007      55.955000000000005
   339   1      16.245000000000001      46.930000000000007      55.955000000000005
   340   1      16.245000000000001      48.735000000000007      54.150000000000006
   341   1      14.440000000000007      46.930000000000007      57.760000000000005
   342   1      14.440000000000007      48.735000000000007      59.565000000000005
   343   1      16.245000000000001      46.930000000000007      59.565000000000005
   344   1      16.245000000000001      48.735000000000007      57.760000000000005
   345   1      14.440000000000007      46.930000000000007      61.370000000000005
   346   1      14.440000000000007      48.735000000000007      63.175000000000026
   347   1      16.245000000000001      46.930000000000007      63.175000000000026
   348   1      16.245000000000001      48.735000000000007      61.370000000000005
   349   1      14.440000000000007      46.930000000000007      64.980000000000004
   350   1      14.440000000000007      48.735000000000007      66.785000000000011
   351   1      16.245000000000001      46.930000000000007      66.785000000000011
   352   1      16.245000000000001      48.735000000000007      64.980000000000004
   353   1      14.440000000000007      46.930000000000007      68.590000000000018
   354   1      14.440000000000007      48.735000000000007       70.39500000000001
   355   1      16.245000000000001      46.930000000000007       70.39500000000001
   356   1      16.245000000000001      48.735000000000007      68.590000000000018
   357   1      16.245000000000001      48.735000000000007      72.200000000000017
   358   1      14.440000000000007      52.344999999999999                  45.125