model_files/CuAu/CuAu_30000/CuAu_521/CuAu_521_fcc_30329_temp.data (written by ASE) 

30329 	 atoms 
2  atom types
0.0                      95  xlo xhi
0.0                      95  ylo yhi
0.0                      95  zlo zhi


Atoms 

     1   1      94.999999999999986      44.879999999999995                   46.75
     2   1      94.999999999999986                   46.75      44.879999999999995
     3   1      94.999999999999986                   46.75       48.61999999999999
     4   1      94.999999999999986       48.61999999999999                   46.75
     5   1      3.7399999999999949      35.530000000000001      44.879999999999995
     6   1      3.7399999999999949      37.399999999999999      43.009999999999998
     7   1      3.7399999999999949      35.530000000000001       48.61999999999999
     8   1      3.7399999999999949      37.399999999999999                   46.75
     9   1      3.7399999999999949      37.399999999999999      50.489999999999988
    10   1      3.7399999999999949      39.269999999999996      41.139999999999993
    11   1      3.7399999999999949      41.139999999999993      39.269999999999996
    12   1      1.8699999999999974      41.139999999999993      44.879999999999995
    13   1      3.7399999999999949      39.269999999999996      44.879999999999995
    14   1      3.7399999999999949      41.139999999999993      43.009999999999998
    15   1      1.8699999999999974      39.269999999999996                   46.75
    16   1      1.8699999999999974      41.139999999999993       48.61999999999999
    17   1      3.7399999999999949      39.269999999999996       48.61999999999999
    18   1      3.7399999999999949      41.139999999999993                   46.75
    19   1      3.7399999999999949      39.269999999999996      52.359999999999985
    20   1      3.7399999999999949      41.139999999999993      50.489999999999988
    21   1      3.7399999999999949      41.139999999999993       54.22999999999999
    22   1      3.7399999999999949      43.009999999999998      37.399999999999999
    23   1      3.7399999999999949      44.879999999999995      35.530000000000001
    24   1      1.8699999999999974      44.879999999999995      41.139999999999993
    25   1      3.7399999999999949      43.009999999999998      41.139999999999993
    26   1      3.7399999999999949      44.879999999999995      39.269999999999996
    27   1      1.8699999999999974      43.009999999999998      43.009999999999998
    28   1      1.8699999999999974      44.879999999999995      44.879999999999995
    29   1      3.7399999999999949      43.009999999999998      44.879999999999995
    30   1      3.7399999999999949      44.879999999999995      43.009999999999998
    31   1      1.8699999999999974      43.009999999999998                   46.75
    32   1      1.8699999999999974      44.879999999999995       48.61999999999999
    33   1      3.7399999999999949      43.009999999999998       48.61999999999999
    34   1      3.7399999999999949      44.879999999999995                   46.75
    35   1      1.8699999999999974      43.009999999999998      50.489999999999988
    36   1      1.8699999999999974      44.879999999999995      52.359999999999985
    37   1      3.7399999999999949      43.009999999999998      52.359999999999985
    38   1      3.7399999999999949      44.879999999999995      50.489999999999988
    39   1      3.7399999999999949      43.009999999999998      56.099999999999987
    40   1      3.7399999999999949      44.879999999999995       54.22999999999999
    41   1      3.7399999999999949      44.879999999999995      57.969999999999999
    42   1      3.7399999999999949                   46.75      37.399999999999999
    43   1      3.7399999999999949       48.61999999999999      35.530000000000001
    44   1      1.8699999999999974                   46.75      39.269999999999996
    45   1      1.8699999999999974       48.61999999999999      41.139999999999993
    46   1      3.7399999999999949                   46.75      41.139999999999993
    47   1      3.7399999999999949       48.61999999999999      39.269999999999996
    48   1      1.8699999999999974                   46.75      43.009999999999998
    49   1      1.8699999999999974       48.61999999999999      44.879999999999995
    50   1      3.7399999999999949                   46.75      44.879999999999995
    51   1      3.7399999999999949       48.61999999999999      43.009999999999998
    52   1      1.8699999999999974                   46.75                   46.75
    53   1      1.8699999999999974       48.61999999999999       48.61999999999999
    54   1      3.7399999999999949                   46.75       48.61999999999999
    55   1      3.7399999999999949       48.61999999999999                   46.75
    56   1      1.8699999999999974                   46.75      50.489999999999988
    57   1      1.8699999999999974       48.61999999999999      52.359999999999985
    58   1      3.7399999999999949                   46.75      52.359999999999985
    59   1      3.7399999999999949       48.61999999999999      50.489999999999988
    60   1      1.8699999999999974                   46.75       54.22999999999999
    61   1      3.7399999999999949                   46.75      56.099999999999987
    62   1      3.7399999999999949       48.61999999999999       54.22999999999999
    63   1      3.7399999999999949       48.61999999999999      57.969999999999999
    64   1      3.7399999999999949      50.489999999999988      37.399999999999999
    65   1      3.7399999999999949      50.489999999999988      41.139999999999993
    66   1      3.7399999999999949      52.359999999999985      39.269999999999996
    67   1      1.8699999999999974      50.489999999999988      43.009999999999998
    68   1      1.8699999999999974      52.359999999999985      44.879999999999995
    69   1      3.7399999999999949      50.489999999999988      44.879999999999995
    70   1      3.7399999999999949      52.359999999999985      43.009999999999998
    71   1      1.8699999999999974      50.489999999999988                   46.75
    72   1      1.8699999999999974      52.359999999999985       48.61999999999999
    73   1      3.7399999999999949      50.489999999999988       48.61999999999999
    74   1      3.7399999999999949      52.359999999999985                   46.75
    75   1      1.8699999999999974      50.489999999999988      50.489999999999988
    76   1      3.7399999999999949      50.489999999999988      52.359999999999985
    77   1      3.7399999999999949      52.359999999999985      50.489999999999988
    78   1      3.7399999999999949      50.489999999999988      56.099999999999987
    79   1      3.7399999999999949      52.359999999999985       54.22999999999999
    80   1      3.7399999999999949       54.22999999999999      41.139999999999993
    81   1      3.7399999999999949       54.22999999999999      44.879999999999995
    82   1      3.7399999999999949      56.099999999999987      43.009999999999998
    83   1      1.8699999999999974       54.22999999999999                   46.75
    84   1      3.7399999999999949       54.22999999999999       48.61999999999999
    85   1      3.7399999999999949      56.099999999999987                   46.75
    86   1      3.7399999999999949       54.22999999999999      52.359999999999985
    87   1      3.7399999999999949      56.099999999999987      50.489999999999988
    88   1      3.7399999999999949      57.969999999999999      44.879999999999995
    89   1      3.7399999999999949      57.969999999999999       48.61999999999999
    90   1       7.479999999999996      26.179999999999993                   46.75
    91   1       7.479999999999996      28.049999999999994      41.139999999999993
    92   1       7.479999999999996      29.919999999999995      39.269999999999996
    93   1       7.479999999999996      28.049999999999994      44.879999999999995
    94   1       7.479999999999996      29.919999999999995      43.009999999999998
    95   1       7.479999999999996      28.049999999999994       48.61999999999999
    96   1       7.479999999999996      29.919999999999995                   46.75
    97   1       7.479999999999996      28.049999999999994      52.359999999999985
    98   1       7.479999999999996      29.919999999999995      50.489999999999988
    99   1       7.479999999999996      29.919999999999995       54.22999999999999
   100   1       7.479999999999996      31.789999999999996      33.659999999999997
   101   1       7.479999999999996      33.659999999999997      31.789999999999996
   102   1       7.479999999999996      31.789999999999996      37.399999999999999
   103   1       7.479999999999996      33.659999999999997      35.530000000000001
   104   1      5.6099999999999994      33.659999999999997      41.139999999999993
   105   1       7.479999999999996      31.789999999999996      41.139999999999993
   106   1       7.479999999999996      33.659999999999997      39.269999999999996
   107   1      5.6099999999999994      31.789999999999996      43.009999999999998
   108   1      5.6099999999999994      33.659999999999997      44.879999999999995
   109   1       7.479999999999996      31.789999999999996      44.879999999999995
   110   1       7.479999999999996      33.659999999999997      43.009999999999998
   111   1      5.6099999999999994      31.789999999999996                   46.75
   112   1      5.6099999999999994      33.659999999999997       48.61999999999999
   113   1       7.479999999999996      31.789999999999996       48.61999999999999
   114   1       7.479999999999996      33.659999999999997                   46.75
   115   1      5.6099999999999994      31.789999999999996      50.489999999999988
   116   1      5.6099999999999994      33.659999999999997      52.359999999999985
   117   1       7.479999999999996      31.789999999999996      52.359999999999985
   118   1       7.479999999999996      33.659999999999997      50.489999999999988
   119   1       7.479999999999996      31.789999999999996      56.099999999999987
   120   1       7.479999999999996      33.659999999999997       54.22999999999999
   121   1       7.479999999999996      31.789999999999996      59.839999999999989
   122   1       7.479999999999996      33.659999999999997      57.969999999999999
   123   1       7.479999999999996      33.659999999999997      61.710000000000001
   124   1       7.479999999999996      35.530000000000001      33.659999999999997
   125   1       7.479999999999996      37.399999999999999      31.789999999999996
   126   1      5.6099999999999994      35.530000000000001      35.530000000000001
   127   1      5.6099999999999994      37.399999999999999      37.399999999999999
   128   1       7.479999999999996      35.530000000000001      37.399999999999999
   129   1       7.479999999999996      37.399999999999999      35.530000000000001
   130   1      5.6099999999999994      35.530000000000001      39.269999999999996
   131   1      5.6099999999999994      37.399999999999999      41.139999999999993
   132   1       7.479999999999996      35.530000000000001      41.139999999999993
   133   1       7.479999999999996      37.399999999999999      39.269999999999996
   134   1      5.6099999999999994      35.530000000000001      43.009999999999998
   135   1      5.6099999999999994      37.399999999999999      44.879999999999995
   136   1       7.479999999999996      35.530000000000001      44.879999999999995
   137   1       7.479999999999996      37.399999999999999      43.009999999999998
   138   1      5.6099999999999994      35.530000000000001                   46.75
   139   1      5.6099999999999994      37.399999999999999       48.61999999999999
   140   1       7.479999999999996      35.530000000000001       48.61999999999999
   141   1       7.479999999999996      37.399999999999999                   46.75
   142   1      5.6099999999999994      35.530000000000001      50.489999999999988
   143   1      5.6099999999999994      37.399999999999999      52.359999999999985
   144   1       7.479999999999996      35.530000000000001      52.359999999999985
   145   1       7.479999999999996      37.399999999999999      50.489999999999988
   146   1      5.6099999999999994      35.530000000000001       54.22999999999999
   147   1      5.6099999999999994      37.399999999999999      56.099999999999987
   148   1       7.479999999999996      35.530000000000001      56.099999999999987
   149   1       7.479999999999996      37.399999999999999       54.22999999999999
   150   1      5.6099999999999994      35.530000000000001      57.969999999999999
   151   1       7.479999999999996      35.530000000000001      59.839999999999989
   152   1       7.479999999999996      37.399999999999999      57.969999999999999
   153   1       7.479999999999996      37.399999999999999      61.710000000000001
   154   1       7.479999999999996      39.269999999999996      29.919999999999995
   155   1       7.479999999999996      41.139999999999993      28.049999999999994
   156   1      5.6099999999999994      41.139999999999993      33.659999999999997
   157   1       7.479999999999996      39.269999999999996      33.659999999999997
   158   1       7.479999999999996      41.139999999999993      31.789999999999996
   159   1      5.6099999999999994      39.269999999999996      35.530000000000001
   160   1      5.6099999999999994      41.139999999999993      37.399999999999999
   161   1       7.479999999999996      39.269999999999996      37.399999999999999
   162   1       7.479999999999996      41.139999999999993      35.530000000000001
   163   1      5.6099999999999994      39.269999999999996      39.269999999999996
   164   1      5.6099999999999994      41.139999999999993      41.139999999999993
   165   1       7.479999999999996      39.269999999999996      41.139999999999993
   166   1       7.479999999999996      41.139999999999993      39.269999999999996
   167   1      5.6099999999999994      39.269999999999996      43.009999999999998
   168   1      5.6099999999999994      41.139999999999993      44.879999999999995
   169   1       7.479999999999996      39.269999999999996      44.879999999999995
   170   1       7.479999999999996      41.139999999999993      43.009999999999998
   171   1      5.6099999999999994      39.269999999999996                   46.75
   172   1      5.6099999999999994      41.139999999999993       48.61999999999999
   173   1       7.479999999999996      39.269999999999996       48.61999999999999
   174   1       7.479999999999996      41.139999999999993                   46.75
   175   1      5.6099999999999994      39.269999999999996      50.489999999999988
   176   1      5.6099999999999994      41.139999999999993      52.359999999999985
   177   1       7.479999999999996      39.269999999999996      52.359999999999985
   178   1       7.479999999999996      41.139999999999993      50.489999999999988
   179   1      5.6099999999999994      39.269999999999996       54.22999999999999
   180   1      5.6099999999999994      41.139999999999993      56.099999999999987
   181   1       7.479999999999996      39.269999999999996      56.099999999999987
   182   1       7.479999999999996      41.139999999999993       54.22999999999999
   183   1      5.6099999999999994      39.269999999999996      57.969999999999999
   184   1      5.6099999999999994      41.139999999999993      59.839999999999989
   185   1       7.479999999999996      39.269999999999996      59.839999999999989
   186   1       7.479999999999996      41.139999999999993      57.969999999999999
   187   1       7.479999999999996      39.269999999999996      63.579999999999991
   188   1       7.479999999999996      41.139999999999993      61.710000000000001
   189   1       7.479999999999996      41.139999999999993      65.450000000000003
   190   1       7.479999999999996      43.009999999999998      29.919999999999995
   191   1       7.479999999999996      44.879999999999995      28.049999999999994
   192   1      5.6099999999999994      43.009999999999998      31.789999999999996
   193   1      5.6099999999999994      44.879999999999995      33.659999999999997
   194   1       7.479999999999996      43.009999999999998      33.659999999999997
   195   1       7.479999999999996      44.879999999999995      31.789999999999996
   196   1      5.6099999999999994      43.009999999999998      35.530000000000001
   197   1      5.6099999999999994      44.879999999999995      37.399999999999999
   198   1       7.479999999999996      43.009999999999998      37.399999999999999
   199   1       7.479999999999996      44.879999999999995      35.530000000000001
   200   1      5.6099999999999994      43.009999999999998      39.269999999999996
   201   1      5.6099999999999994      44.879999999999995      41.139999999999993
   202   1       7.479999999999996      43.009999999999998      41.139999999999993
   203   1       7.479999999999996      44.879999999999995      39.269999999999996
   204   1      5.6099999999999994      43.009999999999998      43.009999999999998
   205   1      5.6099999999999994      44.879999999999995      44.879999999999995
   206   1       7.479999999999996      43.009999999999998      44.879999999999995
   207   1       7.479999999999996      44.879999999999995      43.009999999999998
   208   1      5.6099999999999994      43.009999999999998                   46.75
   209   1      5.6099999999999994      44.879999999999995       48.61999999999999
   210   1       7.479999999999996      43.009999999999998       48.61999999999999
   211   1       7.479999999999996      44.879999999999995                   46.75
   212   1      5.6099999999999994      43.009999999999998      50.489999999999988
   213   1      5.6099999999999994      44.879999999999995      52.359999999999985
   214   1       7.479999999999996      43.009999999999998      52.359999999999985
   215   1       7.479999999999996      44.879999999999995      50.489999999999988
   216   1      5.6099999999999994      43.009999999999998       54.22999999999999
   217   1      5.6099999999999994      44.879999999999995      56.099999999999987
   218   1       7.479999999999996      43.009999999999998      56.099999999999987
   219   1       7.479999999999996      44.879999999999995       54.22999999999999
   220   1      5.6099999999999994      43.009999999999998      57.969999999999999
   221   1      5.6099999999999994      44.879999999999995      59.839999999999989
   222   1       7.479999999999996      43.009999999999998      59.839999999999989
   223   1       7.479999999999996      44.879999999999995      57.969999999999999
   224   1      5.6099999999999994      43.009999999999998      61.710000000000001
   225   1       7.479999999999996      43.009999999999998      63.579999999999991
   226   1       7.479999999999996      44.879999999999995      61.710000000000001
   227   1       7.479999999999996      44.879999999999995      65.450000000000003
   228   1       7.479999999999996                   46.75      26.179999999999993
   229   1       7.479999999999996                   46.75      29.919999999999995
   230   1       7.479999999999996       48.61999999999999      28.049999999999994
   231   1      5.6099999999999994                   46.75      31.789999999999996
   232   1      5.6099999999999994       48.61999999999999      33.659999999999997
   233   1       7.479999999999996                   46.75      33.659999999999997
   234   1       7.479999999999996       48.61999999999999      31.789999999999996
   235   1      5.6099999999999994                   46.75      35.530000000000001
   236   1      5.6099999999999994       48.61999999999999      37.399999999999999
   237   1       7.479999999999996                   46.75      37.399999999999999
   238   1       7.479999999999996       48.61999999999999      35.530000000000001
   239   1      5.6099999999999994                   46.75      39.269999999999996
   240   1      5.6099999999999994       48.61999999999999      41.139999999999993
   241   1       7.479999999999996                   46.75      41.139999999999993
   242   1       7.479999999999996       48.61999999999999      39.269999999999996
   243   1      5.6099999999999994                   46.75      43.009999999999998
   244   1      5.6099999999999994       48.61999999999999      44.879999999999995
   245   1       7.479999999999996                   46.75      44.879999999999995
   246   1       7.479999999999996       48.61999999999999      43.009999999999998
   247   1      5.6099999999999994                   46.75                   46.75
   248   1      5.6099999999999994       48.61999999999999       48.61999999999999
   249   1       7.479999999999996                   46.75       48.61999999999999
   250   1       7.479999999999996       48.61999999999999                   46.75
   251   1      5.6099999999999994                   46.75      50.489999999999988
   252   1      5.6099999999999994       48.61999999999999      52.359999999999985
   253   1       7.479999999999996                   46.75      52.359999999999985
   254   1       7.479999999999996       48.61999999999999      50.489999999999988
   255   1      5.6099999999999994                   46.75       54.22999999999999
   256   1      5.6099999999999994       48.61999999999999      56.099999999999987
   257   1       7.479999999999996                   46.75      56.099999999999987
   258   1       7.479999999999996       48.61999999999999       54.22999999999999
   259   1      5.6099999999999994                   46.75      57.969999999999999
   260   1      5.6099999999999994       48.61999999999999      59.839999999999989
   261   1       7.479999999999996                   46.75      59.839999999999989
   262   1       7.479999999999996       48.61999999999999      57.969999999999999
   263   1      5.6099999999999994                   46.75      61.710000000000001
   264   1       7.479999999999996                   46.75      63.579999999999991
   265   1       7.479999999999996       48.61999999999999      61.710000000000001
   266   1       7.479999999999996                   46.75      67.320000000000007
   267   1       7.479999999999996       48.61999999999999      65.450000000000003
   268   1       7.479999999999996      50.489999999999988      29.919999999999995
   269   1       7.479999999999996      52.359999999999985      28.049999999999994
   270   1      5.6099999999999994      50.489999999999988      31.789999999999996
   271   1      5.6099999999999994      52.359999999999985      33.659999999999997
   272   1       7.479999999999996      50.489999999999988      33.659999999999997
   273   1       7.479999999999996      52.359999999999985      31.789999999999996
   274   1      5.6099999999999994      50.489999999999988      35.530000000000001
   275   1      5.6099999999999994      52.359999999999985      37.399999999999999
   276   1       7.479999999999996      50.489999999999988      37.399999999999999
   277   1       7.479999999999996      52.359999999999985      35.530000000000001
   278   1      5.6099999999999994      50.489999999999988      39.269999999999996
   279   1      5.6099999999999994      52.359999999999985      41.139999999999993
   280   1       7.479999999999996      50.489999999999988      41.139999999999993
   281   1       7.479999999999996      52.359999999999985      39.269999999999996
   282   1      5.6099999999999994      50.489999999999988      43.009999999999998
   283   1      5.6099999999999994      52.359999999999985      44.879999999999995
   284   1       7.479999999999996      50.489999999999988      44.879999999999995
   285   1       7.479999999999996      52.359999999999985      43.009999999999998
   286   1      5.6099999999999994      50.489999999999988                   46.75
   287   1      5.6099999999999994      52.359999999999985       48.61999999999999
   288   1       7.479999999999996      50.489999999999988       48.61999999999999
   289   1       7.479999999999996      52.359999999999985                   46.75
   290   1      5.6099999999999994      50.489999999999988      50.489999999999988
   291   1      5.6099999999999994      52.359999999999985      52.359999999999985
   292   1       7.479999999999996      50.489999999999988      52.359999999999985
   293   1       7.479999999999996      52.359999999999985      50.489999999999988
   294   1      5.6099999999999994      50.489999999999988       54.22999999999999
   295   1      5.6099999999999994      52.359999999999985      56.099999999999987
   296   1       7.479999999999996      50.489999999999988      56.099999999999987
   297   1       7.479999999999996      52.359999999999985       54.22999999999999
   298   1      5.6099999999999994      50.489999999999988      57.969999999999999
   299   1      5.6099999999999994      52.359999999999985      59.839999999999989
   300   1       7.479999999999996      50.489999999999988      59.839999999999989
   301   1       7.479999999999996      52.359999999999985      57.969999999999999
   302   1      5.6099999999999994      50.489999999999988      61.710000000000001
   303   1       7.479999999999996      50.489999999999988      63.579999999999991
   304   1       7.479999999999996      52.359999999999985      61.710000000000001
   305   1       7.479999999999996      52.359999999999985      65.450000000000003
   306   1       7.479999999999996       54.22999999999999      29.919999999999995
   307   1       7.479999999999996       54.22999999999999      33.659999999999997
   308   1       7.479999999999996      56.099999999999987      31.789999999999996
   309   1      5.6099999999999994       54.22999999999999      35.530000000000001
   310   1      5.6099999999999994      56.099999999999987      37.399999999999999
   311   1       7.479999999999996       54.22999999999999      37.399999999999999
   312   1       7.479999999999996      56.099999999999987      35.530000000000001
   313   1      5.6099999999999994       54.22999999999999      39.269999999999996
   314   1      5.6099999999999994      56.099999999999987      41.139999999999993
   315   1       7.479999999999996       54.22999999999999      41.139999999999993
   316   1       7.479999999999996      56.099999999999987      39.269999999999996
   317   1      5.6099999999999994       54.22999999999999      43.009999999999998
   318   1      5.6099999999999994      56.099999999999987      44.879999999999995
   319   1       7.479999999999996       54.22999999999999      44.879999999999995
   320   1       7.479999999999996      56.099999999999987      43.009999999999998
   321   1      5.6099999999999994       54.22999999999999                   46.75
   322   1      5.6099999999999994      56.099999999999987       48.61999999999999
   323   1       7.479999999999996       54.22999999999999       48.61999999999999
   324   1       7.479999999999996      56.099999999999987                   46.75
   325   1      5.6099999999999994       54.22999999999999      50.489999999999988
   326   1      5.6099999999999994      56.099999999999987      52.359999999999985
   327   1       7.479999999999996       54.22999999999999      52.359999999999985
   328   1       7.479999999999996      56.099999999999987      50.489999999999988
   329   1      5.6099999999999994       54.22999999999999       54.22999999999999
   330   1      5.6099999999999994      56.099999999999987      56.099999999999987
   331   1       7.479999999999996       54.22999999999999      56.099999999999987
   332   1       7.479999999999996      56.099999999999987       54.22999999999999
   333   1      5.6099999999999994       54.22999999999999      57.969999999999999
   334   1       7.479999999999996       54.22999999999999      59.839999999999989
   335   1       7.479999999999996      56.099999999999987      57.969999999999999
   336   1       7.479999999999996       54.22999999999999      63.579999999999991
   337   1       7.479999999999996      56.099999999999987      61.710000000000001
   338   1       7.479999999999996      57.969999999999999      33.659999999999997
   339   1       7.479999999999996      59.839999999999989      31.789999999999996
   340   1      5.6099999999999994      57.969999999999999      35.530000000000001
   341   1       7.479999999999996      57.969999999999999      37.399999999999999
   342   1       7.479999999999996      59.839999999999989      35.530000000000001
   343   1      5.6099999999999994      57.969999999999999      39.269999999999996
   344   1      5.6099999999999994      59.839999999999989      41.139999999999993
   345   1       7.479999999999996      57.969999999999999      41.139999999999993
   346   1       7.479999999999996      59.839999999999989      39.269999999999996
   347   1      5.6099999999999994      57.969999999999999      43.009999999999998
   348   1      5.6099999999999994      59.839999999999989      44.879999999999995
   349   1       7.479999999999996      57.969999999999999      44.879999999999995
   350   1       7.479999999999996      59.839999999999989      43.009999999999998
   351   1      5.6099999999999994      57.969999999999999                   46.75
   352   1      5.6099999999999994      59.839999999999989       48.61999999999999
   353   1       7.479999999999996      57.969999999999999       48.61999999999999
   354   1       7.479999999999996      59.839999999999989                   46.75
   355   1      5.6099999999999994      57.969999999999999      50.489999999999988
   356   1      5.6099999999999994      59.839999999999989      52.359999999999985
   357   1       7.479999999999996      57.969999999999999      52.359999999999985
   358   1       7.479999999999996      59.839999999999989      50.489999999999988