model_files/Pd/Pd_30000/Pd_110/data.Pd_110_fcc_31263 (written by ASE) 

31263 	 atoms 
1  atom types
0.0                     116  xlo xhi
0.0                     116  ylo yhi
0.0                     116  zlo zhi


Atoms 

     1   1                       0      56.405000000000001      56.405000000000001
     2   1      1.9450000000000001      54.460000000000001      56.405000000000001
     3   1      1.9450000000000001      56.405000000000001      54.460000000000001
     4   1                       0      56.405000000000001      60.294999999999995
     5   1      1.9450000000000001      54.460000000000001      60.294999999999995
     6   1      1.9450000000000001      56.405000000000001      58.350000000000001
     7   1      1.9450000000000001      56.405000000000001      62.239999999999988
     8   1                       0      60.294999999999995      56.405000000000001
     9   1      1.9450000000000001      58.350000000000001      56.405000000000001
    10   1      1.9450000000000001      60.294999999999995      54.460000000000001
    11   1                       0      58.350000000000001      58.350000000000001
    12   1                       0      60.294999999999995      60.294999999999995
    13   1      1.9450000000000001      58.350000000000001      60.294999999999995
    14   1      1.9450000000000001      60.294999999999995      58.350000000000001
    15   1      1.9450000000000001      60.294999999999995      62.239999999999988
    16   1      1.9450000000000001      62.239999999999988      56.405000000000001
    17   1      1.9450000000000001      62.239999999999988      60.294999999999995
    18   1      3.8900000000000001      52.515000000000001      52.515000000000001
    19   1      5.8350000000000009                   50.57      52.515000000000001
    20   1      5.8350000000000009      52.515000000000001                   50.57
    21   1      3.8900000000000001      52.515000000000001      56.405000000000001
    22   1      5.8350000000000009                   50.57      56.405000000000001
    23   1      5.8350000000000009      52.515000000000001      54.460000000000001
    24   1      3.8900000000000001      52.515000000000001      60.294999999999995
    25   1      5.8350000000000009                   50.57      60.294999999999995
    26   1      5.8350000000000009      52.515000000000001      58.350000000000001
    27   1      3.8900000000000001      52.515000000000001      64.184999999999988
    28   1      5.8350000000000009                   50.57      64.184999999999988
    29   1      5.8350000000000009      52.515000000000001      62.239999999999988
    30   1      5.8350000000000009      52.515000000000001      66.129999999999995
    31   1      3.8900000000000001      56.405000000000001      52.515000000000001
    32   1      5.8350000000000009      54.460000000000001      52.515000000000001
    33   1      5.8350000000000009      56.405000000000001                   50.57
    34   1      3.8900000000000001      54.460000000000001      54.460000000000001
    35   1      3.8900000000000001      56.405000000000001      56.405000000000001
    36   1      5.8350000000000009      54.460000000000001      56.405000000000001
    37   1      5.8350000000000009      56.405000000000001      54.460000000000001
    38   1      3.8900000000000001      54.460000000000001      58.350000000000001
    39   1      3.8900000000000001      56.405000000000001      60.294999999999995
    40   1      5.8350000000000009      54.460000000000001      60.294999999999995
    41   1      5.8350000000000009      56.405000000000001      58.350000000000001
    42   1      3.8900000000000001      54.460000000000001      62.239999999999988
    43   1      3.8900000000000001      56.405000000000001      64.184999999999988
    44   1      5.8350000000000009      54.460000000000001      64.184999999999988
    45   1      5.8350000000000009      56.405000000000001      62.239999999999988
    46   1      5.8350000000000009      56.405000000000001      66.129999999999995
    47   1      3.8900000000000001      60.294999999999995      52.515000000000001
    48   1      5.8350000000000009      58.350000000000001      52.515000000000001
    49   1      5.8350000000000009      60.294999999999995                   50.57
    50   1      3.8900000000000001      58.350000000000001      54.460000000000001
    51   1      3.8900000000000001      60.294999999999995      56.405000000000001
    52   1      5.8350000000000009      58.350000000000001      56.405000000000001
    53   1      5.8350000000000009      60.294999999999995      54.460000000000001
    54   1      3.8900000000000001      58.350000000000001      58.350000000000001
    55   1      3.8900000000000001      60.294999999999995      60.294999999999995
    56   1      5.8350000000000009      58.350000000000001      60.294999999999995
    57   1      5.8350000000000009      60.294999999999995      58.350000000000001
    58   1      3.8900000000000001      58.350000000000001      62.239999999999988
    59   1      3.8900000000000001      60.294999999999995      64.184999999999988
    60   1      5.8350000000000009      58.350000000000001      64.184999999999988
    61   1      5.8350000000000009      60.294999999999995      62.239999999999988
    62   1      5.8350000000000009      60.294999999999995      66.129999999999995
    63   1      3.8900000000000001      64.184999999999988      52.515000000000001
    64   1      5.8350000000000009      62.239999999999988      52.515000000000001
    65   1      5.8350000000000009      64.184999999999988                   50.57
    66   1      3.8900000000000001      62.239999999999988      54.460000000000001
    67   1      3.8900000000000001      64.184999999999988      56.405000000000001
    68   1      5.8350000000000009      62.239999999999988      56.405000000000001
    69   1      5.8350000000000009      64.184999999999988      54.460000000000001
    70   1      3.8900000000000001      62.239999999999988      58.350000000000001
    71   1      3.8900000000000001      64.184999999999988      60.294999999999995
    72   1      5.8350000000000009      62.239999999999988      60.294999999999995
    73   1      5.8350000000000009      64.184999999999988      58.350000000000001
    74   1      3.8900000000000001      62.239999999999988      62.239999999999988
    75   1      3.8900000000000001      64.184999999999988      64.184999999999988
    76   1      5.8350000000000009      62.239999999999988      64.184999999999988
    77   1      5.8350000000000009      64.184999999999988      62.239999999999988
    78   1      5.8350000000000009      64.184999999999988      66.129999999999995
    79   1      5.8350000000000009      66.129999999999995      52.515000000000001
    80   1      5.8350000000000009      66.129999999999995      56.405000000000001
    81   1      5.8350000000000009      66.129999999999995      60.294999999999995
    82   1      5.8350000000000009      66.129999999999995      64.184999999999988
    83   1      7.7800000000000002                  48.625                  48.625
    84   1      9.7250000000000014                   46.68                  48.625
    85   1      9.7250000000000014                  48.625                   46.68
    86   1      7.7800000000000002                  48.625      52.515000000000001
    87   1      9.7250000000000014                   46.68      52.515000000000001
    88   1      9.7250000000000014                  48.625                   50.57
    89   1      7.7800000000000002                  48.625      56.405000000000001
    90   1      9.7250000000000014                   46.68      56.405000000000001
    91   1      9.7250000000000014                  48.625      54.460000000000001
    92   1      7.7800000000000002                  48.625      60.294999999999995
    93   1      9.7250000000000014                   46.68      60.294999999999995
    94   1      9.7250000000000014                  48.625      58.350000000000001
    95   1      7.7800000000000002                  48.625      64.184999999999988
    96   1      9.7250000000000014                   46.68      64.184999999999988
    97   1      9.7250000000000014                  48.625      62.239999999999988
    98   1      7.7800000000000002                  48.625      68.074999999999989
    99   1      9.7250000000000014                   46.68      68.074999999999989
   100   1      9.7250000000000014                  48.625      66.129999999999995
   101   1      9.7250000000000014                  48.625      70.019999999999996
   102   1      7.7800000000000002      52.515000000000001                  48.625
   103   1      9.7250000000000014                   50.57                  48.625
   104   1      9.7250000000000014      52.515000000000001                   46.68
   105   1      7.7800000000000002                   50.57                   50.57
   106   1      7.7800000000000002      52.515000000000001      52.515000000000001
   107   1      9.7250000000000014                   50.57      52.515000000000001
   108   1      9.7250000000000014      52.515000000000001                   50.57
   109   1      7.7800000000000002                   50.57      54.460000000000001
   110   1      7.7800000000000002      52.515000000000001      56.405000000000001
   111   1      9.7250000000000014                   50.57      56.405000000000001
   112   1      9.7250000000000014      52.515000000000001      54.460000000000001
   113   1      7.7800000000000002                   50.57      58.350000000000001
   114   1      7.7800000000000002      52.515000000000001      60.294999999999995
   115   1      9.7250000000000014                   50.57      60.294999999999995
   116   1      9.7250000000000014      52.515000000000001      58.350000000000001
   117   1      7.7800000000000002                   50.57      62.239999999999988
   118   1      7.7800000000000002      52.515000000000001      64.184999999999988
   119   1      9.7250000000000014                   50.57      64.184999999999988
   120   1      9.7250000000000014      52.515000000000001      62.239999999999988
   121   1      7.7800000000000002                   50.57      66.129999999999995
   122   1      7.7800000000000002      52.515000000000001      68.074999999999989
   123   1      9.7250000000000014                   50.57      68.074999999999989
   124   1      9.7250000000000014      52.515000000000001      66.129999999999995
   125   1      9.7250000000000014      52.515000000000001      70.019999999999996
   126   1      7.7800000000000002      56.405000000000001                  48.625
   127   1      9.7250000000000014      54.460000000000001                  48.625
   128   1      9.7250000000000014      56.405000000000001                   46.68
   129   1      7.7800000000000002      54.460000000000001                   50.57
   130   1      7.7800000000000002      56.405000000000001      52.515000000000001
   131   1      9.7250000000000014      54.460000000000001      52.515000000000001
   132   1      9.7250000000000014      56.405000000000001                   50.57
   133   1      7.7800000000000002      54.460000000000001      54.460000000000001
   134   1      7.7800000000000002      56.405000000000001      56.405000000000001
   135   1      9.7250000000000014      54.460000000000001      56.405000000000001
   136   1      9.7250000000000014      56.405000000000001      54.460000000000001
   137   1      7.7800000000000002      54.460000000000001      58.350000000000001
   138   1      7.7800000000000002      56.405000000000001      60.294999999999995
   139   1      9.7250000000000014      54.460000000000001      60.294999999999995
   140   1      9.7250000000000014      56.405000000000001      58.350000000000001
   141   1      7.7800000000000002      54.460000000000001      62.239999999999988
   142   1      7.7800000000000002      56.405000000000001      64.184999999999988
   143   1      9.7250000000000014      54.460000000000001      64.184999999999988
   144   1      9.7250000000000014      56.405000000000001      62.239999999999988
   145   1      7.7800000000000002      54.460000000000001      66.129999999999995
   146   1      7.7800000000000002      56.405000000000001      68.074999999999989
   147   1      9.7250000000000014      54.460000000000001      68.074999999999989
   148   1      9.7250000000000014      56.405000000000001      66.129999999999995
   149   1      9.7250000000000014      56.405000000000001      70.019999999999996
   150   1      7.7800000000000002      60.294999999999995                  48.625
   151   1      9.7250000000000014      58.350000000000001                  48.625
   152   1      9.7250000000000014      60.294999999999995                   46.68
   153   1      7.7800000000000002      58.350000000000001                   50.57
   154   1      7.7800000000000002      60.294999999999995      52.515000000000001
   155   1      9.7250000000000014      58.350000000000001      52.515000000000001
   156   1      9.7250000000000014      60.294999999999995                   50.57
   157   1      7.7800000000000002      58.350000000000001      54.460000000000001
   158   1      7.7800000000000002      60.294999999999995      56.405000000000001
   159   1      9.7250000000000014      58.350000000000001      56.405000000000001
   160   1      9.7250000000000014      60.294999999999995      54.460000000000001
   161   1      7.7800000000000002      58.350000000000001      58.350000000000001
   162   1      7.7800000000000002      60.294999999999995      60.294999999999995
   163   1      9.7250000000000014      58.350000000000001      60.294999999999995
   164   1      9.7250000000000014      60.294999999999995      58.350000000000001
   165   1      7.7800000000000002      58.350000000000001      62.239999999999988
   166   1      7.7800000000000002      60.294999999999995      64.184999999999988
   167   1      9.7250000000000014      58.350000000000001      64.184999999999988
   168   1      9.7250000000000014      60.294999999999995      62.239999999999988
   169   1      7.7800000000000002      58.350000000000001      66.129999999999995
   170   1      7.7800000000000002      60.294999999999995      68.074999999999989
   171   1      9.7250000000000014      58.350000000000001      68.074999999999989
   172   1      9.7250000000000014      60.294999999999995      66.129999999999995
   173   1      9.7250000000000014      60.294999999999995      70.019999999999996
   174   1      7.7800000000000002      64.184999999999988                  48.625
   175   1      9.7250000000000014      62.239999999999988                  48.625
   176   1      9.7250000000000014      64.184999999999988                   46.68
   177   1      7.7800000000000002      62.239999999999988                   50.57
   178   1      7.7800000000000002      64.184999999999988      52.515000000000001
   179   1      9.7250000000000014      62.239999999999988      52.515000000000001
   180   1      9.7250000000000014      64.184999999999988                   50.57
   181   1      7.7800000000000002      62.239999999999988      54.460000000000001
   182   1      7.7800000000000002      64.184999999999988      56.405000000000001
   183   1      9.7250000000000014      62.239999999999988      56.405000000000001
   184   1      9.7250000000000014      64.184999999999988      54.460000000000001
   185   1      7.7800000000000002      62.239999999999988      58.350000000000001
   186   1      7.7800000000000002      64.184999999999988      60.294999999999995
   187   1      9.7250000000000014      62.239999999999988      60.294999999999995
   188   1      9.7250000000000014      64.184999999999988      58.350000000000001
   189   1      7.7800000000000002      62.239999999999988      62.239999999999988
   190   1      7.7800000000000002      64.184999999999988      64.184999999999988
   191   1      9.7250000000000014      62.239999999999988      64.184999999999988
   192   1      9.7250000000000014      64.184999999999988      62.239999999999988
   193   1      7.7800000000000002      62.239999999999988      66.129999999999995
   194   1      7.7800000000000002      64.184999999999988      68.074999999999989
   195   1      9.7250000000000014      62.239999999999988      68.074999999999989
   196   1      9.7250000000000014      64.184999999999988      66.129999999999995
   197   1      9.7250000000000014      64.184999999999988      70.019999999999996
   198   1      7.7800000000000002      68.074999999999989                  48.625
   199   1      9.7250000000000014      66.129999999999995                  48.625
   200   1      9.7250000000000014      68.074999999999989                   46.68
   201   1      7.7800000000000002      66.129999999999995                   50.57
   202   1      7.7800000000000002      68.074999999999989      52.515000000000001
   203   1      9.7250000000000014      66.129999999999995      52.515000000000001
   204   1      9.7250000000000014      68.074999999999989                   50.57
   205   1      7.7800000000000002      66.129999999999995      54.460000000000001
   206   1      7.7800000000000002      68.074999999999989      56.405000000000001
   207   1      9.7250000000000014      66.129999999999995      56.405000000000001
   208   1      9.7250000000000014      68.074999999999989      54.460000000000001
   209   1      7.7800000000000002      66.129999999999995      58.350000000000001
   210   1      7.7800000000000002      68.074999999999989      60.294999999999995
   211   1      9.7250000000000014      66.129999999999995      60.294999999999995
   212   1      9.7250000000000014      68.074999999999989      58.350000000000001
   213   1      7.7800000000000002      66.129999999999995      62.239999999999988
   214   1      7.7800000000000002      68.074999999999989      64.184999999999988
   215   1      9.7250000000000014      66.129999999999995      64.184999999999988
   216   1      9.7250000000000014      68.074999999999989      62.239999999999988
   217   1      7.7800000000000002      66.129999999999995      66.129999999999995
   218   1      7.7800000000000002      68.074999999999989      68.074999999999989
   219   1      9.7250000000000014      66.129999999999995      68.074999999999989
   220   1      9.7250000000000014      68.074999999999989      66.129999999999995
   221   1      9.7250000000000014      68.074999999999989      70.019999999999996
   222   1      9.7250000000000014      70.019999999999996                  48.625
   223   1      9.7250000000000014      70.019999999999996      52.515000000000001
   224   1      9.7250000000000014      70.019999999999996      56.405000000000001
   225   1      9.7250000000000014      70.019999999999996      60.294999999999995
   226   1      9.7250000000000014      70.019999999999996      64.184999999999988
   227   1      9.7250000000000014      70.019999999999996      68.074999999999989
   228   1      11.670000000000002      44.734999999999999      44.734999999999999
   229   1      13.615000000000002      42.789999999999999      44.734999999999999
   230   1      13.615000000000002      44.734999999999999      42.789999999999999
   231   1      11.670000000000002      44.734999999999999                  48.625
   232   1      13.615000000000002      42.789999999999999                  48.625
   233   1      13.615000000000002      44.734999999999999                   46.68
   234   1      11.670000000000002      44.734999999999999      52.515000000000001
   235   1      13.615000000000002      42.789999999999999      52.515000000000001
   236   1      13.615000000000002      44.734999999999999                   50.57
   237   1      11.670000000000002      44.734999999999999      56.405000000000001
   238   1      13.615000000000002      42.789999999999999      56.405000000000001
   239   1      13.615000000000002      44.734999999999999      54.460000000000001
   240   1      11.670000000000002      44.734999999999999      60.294999999999995
   241   1      13.615000000000002      42.789999999999999      60.294999999999995
   242   1      13.615000000000002      44.734999999999999      58.350000000000001
   243   1      11.670000000000002      44.734999999999999      64.184999999999988
   244   1      13.615000000000002      42.789999999999999      64.184999999999988
   245   1      13.615000000000002      44.734999999999999      62.239999999999988
   246   1      11.670000000000002      44.734999999999999      68.074999999999989
   247   1      13.615000000000002      42.789999999999999      68.074999999999989
   248   1      13.615000000000002      44.734999999999999      66.129999999999995
   249   1      11.670000000000002      44.734999999999999      71.964999999999989
   250   1      13.615000000000002      42.789999999999999      71.964999999999989
   251   1      13.615000000000002      44.734999999999999      70.019999999999996
   252   1      13.615000000000002      44.734999999999999      73.909999999999997
   253   1      11.670000000000002                  48.625      44.734999999999999
   254   1      13.615000000000002                   46.68      44.734999999999999
   255   1      13.615000000000002                  48.625      42.789999999999999
   256   1      11.670000000000002                   46.68                   46.68
   257   1      11.670000000000002                  48.625                  48.625
   258   1      13.615000000000002                   46.68                  48.625
   259   1      13.615000000000002                  48.625                   46.68
   260   1      11.670000000000002                   46.68                   50.57
   261   1      11.670000000000002                  48.625      52.515000000000001
   262   1      13.615000000000002                   46.68      52.515000000000001
   263   1      13.615000000000002                  48.625                   50.57
   264   1      11.670000000000002                   46.68      54.460000000000001
   265   1      11.670000000000002                  48.625      56.405000000000001
   266   1      13.615000000000002                   46.68      56.405000000000001
   267   1      13.615000000000002                  48.625      54.460000000000001
   268   1      11.670000000000002                   46.68      58.350000000000001
   269   1      11.670000000000002                  48.625      60.294999999999995
   270   1      13.615000000000002                   46.68      60.294999999999995
   271   1      13.615000000000002                  48.625      58.350000000000001
   272   1      11.670000000000002                   46.68      62.239999999999988
   273   1      11.670000000000002                  48.625      64.184999999999988
   274   1      13.615000000000002                   46.68      64.184999999999988
   275   1      13.615000000000002                  48.625      62.239999999999988
   276   1      11.670000000000002                   46.68      66.129999999999995
   277   1      11.670000000000002                  48.625      68.074999999999989
   278   1      13.615000000000002                   46.68      68.074999999999989
   279   1      13.615000000000002                  48.625      66.129999999999995
   280   1      11.670000000000002                   46.68      70.019999999999996
   281   1      11.670000000000002                  48.625      71.964999999999989
   282   1      13.615000000000002                   46.68      71.964999999999989
   283   1      13.615000000000002                  48.625      70.019999999999996
   284   1      13.615000000000002                  48.625      73.909999999999997
   285   1      11.670000000000002      52.515000000000001      44.734999999999999
   286   1      13.615000000000002                   50.57      44.734999999999999
   287   1      13.615000000000002      52.515000000000001      42.789999999999999
   288   1      11.670000000000002                   50.57                   46.68
   289   1      11.670000000000002      52.515000000000001                  48.625
   290   1      13.615000000000002                   50.57                  48.625
   291   1      13.615000000000002      52.515000000000001                   46.68
   292   1      11.670000000000002                   50.57                   50.57
   293   1      11.670000000000002      52.515000000000001      52.515000000000001
   294   1      13.615000000000002                   50.57      52.515000000000001
   295   1      13.615000000000002      52.515000000000001                   50.57
   296   1      11.670000000000002                   50.57      54.460000000000001
   297   1      11.670000000000002      52.515000000000001      56.405000000000001
   298   1      13.615000000000002                   50.57      56.405000000000001
   299   1      13.615000000000002      52.515000000000001      54.460000000000001
   300   1      11.670000000000002                   50.57      58.350000000000001
   301   1      11.670000000000002      52.515000000000001      60.294999999999995
   302   1      13.615000000000002                   50.57      60.294999999999995
   303   1      13.615000000000002      52.515000000000001      58.350000000000001
   304   1      11.670000000000002                   50.57      62.239999999999988
   305   1      11.670000000000002      52.515000000000001      64.184999999999988
   306   1      13.615000000000002                   50.57      64.184999999999988
   307   1      13.615000000000002      52.515000000000001      62.239999999999988
   308   1      11.670000000000002                   50.57      66.129999999999995
   309   1      11.670000000000002      52.515000000000001      68.074999999999989
   310   1      13.615000000000002                   50.57      68.074999999999989
   311   1      13.615000000000002      52.515000000000001      66.129999999999995
   312   1      11.670000000000002                   50.57      70.019999999999996
   313   1      11.670000000000002      52.515000000000001      71.964999999999989
   314   1      13.615000000000002                   50.57      71.964999999999989
   315   1      13.615000000000002      52.515000000000001      70.019999999999996
   316   1      13.615000000000002      52.515000000000001      73.909999999999997
   317   1      11.670000000000002      56.405000000000001      44.734999999999999
   318   1      13.615000000000002      54.460000000000001      44.734999999999999
   319   1      13.615000000000002      56.405000000000001      42.789999999999999
   320   1      11.670000000000002      54.460000000000001                   46.68
   321   1      11.670000000000002      56.405000000000001                  48.625
   322   1      13.615000000000002      54.460000000000001                  48.625
   323   1      13.615000000000002      56.405000000000001                   46.68
   324   1      11.670000000000002      54.460000000000001                   50.57
   325   1      11.670000000000002      56.405000000000001      52.515000000000001
   326   1      13.615000000000002      54.460000000000001      52.515000000000001
   327   1      13.615000000000002      56.405000000000001                   50.57
   328   1      11.670000000000002      54.460000000000001      54.460000000000001
   329   1      11.670000000000002      56.405000000000001      56.405000000000001
   330   1      13.615000000000002      54.460000000000001      56.405000000000001
   331   1      13.615000000000002      56.405000000000001      54.460000000000001
   332   1      11.670000000000002      54.460000000000001      58.350000000000001
   333   1      11.670000000000002      56.405000000000001      60.294999999999995
   334   1      13.615000000000002      54.460000000000001      60.294999999999995
   335   1      13.615000000000002      56.405000000000001      58.350000000000001
   336   1      11.670000000000002      54.460000000000001      62.239999999999988
   337   1      11.670000000000002      56.405000000000001      64.184999999999988
   338   1      13.615000000000002      54.460000000000001      64.184999999999988
   339   1      13.615000000000002      56.405000000000001      62.239999999999988
   340   1      11.670000000000002      54.460000000000001      66.129999999999995
   341   1      11.670000000000002      56.405000000000001      68.074999999999989
   342   1      13.615000000000002      54.460000000000001      68.074999999999989
   343   1      13.615000000000002      56.405000000000001      66.129999999999995
   344   1      11.670000000000002      54.460000000000001      70.019999999999996
   345   1      11.670000000000002      56.405000000000001      71.964999999999989
   346   1      13.615000000000002      54.460000000000001      71.964999999999989
   347   1      13.615000000000002      56.405000000000001      70.019999999999996
   348   1      13.615000000000002      56.405000000000001      73.909999999999997
   349   1      11.670000000000002      60.294999999999995      44.734999999999999
   350   1      13.615000000000002      58.350000000000001      44.734999999999999
   351   1      13.615000000000002      60.294999999999995      42.789999999999999
   352   1      11.670000000000002      58.350000000000001                   46.68
   353   1      11.670000000000002      60.294999999999995                  48.625
   354   1      13.615000000000002      58.350000000000001                  48.625
   355   1      13.615000000000002      60.294999999999995                   46.68
   356   1      11.670000000000002      58.350000000000001                   50.57
   357   1      11.670000000000002      60.294999999999995      52.515000000000001
   358   1      13.615000000000002      58.350000000000001      52.515000000000001