LAMMPS data file via write_data, version 30 Nov 2020, timestep = 0

30527 atoms
5 atom types

0 85 xlo xhi
0 85 ylo yhi
0 85 zlo zhi

Masses

1 58.7
2 55.8
3 52
4 59
5 26

Atoms # atomic

1 4 7.105427357601002e-15 37.90500000000001 39.71000000000001 0 0 0
2 1 7.105427357601002e-15 39.71000000000001 37.90500000000001 0 0 0
4 1 7.105427357601002e-15 39.71000000000001 41.51500000000001 0 0 0
6 4 7.105427357601002e-15 41.51500000000001 39.71000000000001 0 0 0
13 3 3.610000000000007 27.075000000000006 28.880000000000006 0 0 0
14 2 3.610000000000007 28.880000000000006 27.075000000000006 0 0 0
15 3 3.610000000000007 27.075000000000006 32.49000000000001 0 0 0
16 3 3.610000000000007 28.880000000000006 30.68500000000001 0 0 0
17 3 3.610000000000007 27.075000000000006 36.10000000000001 0 0 0
18 5 3.610000000000007 28.880000000000006 34.29500000000001 0 0 0
19 1 3.610000000000007 27.075000000000006 39.71000000000001 0 0 0
20 2 3.610000000000007 28.880000000000006 37.90500000000001 0 0 0
22 1 3.610000000000007 28.880000000000006 41.51500000000001 0 0 0
30 5 3.610000000000007 30.68500000000001 28.880000000000006 0 0 0
31 5 3.610000000000007 32.49000000000001 27.075000000000006 0 0 0
32 5 1.8050000000000068 32.49000000000001 32.49000000000001 0 0 0
33 3 3.610000000000007 30.68500000000001 32.49000000000001 0 0 0
34 2 3.610000000000007 32.49000000000001 30.68500000000001 0 0 0
35 5 1.8050000000000068 32.49000000000001 36.10000000000001 0 0 0
36 2 3.610000000000007 30.68500000000001 36.10000000000001 0 0 0
37 5 3.610000000000007 32.49000000000001 34.29500000000001 0 0 0
38 4 1.8050000000000068 32.49000000000001 39.71000000000001 0 0 0
39 4 3.610000000000007 30.68500000000001 39.71000000000001 0 0 0
40 4 3.610000000000007 32.49000000000001 37.90500000000001 0 0 0
43 3 3.610000000000007 32.49000000000001 41.51500000000001 0 0 0
53 1 3.610000000000007 34.29500000000001 28.880000000000006 0 0 0
54 5 3.610000000000007 36.10000000000001 27.075000000000006 0 0 0
55 3 1.8050000000000068 36.10000000000001 32.49000000000001 0 0 0
56 5 3.610000000000007 34.29500000000001 32.49000000000001 0 0 0
57 1 3.610000000000007 36.10000000000001 30.68500000000001 0 0 0
58 4 1.8050000000000068 34.29500000000001 34.29500000000001 0 0 0
59 3 1.8050000000000068 36.10000000000001 36.10000000000001 0 0 0
60 3 3.610000000000007 34.29500000000001 36.10000000000001 0 0 0
61 5 3.610000000000007 36.10000000000001 34.29500000000001 0 0 0
62 3 1.8050000000000068 34.29500000000001 37.90500000000001 0 0 0
63 2 1.8050000000000068 36.10000000000001 39.71000000000001 0 0 0
64 3 3.610000000000007 34.29500000000001 39.71000000000001 0 0 0
65 2 3.610000000000007 36.10000000000001 37.90500000000001 0 0 0
66 2 1.8050000000000068 34.29500000000001 41.51500000000001 0 0 0
69 1 3.610000000000007 36.10000000000001 41.51500000000001 0 0 0
81 5 3.610000000000007 37.90500000000001 28.880000000000006 0 0 0
82 1 3.610000000000007 39.71000000000001 27.075000000000006 0 0 0
83 2 1.8050000000000068 39.71000000000001 32.49000000000001 0 0 0
84 5 3.610000000000007 37.90500000000001 32.49000000000001 0 0 0
85 5 3.610000000000007 39.71000000000001 30.68500000000001 0 0 0
86 1 1.8050000000000068 37.90500000000001 34.29500000000001 0 0 0
87 4 1.8050000000000068 39.71000000000001 36.10000000000001 0 0 0
88 1 3.610000000000007 37.90500000000001 36.10000000000001 0 0 0
89 3 3.610000000000007 39.71000000000001 34.29500000000001 0 0 0
90 1 1.8050000000000068 37.90500000000001 37.90500000000001 0 0 0
91 5 1.8050000000000068 39.71000000000001 39.71000000000001 0 0 0
92 5 3.610000000000007 37.90500000000001 39.71000000000001 0 0 0
93 4 3.610000000000007 39.71000000000001 37.90500000000001 0 0 0
94 5 1.8050000000000068 37.90500000000001 41.51500000000001 0 0 0
97 5 3.610000000000007 39.71000000000001 41.51500000000001 0 0 0
109 1 3.610000000000007 41.51500000000001 28.880000000000006 0 0 0
112 4 3.610000000000007 41.51500000000001 32.49000000000001 0 0 0
114 4 1.8050000000000068 41.51500000000001 34.29500000000001 0 0 0
116 3 3.610000000000007 41.51500000000001 36.10000000000001 0 0 0
118 3 1.8050000000000068 41.51500000000001 37.90500000000001 0 0 0
120 3 3.610000000000007 41.51500000000001 39.71000000000001 0 0 0
122 3 1.8050000000000068 41.51500000000001 41.51500000000001 0 0 0
218 2 7.220000000000005 16.245000000000008 18.050000000000008 0 0 0
219 3 7.220000000000005 18.050000000000008 16.245000000000008 0 0 0
220 3 7.220000000000005 16.245000000000008 21.660000000000007 0 0 0
221 5 7.220000000000005 18.050000000000008 19.855000000000008 0 0 0
222 1 7.220000000000005 16.245000000000008 25.270000000000003 0 0 0
223 4 7.220000000000005 18.050000000000008 23.465000000000007 0 0 0
224 3 7.220000000000005 16.245000000000008 28.880000000000006 0 0 0
225 2 7.220000000000005 18.050000000000008 27.075000000000006 0 0 0
226 2 7.220000000000005 16.245000000000008 32.49000000000001 0 0 0
227 4 7.220000000000005 18.050000000000008 30.68500000000001 0 0 0
228 5 7.220000000000005 16.245000000000008 36.10000000000001 0 0 0
229 4 7.220000000000005 18.050000000000008 34.29500000000001 0 0 0
230 4 7.220000000000005 16.245000000000008 39.71000000000001 0 0 0
231 1 7.220000000000005 18.050000000000008 37.90500000000001 0 0 0
233 1 7.220000000000005 18.050000000000008 41.51500000000001 0 0 0
247 2 7.220000000000005 19.855000000000008 18.050000000000008 0 0 0
248 1 7.220000000000005 21.660000000000007 16.245000000000008 0 0 0
249 3 5.415000000000006 21.660000000000007 21.660000000000007 0 0 0
250 1 7.220000000000005 19.855000000000008 21.660000000000007 0 0 0
251 5 7.220000000000005 21.660000000000007 19.855000000000008 0 0 0
252 1 5.415000000000006 21.660000000000007 25.270000000000003 0 0 0
253 3 7.220000000000005 19.855000000000008 25.270000000000003 0 0 0
254 1 7.220000000000005 21.660000000000007 23.465000000000007 0 0 0
255 3 5.415000000000006 21.660000000000007 28.880000000000006 0 0 0
256 2 7.220000000000005 19.855000000000008 28.880000000000006 0 0 0
257 1 7.220000000000005 21.660000000000007 27.075000000000006 0 0 0
258 2 5.415000000000006 21.660000000000007 32.49000000000001 0 0 0
259 3 7.220000000000005 19.855000000000008 32.49000000000001 0 0 0
260 3 7.220000000000005 21.660000000000007 30.68500000000001 0 0 0
261 5 5.415000000000006 21.660000000000007 36.10000000000001 0 0 0
262 2 7.220000000000005 19.855000000000008 36.10000000000001 0 0 0
263 1 7.220000000000005 21.660000000000007 34.29500000000001 0 0 0
264 4 5.415000000000006 21.660000000000007 39.71000000000001 0 0 0
265 4 7.220000000000005 19.855000000000008 39.71000000000001 0 0 0
266 1 7.220000000000005 21.660000000000007 37.90500000000001 0 0 0
269 1 7.220000000000005 21.660000000000007 41.51500000000001 0 0 0
288 5 7.220000000000005 23.465000000000007 18.050000000000008 0 0 0
289 4 7.220000000000005 25.270000000000003 16.245000000000008 0 0 0
290 4 5.415000000000006 25.270000000000003 21.660000000000007 0 0 0
291 2 7.220000000000005 23.465000000000007 21.660000000000007 0 0 0
292 5 7.220000000000005 25.270000000000003 19.855000000000008 0 0 0
293 2 5.415000000000006 23.465000000000007 23.465000000000007 0 0 0
294 3 5.415000000000006 25.270000000000003 25.270000000000003 0 0 0
295 1 7.220000000000005 23.465000000000007 25.270000000000003 0 0 0
296 5 7.220000000000005 25.270000000000003 23.465000000000007 0 0 0
297 3 5.415000000000006 23.465000000000007 27.075000000000006 0 0 0
298 4 5.415000000000006 25.270000000000003 28.880000000000006 0 0 0
299 3 7.220000000000005 23.465000000000007 28.880000000000006 0 0 0
300 2 7.220000000000005 25.270000000000003 27.075000000000006 0 0 0
301 1 5.415000000000006 23.465000000000007 30.68500000000001 0 0 0
302 5 5.415000000000006 25.270000000000003 32.49000000000001 0 0 0
303 1 7.220000000000005 23.465000000000007 32.49000000000001 0 0 0
304 4 7.220000000000005 25.270000000000003 30.68500000000001 0 0 0
305 5 5.415000000000006 23.465000000000007 34.29500000000001 0 0 0
306 1 5.415000000000006 25.270000000000003 36.10000000000001 0 0 0
307 3 7.220000000000005 23.465000000000007 36.10000000000001 0 0 0
308 4 7.220000000000005 25.270000000000003 34.29500000000001 0 0 0
309 3 5.415000000000006 23.465000000000007 37.90500000000001 0 0 0
310 2 5.415000000000006 25.270000000000003 39.71000000000001 0 0 0
311 4 7.220000000000005 23.465000000000007 39.71000000000001 0 0 0
312 2 7.220000000000005 25.270000000000003 37.90500000000001 0 0 0
313 1 5.415000000000006 23.465000000000007 41.51500000000001 0 0 0
316 1 7.220000000000005 25.270000000000003 41.51500000000001 0 0 0
340 1 7.220000000000005 27.075000000000006 18.050000000000008 0 0 0
341 5 7.220000000000005 28.880000000000006 16.245000000000008 0 0 0
342 1 5.415000000000006 28.880000000000006 21.660000000000007 0 0 0
343 1 7.220000000000005 27.075000000000006 21.660000000000007 0 0 0
344 5 7.220000000000005 28.880000000000006 19.855000000000008 0 0 0
345 4 5.415000000000006 27.075000000000006 23.465000000000007 0 0 0
346 1 5.415000000000006 28.880000000000006 25.270000000000003 0 0 0
347 2 7.220000000000005 27.075000000000006 25.270000000000003 0 0 0
348 1 7.220000000000005 28.880000000000006 23.465000000000007 0 0 0
349 3 5.415000000000006 27.075000000000006 27.075000000000006 0 0 0
350 1 5.415000000000006 28.880000000000006 28.880000000000006 0 0 0
351 2 7.220000000000005 27.075000000000006 28.880000000000006 0 0 0
352 2 7.220000000000005 28.880000000000006 27.075000000000006 0 0 0
353 2 5.415000000000006 27.075000000000006 30.68500000000001 0 0 0
354 5 5.415000000000006 28.880000000000006 32.49000000000001 0 0 0
355 1 7.220000000000005 27.075000000000006 32.49000000000001 0 0 0
356 1 7.220000000000005 28.880000000000006 30.68500000000001 0 0 0
357 5 5.415000000000006 27.075000000000006 34.29500000000001 0 0 0
358 3 5.415000000000006 28.880000000000006 36.10000000000001 0 0 0
359 3 7.220000000000005 27.075000000000006 36.10000000000001 0 0 0
360 3 7.220000000000005 28.880000000000006 34.29500000000001 0 0 0
361 2 5.415000000000006 27.075000000000006 37.90500000000001 0 0 0
362 1 5.415000000000006 28.880000000000006 39.71000000000001 0 0 0
363 3 7.220000000000005 27.075000000000006 39.71000000000001 0 0 0
364 2 7.220000000000005 28.880000000000006 37.90500000000001 0 0 0
365 3 5.415000000000006 27.075000000000006 41.51500000000001 0 0 0
368 4 7.220000000000005 28.880000000000006 41.51500000000001 0 0 0
392 2 7.220000000000005 30.68500000000001 18.050000000000008 0 0 0
393 5 7.220000000000005 32.49000000000001 16.245000000000008 0 0 0
394 5 5.415000000000006 32.49000000000001 21.660000000000007 0 0 0
395 3 7.220000000000005 30.68500000000001 21.660000000000007 0 0 0
396 2 7.220000000000005 32.49000000000001 19.855000000000008 0 0 0
397 1 5.415000000000006 30.68500000000001 23.465000000000007 0 0 0
398 1 5.415000000000006 32.49000000000001 25.270000000000003 0 0 0
399 2 7.220000000000005 30.68500000000001 25.270000000000003 0 0 0
400 3 7.220000000000005 32.49000000000001 23.465000000000007 0 0 0
401 5 5.415000000000006 30.68500000000001 27.075000000000006 0 0 0
402 5 5.415000000000006 32.49000000000001 28.880000000000006 0 0 0
403 4 7.220000000000005 30.68500000000001 28.880000000000006 0 0 0
404 3 7.220000000000005 32.49000000000001 27.075000000000006 0 0 0
405 5 5.415000000000006 30.68500000000001 30.68500000000001 0 0 0
406 3 5.415000000000006 32.49000000000001 32.49000000000001 0 0 0
407 1 7.220000000000005 30.68500000000001 32.49000000000001 0 0 0
408 4 7.220000000000005 32.49000000000001 30.68500000000001 0 0 0
409 1 5.415000000000006 30.68500000000001 34.29500000000001 0 0 0
410 1 5.415000000000006 32.49000000000001 36.10000000000001 0 0 0
411 5 7.220000000000005 30.68500000000001 36.10000000000001 0 0 0
412 1 7.220000000000005 32.49000000000001 34.29500000000001 0 0 0
413 5 5.415000000000006 30.68500000000001 37.90500000000001 0 0 0
414 5 5.415000000000006 32.49000000000001 39.71000000000001 0 0 0
415 1 7.220000000000005 30.68500000000001 39.71000000000001 0 0 0
416 2 7.220000000000005 32.49000000000001 37.90500000000001 0 0 0
417 1 5.415000000000006 30.68500000000001 41.51500000000001 0 0 0
420 3 7.220000000000005 32.49000000000001 41.51500000000001 0 0 0
444 1 7.220000000000005 34.29500000000001 18.050000000000008 0 0 0
445 4 7.220000000000005 36.10000000000001 16.245000000000008 0 0 0
446 3 5.415000000000006 36.10000000000001 21.660000000000007 0 0 0
447 4 7.220000000000005 34.29500000000001 21.660000000000007 0 0 0
448 3 7.220000000000005 36.10000000000001 19.855000000000008 0 0 0
449 1 5.415000000000006 34.29500000000001 23.465000000000007 0 0 0
450 3 5.415000000000006 36.10000000000001 25.270000000000003 0 0 0
451 2 7.220000000000005 34.29500000000001 25.270000000000003 0 0 0
452 3 7.220000000000005 36.10000000000001 23.465000000000007 0 0 0
453 5 5.415000000000006 34.29500000000001 27.075000000000006 0 0 0
454 1 5.415000000000006 36.10000000000001 28.880000000000006 0 0 0
455 1 7.220000000000005 34.29500000000001 28.880000000000006 0 0 0
456 2 7.220000000000005 36.10000000000001 27.075000000000006 0 0 0
457 3 5.415000000000006 34.29500000000001 30.68500000000001 0 0 0
458 2 5.415000000000006 36.10000000000001 32.49000000000001 0 0 0
459 5 7.220000000000005 34.29500000000001 32.49000000000001 0 0 0
460 4 7.220000000000005 36.10000000000001 30.68500000000001 0 0 0
461 1 5.415000000000006 34.29500000000001 34.29500000000001 0 0 0
462 2 5.415000000000006 36.10000000000001 36.10000000000001 0 0 0
463 3 7.220000000000005 34.29500000000001 36.10000000000001 0 0 0
464 2 7.220000000000005 36.10000000000001 34.29500000000001 0 0 0
465 4 5.415000000000006 34.29500000000001 37.90500000000001 0 0 0
466 4 5.415000000000006 36.10000000000001 39.71000000000001 0 0 0
467 1 7.220000000000005 34.29500000000001 39.71000000000001 0 0 0
468 5 7.220000000000005 36.10000000000001 37.90500000000001 0 0 0
469 4 5.415000000000006 34.29500000000001 41.51500000000001 0 0 0
472 3 7.220000000000005 36.10000000000001 41.51500000000001 0 0 0
496 5 7.220000000000005 37.90500000000001 18.050000000000008 0 0 0
497 4 7.220000000000005 39.71000000000001 16.245000000000008 0 0 0
498 4 5.415000000000006 39.71000000000001 21.660000000000007 0 0 0
499 5 7.220000000000005 37.90500000000001 21.660000000000007 0 0 0
500 4 7.220000000000005 39.71000000000001 19.855000000000008 0 0 0
501 4 5.415000000000006 37.90500000000001 23.465000000000007 0 0 0
502 3 5.415000000000006 39.71000000000001 25.270000000000003 0 0 0
503 5 7.220000000000005 37.90500000000001 25.270000000000003 0 0 0
504 5 7.220000000000005 39.71000000000001 23.465000000000007 0 0 0
505 4 5.415000000000006 37.90500000000001 27.075000000000006 0 0 0
506 3 5.415000000000006 39.71000000000001 28.880000000000006 0 0 0
507 4 7.220000000000005 37.90500000000001 28.880000000000006 0 0 0
508 1 7.220000000000005 39.71000000000001 27.075000000000006 0 0 0
509 4 5.415000000000006 37.90500000000001 30.68500000000001 0 0 0
510 5 5.415000000000006 39.71000000000001 32.49000000000001 0 0 0
511 2 7.220000000000005 37.90500000000001 32.49000000000001 0 0 0
512 4 7.220000000000005 39.71000000000001 30.68500000000001 0 0 0
513 2 5.415000000000006 37.90500000000001 34.29500000000001 0 0 0
514 3 5.415000000000006 39.71000000000001 36.10000000000001 0 0 0
515 4 7.220000000000005 37.90500000000001 36.10000000000001 0 0 0
516 4 7.220000000000005 39.71000000000001 34.29500000000001 0 0 0
517 1 5.415000000000006 37.90500000000001 37.90500000000001 0 0 0
518 1 5.415000000000006 39.71000000000001 39.71000000000001 0 0 0
519 1 7.220000000000005 37.90500000000001 39.71000000000001 0 0 0
520 2 7.220000000000005 39.71000000000001 37.90500000000001 0 0 0
521 5 5.415000000000006 37.90500000000001 41.51500000000001 0 0 0
524 5 7.220000000000005 39.71000000000001 41.51500000000001 0 0 0
548 1 7.220000000000005 41.51500000000001 18.050000000000008 0 0 0
551 3 7.220000000000005 41.51500000000001 21.660000000000007 0 0 0
553 2 5.415000000000006 41.51500000000001 23.465000000000007 0 0 0
555 5 7.220000000000005 41.51500000000001 25.270000000000003 0 0 0
557 3 5.415000000000006 41.51500000000001 27.075000000000006 0 0 0
559 4 7.220000000000005 41.51500000000001 28.880000000000006 0 0 0
561 5 5.415000000000006 41.51500000000001 30.68500000000001 0 0 0
563 2 7.220000000000005 41.51500000000001 32.49000000000001 0 0 0
565 3 5.415000000000006 41.51500000000001 34.29500000000001 0 0 0
567 5 7.220000000000005 41.51500000000001 36.10000000000001 0 0 0
569 3 5.415000000000006 41.51500000000001 37.90500000000001 0 0 0
571 2 7.220000000000005 41.51500000000001 39.71000000000001 0 0 0
573 3 5.415000000000006 41.51500000000001 41.51500000000001 0 0 0
903 2 9.025000000000006 10.830000000000005 10.830000000000005 0 0 0
904 5 10.830000000000005 9.025000000000006 10.830000000000005 0 0 0
905 2 10.830000000000005 10.830000000000005 9.025000000000006 0 0 0
906 2 9.025000000000006 10.830000000000005 14.440000000000008 0 0 0
907 1 10.830000000000005 9.025000000000006 14.440000000000008 0 0 0
908 5 10.830000000000005 10.830000000000005 12.635000000000005 0 0 0
909 3 9.025000000000006 10.830000000000005 18.050000000000008 0 0 0
910 1 10.830000000000005 9.025000000000006 18.050000000000008 0 0 0
911 2 10.830000000000005 10.830000000000005 16.245000000000008 0 0 0
912 1 9.025000000000006 10.830000000000005 21.660000000000007 0 0 0
913 2 10.830000000000005 9.025000000000006 21.660000000000007 0 0 0
914 1 10.830000000000005 10.830000000000005 19.855000000000008 0 0 0
915 4 9.025000000000006 10.830000000000005 25.270000000000003 0 0 0
916 4 10.830000000000005 9.025000000000006 25.270000000000003 0 0 0
917 5 10.830000000000005 10.830000000000005 23.465000000000007 0 0 0
918 3 9.025000000000006 10.830000000000005 28.880000000000006 0 0 0
919 2 10.830000000000005 9.025000000000006 28.880000000000006 0 0 0
920 5 10.830000000000005 10.830000000000005 27.075000000000006 0 0 0
921 2 9.025000000000006 10.830000000000005 32.49000000000001 0 0 0
922 1 10.830000000000005 9.025000000000006 32.49000000000001 0 0 0
923 1 10.830000000000005 10.830000000000005 30.68500000000001 0 0 0
924 1 9.025000000000006 10.830000000000005 36.10000000000001 0 0 0
925 3 10.830000000000005 9.025000000000006 36.10000000000001 0 0 0
926 1 10.830000000000005 10.830000000000005 34.29500000000001 0 0 0
927 3 9.025000000000006 10.830000000000005 39.71000000000001 0 0 0
928 2 10.830000000000005 9.025000000000006 39.71000000000001 0 0 0
929 2 10.830000000000005 10.830000000000005 37.90500000000001 0 0 0
932 1 10.830000000000005 10.830000000000005 41.51500000000001 0 0 0
958 4 9.025000000000006 14.440000000000008 10.830000000000005 0 0 0
959 5 10.830000000000005 12.635000000000005 10.830000000000005 0 0 0
960 1 10.830000000000005 14.440000000000008 9.025000000000006 0 0 0
961 4 9.025000000000006 12.635000000000005 12.635000000000005 0 0 0
962 2 9.025000000000006 14.440000000000008 14.440000000000008 0 0 0
963 1 10.830000000000005 12.635000000000005 14.440000000000008 0 0 0
964 1 10.830000000000005 14.440000000000008 12.635000000000005 0 0 0
965 5 9.025000000000006 12.635000000000005 16.245000000000008 0 0 0
966 1 9.025000000000006 14.440000000000008 18.050000000000008 0 0 0
967 2 10.830000000000005 12.635000000000005 18.050000000000008 0 0 0
968 1 10.830000000000005 14.440000000000008 16.245000000000008 0 0 0
969 1 9.025000000000006 12.635000000000005 19.855000000000008 0 0 0
970 5 9.025000000000006 14.440000000000008 21.660000000000007 0 0 0
971 3 10.830000000000005 12.635000000000005 21.660000000000007 0 0 0
972 4 10.830000000000005 14.440000000000008 19.855000000000008 0 0 0
973 1 9.025000000000006 12.635000000000005 23.465000000000007 0 0 0
974 5 9.025000000000006 14.440000000000008 25.270000000000003 0 0 0
975 5 10.830000000000005 12.635000000000005 25.270000000000003 0 0 0
976 2 10.830000000000005 14.440000000000008 23.465000000000007 0 0 0
977 4 9.025000000000006 12.635000000000005 27.075000000000006 0 0 0
978 4 9.025000000000006 14.440000000000008 28.880000000000006 0 0 0
979 1 10.830000000000005 12.635000000000005 28.880000000000006 0 0 0
980 5 10.830000000000005 14.440000000000008 27.075000000000006 0 0 0
981 4 9.025000000000006 12.635000000000005 30.68500000000001 0 0 0
982 3 9.025000000000006 14.440000000000008 32.49000000000001 0 0 0
983 4 10.830000000000005 12.635000000000005 32.49000000000001 0 0 0
984 2 10.830000000000005 14.440000000000008 30.68500000000001 0 0 0
985 5 9.025000000000006 12.635000000000005 34.29500000000001 0 0 0
986 2 9.025000000000006 14.440000000000008 36.10000000000001 0 0 0
987 5 10.830000000000005 12.635000000000005 36.10000000000001 0 0 0
988 1 10.830000000000005 14.440000000000008 34.29500000000001 0 0 0
989 4 9.025000000000006 12.635000000000005 37.90500000000001 0 0 0
990 2 9.025000000000006 14.440000000000008 39.71000000000001 0 0 0
991 1 10.830000000000005 12.635000000000005 39.71000000000001 0 0 0
992 1 10.830000000000005 14.440000000000008 37.90500000000001 0 0 0
993 3 9.025000000000006 12.635000000000005 41.51500000000001 0 0 0
996 4 10.830000000000005 14.440000000000008 41.51500000000001 0 0 0
1030 3 9.025000000000006 18.050000000000008 10.830000000000005 0 0 0
1031 3 10.830000000000005 16.245000000000008 10.830000000000005 0 0 0
1032 4 10.830000000000005 18.050000000000008 9.025000000000006 0 0 0
1033 5 9.025000000000006 16.245000000000008 12.635000000000005 0 0 0
1034 4 9.025000000000006 18.050000000000008 14.440000000000008 0 0 0
1035 3 10.830000000000005 16.245000000000008 14.440000000000008 0 0 0
1036 5 10.830000000000005 18.050000000000008 12.635000000000005 0 0 0
1037 1 9.025000000000006 16.245000000000008 16.245000000000008 0 0 0
1038 2 9.025000000000006 18.050000000000008 18.050000000000008 0 0 0
1039 5 10.830000000000005 16.245000000000008 18.050000000000008 0 0 0
1040 1 10.830000000000005 18.050000000000008 16.245000000000008 0 0 0
1041 3 9.025000000000006 16.245000000000008 19.855000000000008 0 0 0
1042 4 9.025000000000006 18.050000000000008 21.660000000000007 0 0 0
1043 1 10.830000000000005 16.245000000000008 21.660000000000007 0 0 0
1044 4 10.830000000000005 18.050000000000008 19.855000000000008 0 0 0
1045 2 9.025000000000006 16.245000000000008 23.465000000000007 0 0 0
1046 3 9.025000000000006 18.050000000000008 25.270000000000003 0 0 0
1047 2 10.830000000000005 16.245000000000008 25.270000000000003 0 0 0
1048 4 10.830000000000005 18.050000000000008 23.465000000000007 0 0 0
1049 2 9.025000000000006 16.245000000000008 27.075000000000006 0 0 0
1050 1 9.025000000000006 18.050000000000008 28.880000000000006 0 0 0
1051 5 10.830000000000005 16.245000000000008 28.880000000000006 0 0 0
1052 5 10.830000000000005 18.050000000000008 27.075000000000006 0 0 0
1053 2 9.025000000000006 16.245000000000008 30.68500000000001 0 0 0
1054 1 9.025000000000006 18.050000000000008 32.49000000000001 0 0 0
1055 5 10.830000000000005 16.245000000000008 32.49000000000001 0 0 0
1056 2 10.830000000000005 18.050000000000008 30.68500000000001 0 0 0
1057 3 9.025000000000006 16.245000000000008 34.29500000000001 0 0 0
1058 4 9.025000000000006 18.050000000000008 36.10000000000001 0 0 0
1059 5 10.830000000000005 16.245000000000008 36.10000000000001 0 0 0
1060 3 10.830000000000005 18.050000000000008 34.29500000000001 0 0 0
1061 2 9.025000000000006 16.245000000000008 37.90500000000001 0 0 0
1062 1 9.025000000000006 18.050000000000008 39.71000000000001 0 0 0
1063 5 10.830000000000005 16.245000000000008 39.71000000000001 0 0 0
1064 3 10.830000000000005 18.050000000000008 37.90500000000001 0 0 0
1065 3 9.025000000000006 16.245000000000008 41.51500000000001 0 0 0
1068 5 10.830000000000005 18.050000000000008 41.51500000000001 0 0 0
1102 5 9.025000000000006 21.660000000000007 10.830000000000005 0 0 0
1103 2 10.830000000000005 19.855000000000008 10.830000000000005 0 0 0
1104 2 10.830000000000005 21.660000000000007 9.025000000000006 0 0 0
1105 1 9.025000000000006 19.855000000000008 12.635000000000005 0 0 0
1106 2 9.025000000000006 21.660000000000007 14.440000000000008 0 0 0
1107 5 10.830000000000005 19.855000000000008 14.440000000000008 0 0 0
1108 5 10.830000000000005 21.660000000000007 12.635000000000005 0 0 0
1109 2 9.025000000000006 19.855000000000008 16.245000000000008 0 0 0
1110 2 9.025000000000006 21.660000000000007 18.050000000000008 0 0 0
1111 3 10.830000000000005 19.855000000000008 18.050000000000008 0 0 0
1112 2 10.830000000000005 21.660000000000007 16.245000000000008 0 0 0
1113 1 9.025000000000006 19.855000000000008 19.855000000000008 0 0 0
1114 3 9.025000000000006 21.660000000000007 21.660000000000007 0 0 0
1115 1 10.830000000000005 19.855000000000008 21.660000000000007 0 0 0
1116 3 10.830000000000005 21.660000000000007 19.855000000000008 0 0 0
1117 3 9.025000000000006 19.855000000000008 23.465000000000007 0 0 0
1118 3 9.025000000000006 21.660000000000007 25.270000000000003 0 0 0
1119 3 10.830000000000005 19.855000000000008 25.270000000000003 0 0 0
1120 2 10.830000000000005 21.660000000000007 23.465000000000007 0 0 0
1121 5 9.025000000000006 19.855000000000008 27.075000000000006 0 0 0
1122 4 9.025000000000006 21.660000000000007 28.880000000000006 0 0 0
1123 4 10.830000000000005 19.855000000000008 28.880000000000006 0 0 0
1124 3 10.830000000000005 21.660000000000007 27.075000000000006 0 0 0
1125 2 9.025000000000006 19.855000000000008 30.68500000000001 0 0 0
1126 1 9.025000000000006 21.660000000000007 32.49000000000001 0 0 0
1127 3 10.830000000000005 19.855000000000008 32.49000000000001 0 0 0
1128 3 10.830000000000005 21.660000000000007 30.68500000000001 0 0 0
1129 3 9.025000000000006 19.855000000000008 34.29500000000001 0 0 0
1130 2 9.025000000000006 21.660000000000007 36.10000000000001 0 0 0
1131 1 10.830000000000005 19.855000000000008 36.10000000000001 0 0 0
1132 5 10.830000000000005 21.660000000000007 34.29500000000001 0 0 0
1133 2 9.025000000000006 19.855000000000008 37.90500000000001 0 0 0
1134 3 9.025000000000006 21.660000000000007 39.71000000000001 0 0 0
1135 5 10.830000000000005 19.855000000000008 39.71000000000001 0 0 0
1136 1 10.830000000000005 21.660000000000007 37.90500000000001 0 0 0
1137 5 9.025000000000006 19.855000000000008 41.51500000000001 0 0 0
1140 2 10.830000000000005 21.660000000000007 41.51500000000001 0 0 0
1174 1 9.025000000000006 25.270000000000003 10.830000000000005 0 0 0
1175 1 10.830000000000005 23.465000000000007 10.830000000000005 0 0 0
1176 3 10.830000000000005 25.270000000000003 9.025000000000006 0 0 0
1177 3 9.025000000000006 23.465000000000007 12.635000000000005 0 0 0
1178 4 9.025000000000006 25.270000000000003 14.440000000000008 0 0 0
1179 1 10.830000000000005 23.465000000000007 14.440000000000008 0 0 0
1180 2 10.830000000000005 25.270000000000003 12.635000000000005 0 0 0
1181 5 9.025000000000006 23.465000000000007 16.245000000000008 0 0 0
1182 3 9.025000000000006 25.270000000000003 18.050000000000008 0 0 0
1183 1 10.830000000000005 23.465000000000007 18.050000000000008 0 0 0
1184 5 10.830000000000005 25.270000000000003 16.245000000000008 0 0 0
1185 2 9.025000000000006 23.465000000000007 19.855000000000008 0 0 0
1186 1 9.025000000000006 25.270000000000003 21.660000000000007 0 0 0
1187 4 10.830000000000005 23.465000000000007 21.660000000000007 0 0 0
1188 5 10.830000000000005 25.270000000000003 19.855000000000008 0 0 0
1189 4 9.025000000000006 23.465000000000007 23.465000000000007 0 0 0
1190 3 9.025000000000006 25.270000000000003 25.270000000000003 0 0 0
1191 4 10.830000000000005 23.465000000000007 25.270000000000003 0 0 0
1192 4 10.830000000000005 25.270000000000003 23.465000000000007 0 0 0
1193 4 9.025000000000006 23.465000000000007 27.075000000000006 0 0 0
1194 1 9.025000000000006 25.270000000000003 28.880000000000006 0 0 0
1195 2 10.830000000000005 23.465000000000007 28.880000000000006 0 0 0
1196 3 10.830000000000005 25.270000000000003 27.075000000000006 0 0 0
1197 2 9.025000000000006 23.465000000000007 30.68500000000001 0 0 0
1198 1 9.025000000000006 25.270000000000003 32.49000000000001 0 0 0
1199 2 10.830000000000005 23.465000000000007 32.49000000000001 0 0 0
1200 5 10.830000000000005 25.270000000000003 30.68500000000001 0 0 0
1201 3 9.025000000000006 23.465000000000007 34.29500000000001 0 0 0
1202 1 9.025000000000006 25.270000000000003 36.10000000000001 0 0 0
1203 5 10.830000000000005 23.465000000000007 36.10000000000001 0 0 0
1204 1 10.830000000000005 25.270000000000003 34.29500000000001 0 0 0
1205 3 9.025000000000006 23.465000000000007 37.90500000000001 0 0 0
1206 5 9.025000000000006 25.270000000000003 39.71000000000001 0 0 0
1207 3 10.830000000000005 23.465000000000007 39.71000000000001 0 0 0
1208 4 10.830000000000005 25.270000000000003 37.90500000000001 0 0 0
1209 1 9.025000000000006 23.465000000000007 41.51500000000001 0 0 0
1212 2 10.830000000000005 25.270000000000003 41.51500000000001 0 0 0
1246 3 9.025000000000006 28.880000000000006 10.830000000000005 0 0 0
1247 1 10.830000000000005 27.075000000000006 10.830000000000005 0 0 0
1248 4 10.830000000000005 28.880000000000006 9.025000000000006 0 0 0
1249 1 9.025000000000006 27.075000000000006 12.635000000000005 0 0 0
1250 4 9.025000000000006 28.880000000000006 14.440000000000008 0 0 0
1251 2 10.830000000000005 27.075000000000006 14.440000000000008 0 0 0
1252 3 10.830000000000005 28.880000000000006 12.635000000000005 0 0 0
1253 4 9.025000000000006 27.075000000000006 16.245000000000008 0 0 0
1254 1 9.025000000000006 28.880000000000006 18.050000000000008 0 0 0
1255 4 10.830000000000005 27.075000000000006 18.050000000000008 0 0 0
1256 1 10.830000000000005 28.880000000000006 16.245000000000008 0 0 0
1257 2 9.025000000000006 27.075000000000006 19.855000000000008 0 0 0
1258 4 9.025000000000006 28.880000000000006 21.660000000000007 0 0 0
1259 4 10.830000000000005 27.075000000000006 21.660000000000007 0 0 0
1260 1 10.830000000000005 28.880000000000006 19.855000000000008 0 0 0
1261 4 9.025000000000006 27.075000000000006 23.465000000000007 0 0 0
1262 1 9.025000000000006 28.880000000000006 25.270000000000003 0 0 0
1263 3 10.830000000000005 27.075000000000006 25.270000000000003 0 0 0