model_files/NiFeCrCoAl/NiFeCrCoAl_30000/NiFeCrCoAl_310/NiFeCrCoAl_310_fcc_30527_temp.data (written by ASE) 

30527 	 atoms 
5  atom types
0.0                      85  xlo xhi
0.0                      85  ylo yhi
0.0                      85  zlo zhi


Atoms 

     1   1  7.1054273576010019e-15      37.905000000000008      39.710000000000008
     2   1  7.1054273576010019e-15      39.710000000000008      37.905000000000008
     3   1  7.1054273576010019e-15      37.905000000000008                   43.32
     4   1  7.1054273576010019e-15      39.710000000000008      41.515000000000008
     5   1  7.1054273576010019e-15      39.710000000000008      45.125000000000007
     6   1  7.1054273576010019e-15      41.515000000000008      39.710000000000008
     7   1  7.1054273576010019e-15                   43.32      37.905000000000008
     8   1  7.1054273576010019e-15      41.515000000000008                   43.32
     9   1  7.1054273576010019e-15                   43.32      41.515000000000008
    10   1  7.1054273576010019e-15                   43.32      45.125000000000007
    11   1  7.1054273576010019e-15      45.125000000000007      39.710000000000008
    12   1  7.1054273576010019e-15      45.125000000000007                   43.32
    13   1       3.610000000000007      27.075000000000006      28.880000000000006
    14   1       3.610000000000007      28.880000000000006      27.075000000000006
    15   1       3.610000000000007      27.075000000000006      32.490000000000009
    16   1       3.610000000000007      28.880000000000006      30.685000000000009
    17   1       3.610000000000007      27.075000000000006      36.100000000000009
    18   1       3.610000000000007      28.880000000000006      34.295000000000009
    19   1       3.610000000000007      27.075000000000006      39.710000000000008
    20   1       3.610000000000007      28.880000000000006      37.905000000000008
    21   1       3.610000000000007      27.075000000000006                   43.32
    22   1       3.610000000000007      28.880000000000006      41.515000000000008
    23   1       3.610000000000007      27.075000000000006      46.930000000000007
    24   1       3.610000000000007      28.880000000000006      45.125000000000007
    25   1       3.610000000000007      27.075000000000006      50.540000000000006
    26   1       3.610000000000007      28.880000000000006      48.734999999999999
    27   1       3.610000000000007      27.075000000000006      54.149999999999999
    28   1       3.610000000000007      28.880000000000006      52.345000000000006
    29   1       3.610000000000007      28.880000000000006      55.955000000000005
    30   1       3.610000000000007      30.685000000000009      28.880000000000006
    31   1       3.610000000000007      32.490000000000009      27.075000000000006
    32   1      1.8050000000000068      32.490000000000009      32.490000000000009
    33   1       3.610000000000007      30.685000000000009      32.490000000000009
    34   1       3.610000000000007      32.490000000000009      30.685000000000009
    35   1      1.8050000000000068      32.490000000000009      36.100000000000009
    36   1       3.610000000000007      30.685000000000009      36.100000000000009
    37   1       3.610000000000007      32.490000000000009      34.295000000000009
    38   1      1.8050000000000068      32.490000000000009      39.710000000000008
    39   1       3.610000000000007      30.685000000000009      39.710000000000008
    40   1       3.610000000000007      32.490000000000009      37.905000000000008
    41   1      1.8050000000000068      32.490000000000009                   43.32
    42   1       3.610000000000007      30.685000000000009                   43.32
    43   1       3.610000000000007      32.490000000000009      41.515000000000008
    44   1      1.8050000000000068      32.490000000000009      46.930000000000007
    45   1       3.610000000000007      30.685000000000009      46.930000000000007
    46   1       3.610000000000007      32.490000000000009      45.125000000000007
    47   1      1.8050000000000068      32.490000000000009      50.540000000000006
    48   1       3.610000000000007      30.685000000000009      50.540000000000006
    49   1       3.610000000000007      32.490000000000009      48.734999999999999
    50   1       3.610000000000007      30.685000000000009      54.149999999999999
    51   1       3.610000000000007      32.490000000000009      52.345000000000006
    52   1       3.610000000000007      32.490000000000009      55.955000000000005
    53   1       3.610000000000007      34.295000000000009      28.880000000000006
    54   1       3.610000000000007      36.100000000000009      27.075000000000006
    55   1      1.8050000000000068      36.100000000000009      32.490000000000009
    56   1       3.610000000000007      34.295000000000009      32.490000000000009
    57   1       3.610000000000007      36.100000000000009      30.685000000000009
    58   1      1.8050000000000068      34.295000000000009      34.295000000000009
    59   1      1.8050000000000068      36.100000000000009      36.100000000000009
    60   1       3.610000000000007      34.295000000000009      36.100000000000009
    61   1       3.610000000000007      36.100000000000009      34.295000000000009
    62   1      1.8050000000000068      34.295000000000009      37.905000000000008
    63   1      1.8050000000000068      36.100000000000009      39.710000000000008
    64   1       3.610000000000007      34.295000000000009      39.710000000000008
    65   1       3.610000000000007      36.100000000000009      37.905000000000008
    66   1      1.8050000000000068      34.295000000000009      41.515000000000008
    67   1      1.8050000000000068      36.100000000000009                   43.32
    68   1       3.610000000000007      34.295000000000009                   43.32
    69   1       3.610000000000007      36.100000000000009      41.515000000000008
    70   1      1.8050000000000068      34.295000000000009      45.125000000000007
    71   1      1.8050000000000068      36.100000000000009      46.930000000000007
    72   1       3.610000000000007      34.295000000000009      46.930000000000007
    73   1       3.610000000000007      36.100000000000009      45.125000000000007
    74   1      1.8050000000000068      34.295000000000009      48.734999999999999
    75   1      1.8050000000000068      36.100000000000009      50.540000000000006
    76   1       3.610000000000007      34.295000000000009      50.540000000000006
    77   1       3.610000000000007      36.100000000000009      48.734999999999999
    78   1       3.610000000000007      34.295000000000009      54.149999999999999
    79   1       3.610000000000007      36.100000000000009      52.345000000000006
    80   1       3.610000000000007      36.100000000000009      55.955000000000005
    81   1       3.610000000000007      37.905000000000008      28.880000000000006
    82   1       3.610000000000007      39.710000000000008      27.075000000000006
    83   1      1.8050000000000068      39.710000000000008      32.490000000000009
    84   1       3.610000000000007      37.905000000000008      32.490000000000009
    85   1       3.610000000000007      39.710000000000008      30.685000000000009
    86   1      1.8050000000000068      37.905000000000008      34.295000000000009
    87   1      1.8050000000000068      39.710000000000008      36.100000000000009
    88   1       3.610000000000007      37.905000000000008      36.100000000000009
    89   1       3.610000000000007      39.710000000000008      34.295000000000009
    90   1      1.8050000000000068      37.905000000000008      37.905000000000008
    91   1      1.8050000000000068      39.710000000000008      39.710000000000008
    92   1       3.610000000000007      37.905000000000008      39.710000000000008
    93   1       3.610000000000007      39.710000000000008      37.905000000000008
    94   1      1.8050000000000068      37.905000000000008      41.515000000000008
    95   1      1.8050000000000068      39.710000000000008                   43.32
    96   1       3.610000000000007      37.905000000000008                   43.32
    97   1       3.610000000000007      39.710000000000008      41.515000000000008
    98   1      1.8050000000000068      37.905000000000008      45.125000000000007
    99   1      1.8050000000000068      39.710000000000008      46.930000000000007
   100   1       3.610000000000007      37.905000000000008      46.930000000000007
   101   1       3.610000000000007      39.710000000000008      45.125000000000007
   102   1      1.8050000000000068      37.905000000000008      48.734999999999999
   103   1      1.8050000000000068      39.710000000000008      50.540000000000006
   104   1       3.610000000000007      37.905000000000008      50.540000000000006
   105   1       3.610000000000007      39.710000000000008      48.734999999999999
   106   1       3.610000000000007      37.905000000000008      54.149999999999999
   107   1       3.610000000000007      39.710000000000008      52.345000000000006
   108   1       3.610000000000007      39.710000000000008      55.955000000000005
   109   1       3.610000000000007      41.515000000000008      28.880000000000006
   110   1       3.610000000000007                   43.32      27.075000000000006
   111   1      1.8050000000000068                   43.32      32.490000000000009
   112   1       3.610000000000007      41.515000000000008      32.490000000000009
   113   1       3.610000000000007                   43.32      30.685000000000009
   114   1      1.8050000000000068      41.515000000000008      34.295000000000009
   115   1      1.8050000000000068                   43.32      36.100000000000009
   116   1       3.610000000000007      41.515000000000008      36.100000000000009
   117   1       3.610000000000007                   43.32      34.295000000000009
   118   1      1.8050000000000068      41.515000000000008      37.905000000000008
   119   1      1.8050000000000068                   43.32      39.710000000000008
   120   1       3.610000000000007      41.515000000000008      39.710000000000008
   121   1       3.610000000000007                   43.32      37.905000000000008
   122   1      1.8050000000000068      41.515000000000008      41.515000000000008
   123   1      1.8050000000000068                   43.32                   43.32
   124   1       3.610000000000007      41.515000000000008                   43.32
   125   1       3.610000000000007                   43.32      41.515000000000008
   126   1      1.8050000000000068      41.515000000000008      45.125000000000007
   127   1      1.8050000000000068                   43.32      46.930000000000007
   128   1       3.610000000000007      41.515000000000008      46.930000000000007
   129   1       3.610000000000007                   43.32      45.125000000000007
   130   1      1.8050000000000068      41.515000000000008      48.734999999999999
   131   1      1.8050000000000068                   43.32      50.540000000000006
   132   1       3.610000000000007      41.515000000000008      50.540000000000006
   133   1       3.610000000000007                   43.32      48.734999999999999
   134   1       3.610000000000007      41.515000000000008      54.149999999999999
   135   1       3.610000000000007                   43.32      52.345000000000006
   136   1       3.610000000000007                   43.32      55.955000000000005
   137   1       3.610000000000007      45.125000000000007      28.880000000000006
   138   1       3.610000000000007      46.930000000000007      27.075000000000006
   139   1      1.8050000000000068      46.930000000000007      32.490000000000009
   140   1       3.610000000000007      45.125000000000007      32.490000000000009
   141   1       3.610000000000007      46.930000000000007      30.685000000000009
   142   1      1.8050000000000068      45.125000000000007      34.295000000000009
   143   1      1.8050000000000068      46.930000000000007      36.100000000000009
   144   1       3.610000000000007      45.125000000000007      36.100000000000009
   145   1       3.610000000000007      46.930000000000007      34.295000000000009
   146   1      1.8050000000000068      45.125000000000007      37.905000000000008
   147   1      1.8050000000000068      46.930000000000007      39.710000000000008
   148   1       3.610000000000007      45.125000000000007      39.710000000000008
   149   1       3.610000000000007      46.930000000000007      37.905000000000008
   150   1      1.8050000000000068      45.125000000000007      41.515000000000008
   151   1      1.8050000000000068      46.930000000000007                   43.32
   152   1       3.610000000000007      45.125000000000007                   43.32
   153   1       3.610000000000007      46.930000000000007      41.515000000000008
   154   1      1.8050000000000068      45.125000000000007      45.125000000000007
   155   1      1.8050000000000068      46.930000000000007      46.930000000000007
   156   1       3.610000000000007      45.125000000000007      46.930000000000007
   157   1       3.610000000000007      46.930000000000007      45.125000000000007
   158   1      1.8050000000000068      45.125000000000007      48.734999999999999
   159   1      1.8050000000000068      46.930000000000007      50.540000000000006
   160   1       3.610000000000007      45.125000000000007      50.540000000000006
   161   1       3.610000000000007      46.930000000000007      48.734999999999999
   162   1       3.610000000000007      45.125000000000007      54.149999999999999
   163   1       3.610000000000007      46.930000000000007      52.345000000000006
   164   1       3.610000000000007      46.930000000000007      55.955000000000005
   165   1       3.610000000000007      48.734999999999999      28.880000000000006
   166   1       3.610000000000007      50.540000000000006      27.075000000000006
   167   1      1.8050000000000068      50.540000000000006      32.490000000000009
   168   1       3.610000000000007      48.734999999999999      32.490000000000009
   169   1       3.610000000000007      50.540000000000006      30.685000000000009
   170   1      1.8050000000000068      48.734999999999999      34.295000000000009
   171   1      1.8050000000000068      50.540000000000006      36.100000000000009
   172   1       3.610000000000007      48.734999999999999      36.100000000000009
   173   1       3.610000000000007      50.540000000000006      34.295000000000009
   174   1      1.8050000000000068      48.734999999999999      37.905000000000008
   175   1      1.8050000000000068      50.540000000000006      39.710000000000008
   176   1       3.610000000000007      48.734999999999999      39.710000000000008
   177   1       3.610000000000007      50.540000000000006      37.905000000000008
   178   1      1.8050000000000068      48.734999999999999      41.515000000000008
   179   1      1.8050000000000068      50.540000000000006                   43.32
   180   1       3.610000000000007      48.734999999999999                   43.32
   181   1       3.610000000000007      50.540000000000006      41.515000000000008
   182   1      1.8050000000000068      48.734999999999999      45.125000000000007
   183   1      1.8050000000000068      50.540000000000006      46.930000000000007
   184   1       3.610000000000007      48.734999999999999      46.930000000000007
   185   1       3.610000000000007      50.540000000000006      45.125000000000007
   186   1      1.8050000000000068      48.734999999999999      48.734999999999999
   187   1      1.8050000000000068      50.540000000000006      50.540000000000006
   188   1       3.610000000000007      48.734999999999999      50.540000000000006
   189   1       3.610000000000007      50.540000000000006      48.734999999999999
   190   1       3.610000000000007      48.734999999999999      54.149999999999999
   191   1       3.610000000000007      50.540000000000006      52.345000000000006
   192   1       3.610000000000007      50.540000000000006      55.955000000000005
   193   1       3.610000000000007      52.345000000000006      28.880000000000006
   194   1       3.610000000000007      54.149999999999999      27.075000000000006
   195   1       3.610000000000007      52.345000000000006      32.490000000000009
   196   1       3.610000000000007      54.149999999999999      30.685000000000009
   197   1       3.610000000000007      52.345000000000006      36.100000000000009
   198   1       3.610000000000007      54.149999999999999      34.295000000000009
   199   1       3.610000000000007      52.345000000000006      39.710000000000008
   200   1       3.610000000000007      54.149999999999999      37.905000000000008
   201   1       3.610000000000007      52.345000000000006                   43.32
   202   1       3.610000000000007      54.149999999999999      41.515000000000008
   203   1       3.610000000000007      52.345000000000006      46.930000000000007
   204   1       3.610000000000007      54.149999999999999      45.125000000000007
   205   1       3.610000000000007      52.345000000000006      50.540000000000006
   206   1       3.610000000000007      54.149999999999999      48.734999999999999
   207   1       3.610000000000007      52.345000000000006      54.149999999999999
   208   1       3.610000000000007      54.149999999999999      52.345000000000006
   209   1       3.610000000000007      54.149999999999999      55.955000000000005
   210   1       3.610000000000007      55.955000000000005      28.880000000000006
   211   1       3.610000000000007      55.955000000000005      32.490000000000009
   212   1       3.610000000000007      55.955000000000005      36.100000000000009
   213   1       3.610000000000007      55.955000000000005      39.710000000000008
   214   1       3.610000000000007      55.955000000000005                   43.32
   215   1       3.610000000000007      55.955000000000005      46.930000000000007
   216   1       3.610000000000007      55.955000000000005      50.540000000000006
   217   1       3.610000000000007      55.955000000000005      54.149999999999999
   218   1      7.2200000000000051      16.245000000000008      18.050000000000008
   219   1      7.2200000000000051      18.050000000000008      16.245000000000008
   220   1      7.2200000000000051      16.245000000000008      21.660000000000007
   221   1      7.2200000000000051      18.050000000000008      19.855000000000008
   222   1      7.2200000000000051      16.245000000000008      25.270000000000003
   223   1      7.2200000000000051      18.050000000000008      23.465000000000007
   224   1      7.2200000000000051      16.245000000000008      28.880000000000006
   225   1      7.2200000000000051      18.050000000000008      27.075000000000006
   226   1      7.2200000000000051      16.245000000000008      32.490000000000009
   227   1      7.2200000000000051      18.050000000000008      30.685000000000009
   228   1      7.2200000000000051      16.245000000000008      36.100000000000009
   229   1      7.2200000000000051      18.050000000000008      34.295000000000009
   230   1      7.2200000000000051      16.245000000000008      39.710000000000008
   231   1      7.2200000000000051      18.050000000000008      37.905000000000008
   232   1      7.2200000000000051      16.245000000000008                   43.32
   233   1      7.2200000000000051      18.050000000000008      41.515000000000008
   234   1      7.2200000000000051      16.245000000000008      46.930000000000007
   235   1      7.2200000000000051      18.050000000000008      45.125000000000007
   236   1      7.2200000000000051      16.245000000000008      50.540000000000006
   237   1      7.2200000000000051      18.050000000000008      48.734999999999999
   238   1      7.2200000000000051      16.245000000000008      54.149999999999999
   239   1      7.2200000000000051      18.050000000000008      52.345000000000006
   240   1      7.2200000000000051      16.245000000000008      57.760000000000005
   241   1      7.2200000000000051      18.050000000000008      55.955000000000005
   242   1      7.2200000000000051      16.245000000000008      61.370000000000005
   243   1      7.2200000000000051      18.050000000000008      59.564999999999998
   244   1      7.2200000000000051      16.245000000000008      64.980000000000018
   245   1      7.2200000000000051      18.050000000000008      63.175000000000011
   246   1      7.2200000000000051      18.050000000000008      66.785000000000011
   247   1      7.2200000000000051      19.855000000000008      18.050000000000008
   248   1      7.2200000000000051      21.660000000000007      16.245000000000008
   249   1      5.4150000000000063      21.660000000000007      21.660000000000007
   250   1      7.2200000000000051      19.855000000000008      21.660000000000007
   251   1      7.2200000000000051      21.660000000000007      19.855000000000008
   252   1      5.4150000000000063      21.660000000000007      25.270000000000003
   253   1      7.2200000000000051      19.855000000000008      25.270000000000003
   254   1      7.2200000000000051      21.660000000000007      23.465000000000007
   255   1      5.4150000000000063      21.660000000000007      28.880000000000006
   256   1      7.2200000000000051      19.855000000000008      28.880000000000006
   257   1      7.2200000000000051      21.660000000000007      27.075000000000006
   258   1      5.4150000000000063      21.660000000000007      32.490000000000009
   259   1      7.2200000000000051      19.855000000000008      32.490000000000009
   260   1      7.2200000000000051      21.660000000000007      30.685000000000009
   261   1      5.4150000000000063      21.660000000000007      36.100000000000009
   262   1      7.2200000000000051      19.855000000000008      36.100000000000009
   263   1      7.2200000000000051      21.660000000000007      34.295000000000009
   264   1      5.4150000000000063      21.660000000000007      39.710000000000008
   265   1      7.2200000000000051      19.855000000000008      39.710000000000008
   266   1      7.2200000000000051      21.660000000000007      37.905000000000008
   267   1      5.4150000000000063      21.660000000000007                   43.32
   268   1      7.2200000000000051      19.855000000000008                   43.32
   269   1      7.2200000000000051      21.660000000000007      41.515000000000008
   270   1      5.4150000000000063      21.660000000000007      46.930000000000007
   271   1      7.2200000000000051      19.855000000000008      46.930000000000007
   272   1      7.2200000000000051      21.660000000000007      45.125000000000007
   273   1      5.4150000000000063      21.660000000000007      50.540000000000006
   274   1      7.2200000000000051      19.855000000000008      50.540000000000006
   275   1      7.2200000000000051      21.660000000000007      48.734999999999999
   276   1      5.4150000000000063      21.660000000000007      54.149999999999999
   277   1      7.2200000000000051      19.855000000000008      54.149999999999999
   278   1      7.2200000000000051      21.660000000000007      52.345000000000006
   279   1      5.4150000000000063      21.660000000000007      57.760000000000005
   280   1      7.2200000000000051      19.855000000000008      57.760000000000005
   281   1      7.2200000000000051      21.660000000000007      55.955000000000005
   282   1      5.4150000000000063      21.660000000000007      61.370000000000005
   283   1      7.2200000000000051      19.855000000000008      61.370000000000005
   284   1      7.2200000000000051      21.660000000000007      59.564999999999998
   285   1      7.2200000000000051      19.855000000000008      64.980000000000018
   286   1      7.2200000000000051      21.660000000000007      63.175000000000011
   287   1      7.2200000000000051      21.660000000000007      66.785000000000011
   288   1      7.2200000000000051      23.465000000000007      18.050000000000008
   289   1      7.2200000000000051      25.270000000000003      16.245000000000008
   290   1      5.4150000000000063      25.270000000000003      21.660000000000007
   291   1      7.2200000000000051      23.465000000000007      21.660000000000007
   292   1      7.2200000000000051      25.270000000000003      19.855000000000008
   293   1      5.4150000000000063      23.465000000000007      23.465000000000007
   294   1      5.4150000000000063      25.270000000000003      25.270000000000003
   295   1      7.2200000000000051      23.465000000000007      25.270000000000003
   296   1      7.2200000000000051      25.270000000000003      23.465000000000007
   297   1      5.4150000000000063      23.465000000000007      27.075000000000006
   298   1      5.4150000000000063      25.270000000000003      28.880000000000006
   299   1      7.2200000000000051      23.465000000000007      28.880000000000006
   300   1      7.2200000000000051      25.270000000000003      27.075000000000006
   301   1      5.4150000000000063      23.465000000000007      30.685000000000009
   302   1      5.4150000000000063      25.270000000000003      32.490000000000009
   303   1      7.2200000000000051      23.465000000000007      32.490000000000009
   304   1      7.2200000000000051      25.270000000000003      30.685000000000009
   305   1      5.4150000000000063      23.465000000000007      34.295000000000009
   306   1      5.4150000000000063      25.270000000000003      36.100000000000009
   307   1      7.2200000000000051      23.465000000000007      36.100000000000009
   308   1      7.2200000000000051      25.270000000000003      34.295000000000009
   309   1      5.4150000000000063      23.465000000000007      37.905000000000008
   310   1      5.4150000000000063      25.270000000000003      39.710000000000008
   311   1      7.2200000000000051      23.465000000000007      39.710000000000008
   312   1      7.2200000000000051      25.270000000000003      37.905000000000008
   313   1      5.4150000000000063      23.465000000000007      41.515000000000008
   314   1      5.4150000000000063      25.270000000000003                   43.32
   315   1      7.2200000000000051      23.465000000000007                   43.32
   316   1      7.2200000000000051      25.270000000000003      41.515000000000008
   317   1      5.4150000000000063      23.465000000000007      45.125000000000007
   318   1      5.4150000000000063      25.270000000000003      46.930000000000007
   319   1      7.2200000000000051      23.465000000000007      46.930000000000007
   320   1      7.2200000000000051      25.270000000000003      45.125000000000007
   321   1      5.4150000000000063      23.465000000000007      48.734999999999999
   322   1      5.4150000000000063      25.270000000000003      50.540000000000006
   323   1      7.2200000000000051      23.465000000000007      50.540000000000006
   324   1      7.2200000000000051      25.270000000000003      48.734999999999999
   325   1      5.4150000000000063      23.465000000000007      52.345000000000006
   326   1      5.4150000000000063      25.270000000000003      54.149999999999999
   327   1      7.2200000000000051      23.465000000000007      54.149999999999999
   328   1      7.2200000000000051      25.270000000000003      52.345000000000006
   329   1      5.4150000000000063      23.465000000000007      55.955000000000005
   330   1      5.4150000000000063      25.270000000000003      57.760000000000005
   331   1      7.2200000000000051      23.465000000000007      57.760000000000005
   332   1      7.2200000000000051      25.270000000000003      55.955000000000005
   333   1      5.4150000000000063      23.465000000000007      59.564999999999998
   334   1      5.4150000000000063      25.270000000000003      61.370000000000005
   335   1      7.2200000000000051      23.465000000000007      61.370000000000005
   336   1      7.2200000000000051      25.270000000000003      59.564999999999998
   337   1      7.2200000000000051      23.465000000000007      64.980000000000018
   338   1      7.2200000000000051      25.270000000000003      63.175000000000011
   339   1      7.2200000000000051      25.270000000000003      66.785000000000011
   340   1      7.2200000000000051      27.075000000000006      18.050000000000008
   341   1      7.2200000000000051      28.880000000000006      16.245000000000008
   342   1      5.4150000000000063      28.880000000000006      21.660000000000007
   343   1      7.2200000000000051      27.075000000000006      21.660000000000007
   344   1      7.2200000000000051      28.880000000000006      19.855000000000008
   345   1      5.4150000000000063      27.075000000000006      23.465000000000007
   346   1      5.4150000000000063      28.880000000000006      25.270000000000003
   347   1      7.2200000000000051      27.075000000000006      25.270000000000003
   348   1      7.2200000000000051      28.880000000000006      23.465000000000007
   349   1      5.4150000000000063      27.075000000000006      27.075000000000006
   350   1      5.4150000000000063      28.880000000000006      28.880000000000006
   351   1      7.2200000000000051      27.075000000000006      28.880000000000006
   352   1      7.2200000000000051      28.880000000000006      27.075000000000006
   353   1      5.4150000000000063      27.075000000000006      30.685000000000009
   354   1      5.4150000000000063      28.880000000000006      32.490000000000009
   355   1      7.2200000000000051      27.075000000000006      32.490000000000009
   356   1      7.2200000000000051      28.880000000000006      30.685000000000009
   357   1      5.4150000000000063      27.075000000000006      34.295000000000009
   358   1      5.4150000000000063      28.880000000000006      36.100000000000009