model_files/PtCu/PtCu_30000/PtCu_221/PtCu_221_fcc_29329_temp.data (written by ASE) 

29329 	 atoms 
2  atom types
0.0                     125  xlo xhi
0.0                     125  ylo yhi
0.0                     125  zlo zhi


Atoms 

     1   1      1.9249999999999901       59.67499999999999      61.599999999999994
     2   1      1.9249999999999901      61.599999999999994       59.67499999999999
     3   1      124.99999999999999      61.599999999999994      61.599999999999994
     4   1      1.9249999999999901      61.599999999999994      63.524999999999999
     5   1      1.9249999999999901      63.524999999999999      61.599999999999994
     6   1      5.7749999999999924      55.824999999999996      57.749999999999993
     7   1      5.7749999999999924      55.824999999999996      61.599999999999994
     8   1      5.7749999999999924      55.824999999999996      65.449999999999989
     9   1      5.7749999999999924      57.749999999999993      55.824999999999996
    10   1      3.8499999999999943      57.749999999999993      57.749999999999993
    11   1      3.8499999999999943       59.67499999999999       59.67499999999999
    12   1      5.7749999999999924      57.749999999999993       59.67499999999999
    13   1      5.7749999999999924       59.67499999999999      57.749999999999993
    14   1      3.8499999999999943      57.749999999999993      61.599999999999994
    15   1      3.8499999999999943       59.67499999999999      63.524999999999999
    16   1      5.7749999999999924      57.749999999999993      63.524999999999999
    17   1      5.7749999999999924       59.67499999999999      61.599999999999994
    18   1      3.8499999999999943      57.749999999999993      65.449999999999989
    19   1      5.7749999999999924      57.749999999999993      67.374999999999986
    20   1      5.7749999999999924       59.67499999999999      65.449999999999989
    21   1      5.7749999999999924      61.599999999999994      55.824999999999996
    22   1      3.8499999999999943      61.599999999999994      57.749999999999993
    23   1      3.8499999999999943      63.524999999999999       59.67499999999999
    24   1      5.7749999999999924      61.599999999999994       59.67499999999999
    25   1      5.7749999999999924      63.524999999999999      57.749999999999993
    26   1      3.8499999999999943      61.599999999999994      61.599999999999994
    27   1      3.8499999999999943      63.524999999999999      63.524999999999999
    28   1      5.7749999999999924      61.599999999999994      63.524999999999999
    29   1      5.7749999999999924      63.524999999999999      61.599999999999994
    30   1      3.8499999999999943      61.599999999999994      65.449999999999989
    31   1      5.7749999999999924      61.599999999999994      67.374999999999986
    32   1      5.7749999999999924      63.524999999999999      65.449999999999989
    33   1      5.7749999999999924      65.449999999999989      55.824999999999996
    34   1      3.8499999999999943      65.449999999999989      57.749999999999993
    35   1      5.7749999999999924      65.449999999999989       59.67499999999999
    36   1      5.7749999999999924      67.374999999999986      57.749999999999993
    37   1      3.8499999999999943      65.449999999999989      61.599999999999994
    38   1      5.7749999999999924      65.449999999999989      63.524999999999999
    39   1      5.7749999999999924      67.374999999999986      61.599999999999994
    40   1      3.8499999999999943      65.449999999999989      65.449999999999989
    41   1      5.7749999999999924      65.449999999999989      67.374999999999986
    42   1      5.7749999999999924      67.374999999999986      65.449999999999989
    43   1      9.6249999999999929      51.974999999999987      57.749999999999993
    44   1      9.6249999999999929      51.974999999999987      61.599999999999994
    45   1      9.6249999999999929      51.974999999999987      65.449999999999989
    46   1      7.6999999999999886      55.824999999999996      55.824999999999996
    47   1      9.6249999999999929      53.899999999999991      55.824999999999996
    48   1      9.6249999999999929      55.824999999999996      53.899999999999991
    49   1      7.6999999999999886      53.899999999999991      57.749999999999993
    50   1      7.6999999999999886      55.824999999999996       59.67499999999999
    51   1      9.6249999999999929      53.899999999999991       59.67499999999999
    52   1      9.6249999999999929      55.824999999999996      57.749999999999993
    53   1      7.6999999999999886      53.899999999999991      61.599999999999994
    54   1      7.6999999999999886      55.824999999999996      63.524999999999999
    55   1      9.6249999999999929      53.899999999999991      63.524999999999999
    56   1      9.6249999999999929      55.824999999999996      61.599999999999994
    57   1      7.6999999999999886      53.899999999999991      65.449999999999989
    58   1      7.6999999999999886      55.824999999999996      67.374999999999986
    59   1      9.6249999999999929      53.899999999999991      67.374999999999986
    60   1      9.6249999999999929      55.824999999999996      65.449999999999989
    61   1      9.6249999999999929      55.824999999999996      69.299999999999997
    62   1      9.6249999999999929      57.749999999999993      51.974999999999987
    63   1      7.6999999999999886      57.749999999999993      53.899999999999991
    64   1      7.6999999999999886       59.67499999999999      55.824999999999996
    65   1      9.6249999999999929      57.749999999999993      55.824999999999996
    66   1      9.6249999999999929       59.67499999999999      53.899999999999991
    67   1      7.6999999999999886      57.749999999999993      57.749999999999993
    68   1      7.6999999999999886       59.67499999999999       59.67499999999999
    69   1      9.6249999999999929      57.749999999999993       59.67499999999999
    70   1      9.6249999999999929       59.67499999999999      57.749999999999993
    71   1      7.6999999999999886      57.749999999999993      61.599999999999994
    72   1      7.6999999999999886       59.67499999999999      63.524999999999999
    73   1      9.6249999999999929      57.749999999999993      63.524999999999999
    74   1      9.6249999999999929       59.67499999999999      61.599999999999994
    75   1      7.6999999999999886      57.749999999999993      65.449999999999989
    76   1      7.6999999999999886       59.67499999999999      67.374999999999986
    77   1      9.6249999999999929      57.749999999999993      67.374999999999986
    78   1      9.6249999999999929       59.67499999999999      65.449999999999989
    79   1      7.6999999999999886      57.749999999999993      69.299999999999997
    80   1      9.6249999999999929      57.749999999999993      71.224999999999994
    81   1      9.6249999999999929       59.67499999999999      69.299999999999997
    82   1      9.6249999999999929      61.599999999999994      51.974999999999987
    83   1      7.6999999999999886      61.599999999999994      53.899999999999991
    84   1      7.6999999999999886      63.524999999999999      55.824999999999996
    85   1      9.6249999999999929      61.599999999999994      55.824999999999996
    86   1      9.6249999999999929      63.524999999999999      53.899999999999991
    87   1      7.6999999999999886      61.599999999999994      57.749999999999993
    88   1      7.6999999999999886      63.524999999999999       59.67499999999999
    89   1      9.6249999999999929      61.599999999999994       59.67499999999999
    90   1      9.6249999999999929      63.524999999999999      57.749999999999993
    91   1      7.6999999999999886      61.599999999999994      61.599999999999994
    92   1      7.6999999999999886      63.524999999999999      63.524999999999999
    93   1      9.6249999999999929      61.599999999999994      63.524999999999999
    94   1      9.6249999999999929      63.524999999999999      61.599999999999994
    95   1      7.6999999999999886      61.599999999999994      65.449999999999989
    96   1      7.6999999999999886      63.524999999999999      67.374999999999986
    97   1      9.6249999999999929      61.599999999999994      67.374999999999986
    98   1      9.6249999999999929      63.524999999999999      65.449999999999989
    99   1      7.6999999999999886      61.599999999999994      69.299999999999997
   100   1      9.6249999999999929      61.599999999999994      71.224999999999994
   101   1      9.6249999999999929      63.524999999999999      69.299999999999997
   102   1      9.6249999999999929      65.449999999999989      51.974999999999987
   103   1      7.6999999999999886      65.449999999999989      53.899999999999991
   104   1      7.6999999999999886      67.374999999999986      55.824999999999996
   105   1      9.6249999999999929      65.449999999999989      55.824999999999996
   106   1      9.6249999999999929      67.374999999999986      53.899999999999991
   107   1      7.6999999999999886      65.449999999999989      57.749999999999993
   108   1      7.6999999999999886      67.374999999999986       59.67499999999999
   109   1      9.6249999999999929      65.449999999999989       59.67499999999999
   110   1      9.6249999999999929      67.374999999999986      57.749999999999993
   111   1      7.6999999999999886      65.449999999999989      61.599999999999994
   112   1      7.6999999999999886      67.374999999999986      63.524999999999999
   113   1      9.6249999999999929      65.449999999999989      63.524999999999999
   114   1      9.6249999999999929      67.374999999999986      61.599999999999994
   115   1      7.6999999999999886      65.449999999999989      65.449999999999989
   116   1      7.6999999999999886      67.374999999999986      67.374999999999986
   117   1      9.6249999999999929      65.449999999999989      67.374999999999986
   118   1      9.6249999999999929      67.374999999999986      65.449999999999989
   119   1      7.6999999999999886      65.449999999999989      69.299999999999997
   120   1      9.6249999999999929      65.449999999999989      71.224999999999994
   121   1      9.6249999999999929      67.374999999999986      69.299999999999997
   122   1      9.6249999999999929      69.299999999999997      55.824999999999996
   123   1      7.6999999999999886      69.299999999999997      57.749999999999993
   124   1      9.6249999999999929      69.299999999999997       59.67499999999999
   125   1      9.6249999999999929      71.224999999999994      57.749999999999993
   126   1      7.6999999999999886      69.299999999999997      61.599999999999994
   127   1      9.6249999999999929      69.299999999999997      63.524999999999999
   128   1      9.6249999999999929      71.224999999999994      61.599999999999994
   129   1      7.6999999999999886      69.299999999999997      65.449999999999989
   130   1      9.6249999999999929      69.299999999999997      67.374999999999986
   131   1      9.6249999999999929      71.224999999999994      65.449999999999989
   132   1      13.474999999999994      48.124999999999993      57.749999999999993
   133   1      13.474999999999994      48.124999999999993      61.599999999999994
   134   1      13.474999999999994      48.124999999999993      65.449999999999989
   135   1       11.54999999999999      51.974999999999987      55.824999999999996
   136   1      13.474999999999994       50.04999999999999      55.824999999999996
   137   1      13.474999999999994      51.974999999999987      53.899999999999991
   138   1       11.54999999999999       50.04999999999999      57.749999999999993
   139   1       11.54999999999999      51.974999999999987       59.67499999999999
   140   1      13.474999999999994       50.04999999999999       59.67499999999999
   141   1      13.474999999999994      51.974999999999987      57.749999999999993
   142   1       11.54999999999999       50.04999999999999      61.599999999999994
   143   1       11.54999999999999      51.974999999999987      63.524999999999999
   144   1      13.474999999999994       50.04999999999999      63.524999999999999
   145   1      13.474999999999994      51.974999999999987      61.599999999999994
   146   1       11.54999999999999       50.04999999999999      65.449999999999989
   147   1       11.54999999999999      51.974999999999987      67.374999999999986
   148   1      13.474999999999994       50.04999999999999      67.374999999999986
   149   1      13.474999999999994      51.974999999999987      65.449999999999989
   150   1      13.474999999999994      51.974999999999987      69.299999999999997
   151   1       11.54999999999999      55.824999999999996      51.974999999999987
   152   1      13.474999999999994      53.899999999999991      51.974999999999987
   153   1      13.474999999999994      55.824999999999996       50.04999999999999
   154   1       11.54999999999999      53.899999999999991      53.899999999999991
   155   1       11.54999999999999      55.824999999999996      55.824999999999996
   156   1      13.474999999999994      53.899999999999991      55.824999999999996
   157   1      13.474999999999994      55.824999999999996      53.899999999999991
   158   1       11.54999999999999      53.899999999999991      57.749999999999993
   159   1       11.54999999999999      55.824999999999996       59.67499999999999
   160   1      13.474999999999994      53.899999999999991       59.67499999999999
   161   1      13.474999999999994      55.824999999999996      57.749999999999993
   162   1       11.54999999999999      53.899999999999991      61.599999999999994
   163   1       11.54999999999999      55.824999999999996      63.524999999999999
   164   1      13.474999999999994      53.899999999999991      63.524999999999999
   165   1      13.474999999999994      55.824999999999996      61.599999999999994
   166   1       11.54999999999999      53.899999999999991      65.449999999999989
   167   1       11.54999999999999      55.824999999999996      67.374999999999986
   168   1      13.474999999999994      53.899999999999991      67.374999999999986
   169   1      13.474999999999994      55.824999999999996      65.449999999999989
   170   1       11.54999999999999      53.899999999999991      69.299999999999997
   171   1       11.54999999999999      55.824999999999996      71.224999999999994
   172   1      13.474999999999994      53.899999999999991      71.224999999999994
   173   1      13.474999999999994      55.824999999999996      69.299999999999997
   174   1      13.474999999999994      55.824999999999996      73.149999999999991
   175   1      13.474999999999994      57.749999999999993      48.124999999999993
   176   1       11.54999999999999      57.749999999999993       50.04999999999999
   177   1       11.54999999999999       59.67499999999999      51.974999999999987
   178   1      13.474999999999994      57.749999999999993      51.974999999999987
   179   1      13.474999999999994       59.67499999999999       50.04999999999999
   180   1       11.54999999999999      57.749999999999993      53.899999999999991
   181   1       11.54999999999999       59.67499999999999      55.824999999999996
   182   1      13.474999999999994      57.749999999999993      55.824999999999996
   183   1      13.474999999999994       59.67499999999999      53.899999999999991
   184   1       11.54999999999999      57.749999999999993      57.749999999999993
   185   1       11.54999999999999       59.67499999999999       59.67499999999999
   186   1      13.474999999999994      57.749999999999993       59.67499999999999
   187   1      13.474999999999994       59.67499999999999      57.749999999999993
   188   1       11.54999999999999      57.749999999999993      61.599999999999994
   189   1       11.54999999999999       59.67499999999999      63.524999999999999
   190   1      13.474999999999994      57.749999999999993      63.524999999999999
   191   1      13.474999999999994       59.67499999999999      61.599999999999994
   192   1       11.54999999999999      57.749999999999993      65.449999999999989
   193   1       11.54999999999999       59.67499999999999      67.374999999999986
   194   1      13.474999999999994      57.749999999999993      67.374999999999986
   195   1      13.474999999999994       59.67499999999999      65.449999999999989
   196   1       11.54999999999999      57.749999999999993      69.299999999999997
   197   1       11.54999999999999       59.67499999999999      71.224999999999994
   198   1      13.474999999999994      57.749999999999993      71.224999999999994
   199   1      13.474999999999994       59.67499999999999      69.299999999999997
   200   1       11.54999999999999      57.749999999999993      73.149999999999991
   201   1      13.474999999999994      57.749999999999993      75.074999999999989
   202   1      13.474999999999994       59.67499999999999      73.149999999999991
   203   1      13.474999999999994      61.599999999999994      48.124999999999993
   204   1       11.54999999999999      61.599999999999994       50.04999999999999
   205   1       11.54999999999999      63.524999999999999      51.974999999999987
   206   1      13.474999999999994      61.599999999999994      51.974999999999987
   207   1      13.474999999999994      63.524999999999999       50.04999999999999
   208   1       11.54999999999999      61.599999999999994      53.899999999999991
   209   1       11.54999999999999      63.524999999999999      55.824999999999996
   210   1      13.474999999999994      61.599999999999994      55.824999999999996
   211   1      13.474999999999994      63.524999999999999      53.899999999999991
   212   1       11.54999999999999      61.599999999999994      57.749999999999993
   213   1       11.54999999999999      63.524999999999999       59.67499999999999
   214   1      13.474999999999994      61.599999999999994       59.67499999999999
   215   1      13.474999999999994      63.524999999999999      57.749999999999993
   216   1       11.54999999999999      61.599999999999994      61.599999999999994
   217   1       11.54999999999999      63.524999999999999      63.524999999999999
   218   1      13.474999999999994      61.599999999999994      63.524999999999999
   219   1      13.474999999999994      63.524999999999999      61.599999999999994
   220   1       11.54999999999999      61.599999999999994      65.449999999999989
   221   1       11.54999999999999      63.524999999999999      67.374999999999986
   222   1      13.474999999999994      61.599999999999994      67.374999999999986
   223   1      13.474999999999994      63.524999999999999      65.449999999999989
   224   1       11.54999999999999      61.599999999999994      69.299999999999997
   225   1       11.54999999999999      63.524999999999999      71.224999999999994
   226   1      13.474999999999994      61.599999999999994      71.224999999999994
   227   1      13.474999999999994      63.524999999999999      69.299999999999997
   228   1       11.54999999999999      61.599999999999994      73.149999999999991
   229   1      13.474999999999994      61.599999999999994      75.074999999999989
   230   1      13.474999999999994      63.524999999999999      73.149999999999991
   231   1      13.474999999999994      65.449999999999989      48.124999999999993
   232   1       11.54999999999999      65.449999999999989       50.04999999999999
   233   1       11.54999999999999      67.374999999999986      51.974999999999987
   234   1      13.474999999999994      65.449999999999989      51.974999999999987
   235   1      13.474999999999994      67.374999999999986       50.04999999999999
   236   1       11.54999999999999      65.449999999999989      53.899999999999991
   237   1       11.54999999999999      67.374999999999986      55.824999999999996
   238   1      13.474999999999994      65.449999999999989      55.824999999999996
   239   1      13.474999999999994      67.374999999999986      53.899999999999991
   240   1       11.54999999999999      65.449999999999989      57.749999999999993
   241   1       11.54999999999999      67.374999999999986       59.67499999999999
   242   1      13.474999999999994      65.449999999999989       59.67499999999999
   243   1      13.474999999999994      67.374999999999986      57.749999999999993
   244   1       11.54999999999999      65.449999999999989      61.599999999999994
   245   1       11.54999999999999      67.374999999999986      63.524999999999999
   246   1      13.474999999999994      65.449999999999989      63.524999999999999
   247   1      13.474999999999994      67.374999999999986      61.599999999999994
   248   1       11.54999999999999      65.449999999999989      65.449999999999989
   249   1       11.54999999999999      67.374999999999986      67.374999999999986
   250   1      13.474999999999994      65.449999999999989      67.374999999999986
   251   1      13.474999999999994      67.374999999999986      65.449999999999989
   252   1       11.54999999999999      65.449999999999989      69.299999999999997
   253   1       11.54999999999999      67.374999999999986      71.224999999999994
   254   1      13.474999999999994      65.449999999999989      71.224999999999994
   255   1      13.474999999999994      67.374999999999986      69.299999999999997
   256   1       11.54999999999999      65.449999999999989      73.149999999999991
   257   1      13.474999999999994      65.449999999999989      75.074999999999989
   258   1      13.474999999999994      67.374999999999986      73.149999999999991
   259   1      13.474999999999994      69.299999999999997      51.974999999999987
   260   1       11.54999999999999      69.299999999999997      53.899999999999991
   261   1       11.54999999999999      71.224999999999994      55.824999999999996
   262   1      13.474999999999994      69.299999999999997      55.824999999999996
   263   1      13.474999999999994      71.224999999999994      53.899999999999991
   264   1       11.54999999999999      69.299999999999997      57.749999999999993
   265   1       11.54999999999999      71.224999999999994       59.67499999999999
   266   1      13.474999999999994      69.299999999999997       59.67499999999999
   267   1      13.474999999999994      71.224999999999994      57.749999999999993
   268   1       11.54999999999999      69.299999999999997      61.599999999999994
   269   1       11.54999999999999      71.224999999999994      63.524999999999999
   270   1      13.474999999999994      69.299999999999997      63.524999999999999
   271   1      13.474999999999994      71.224999999999994      61.599999999999994
   272   1       11.54999999999999      69.299999999999997      65.449999999999989
   273   1       11.54999999999999      71.224999999999994      67.374999999999986
   274   1      13.474999999999994      69.299999999999997      67.374999999999986
   275   1      13.474999999999994      71.224999999999994      65.449999999999989
   276   1       11.54999999999999      69.299999999999997      69.299999999999997
   277   1      13.474999999999994      69.299999999999997      71.224999999999994
   278   1      13.474999999999994      71.224999999999994      69.299999999999997
   279   1      13.474999999999994      73.149999999999991      55.824999999999996
   280   1       11.54999999999999      73.149999999999991      57.749999999999993
   281   1      13.474999999999994      73.149999999999991       59.67499999999999
   282   1      13.474999999999994      75.074999999999989      57.749999999999993
   283   1       11.54999999999999      73.149999999999991      61.599999999999994
   284   1      13.474999999999994      73.149999999999991      63.524999999999999
   285   1      13.474999999999994      75.074999999999989      61.599999999999994
   286   1       11.54999999999999      73.149999999999991      65.449999999999989
   287   1      13.474999999999994      73.149999999999991      67.374999999999986
   288   1      13.474999999999994      75.074999999999989      65.449999999999989
   289   1      17.324999999999989      44.274999999999991      57.749999999999993
   290   1      17.324999999999989      44.274999999999991      61.599999999999994
   291   1      17.324999999999989      44.274999999999991      65.449999999999989
   292   1      17.324999999999989      48.124999999999993       50.04999999999999
   293   1      15.399999999999991      48.124999999999993      55.824999999999996
   294   1      17.324999999999989      46.199999999999996      55.824999999999996
   295   1      17.324999999999989      48.124999999999993      53.899999999999991
   296   1      15.399999999999991      46.199999999999996      57.749999999999993
   297   1      15.399999999999991      48.124999999999993       59.67499999999999
   298   1      17.324999999999989      46.199999999999996       59.67499999999999
   299   1      17.324999999999989      48.124999999999993      57.749999999999993
   300   1      15.399999999999991      46.199999999999996      61.599999999999994
   301   1      15.399999999999991      48.124999999999993      63.524999999999999
   302   1      17.324999999999989      46.199999999999996      63.524999999999999
   303   1      17.324999999999989      48.124999999999993      61.599999999999994
   304   1      15.399999999999991      46.199999999999996      65.449999999999989
   305   1      15.399999999999991      48.124999999999993      67.374999999999986
   306   1      17.324999999999989      46.199999999999996      67.374999999999986
   307   1      17.324999999999989      48.124999999999993      65.449999999999989
   308   1      17.324999999999989      48.124999999999993      69.299999999999997
   309   1      17.324999999999989      48.124999999999993      73.149999999999991
   310   1      17.324999999999989       50.04999999999999      48.124999999999993
   311   1      15.399999999999991       50.04999999999999       50.04999999999999
   312   1      15.399999999999991      51.974999999999987      51.974999999999987
   313   1      17.324999999999989       50.04999999999999      51.974999999999987
   314   1      17.324999999999989      51.974999999999987       50.04999999999999
   315   1      15.399999999999991       50.04999999999999      53.899999999999991
   316   1      15.399999999999991      51.974999999999987      55.824999999999996
   317   1      17.324999999999989       50.04999999999999      55.824999999999996
   318   1      17.324999999999989      51.974999999999987      53.899999999999991
   319   1      15.399999999999991       50.04999999999999      57.749999999999993
   320   1      15.399999999999991      51.974999999999987       59.67499999999999
   321   1      17.324999999999989       50.04999999999999       59.67499999999999
   322   1      17.324999999999989      51.974999999999987      57.749999999999993
   323   1      15.399999999999991       50.04999999999999      61.599999999999994
   324   1      15.399999999999991      51.974999999999987      63.524999999999999
   325   1      17.324999999999989       50.04999999999999      63.524999999999999
   326   1      17.324999999999989      51.974999999999987      61.599999999999994
   327   1      15.399999999999991       50.04999999999999      65.449999999999989
   328   1      15.399999999999991      51.974999999999987      67.374999999999986
   329   1      17.324999999999989       50.04999999999999      67.374999999999986
   330   1      17.324999999999989      51.974999999999987      65.449999999999989
   331   1      15.399999999999991       50.04999999999999      69.299999999999997
   332   1      15.399999999999991      51.974999999999987      71.224999999999994
   333   1      17.324999999999989       50.04999999999999      71.224999999999994
   334   1      17.324999999999989      51.974999999999987      69.299999999999997
   335   1      15.399999999999991       50.04999999999999      73.149999999999991
   336   1      17.324999999999989       50.04999999999999      75.074999999999989
   337   1      17.324999999999989      51.974999999999987      73.149999999999991
   338   1      15.399999999999991      55.824999999999996      48.124999999999993
   339   1      17.324999999999989      53.899999999999991      48.124999999999993
   340   1      17.324999999999989      55.824999999999996      46.199999999999996
   341   1      15.399999999999991      53.899999999999991       50.04999999999999
   342   1      15.399999999999991      55.824999999999996      51.974999999999987
   343   1      17.324999999999989      53.899999999999991      51.974999999999987
   344   1      17.324999999999989      55.824999999999996       50.04999999999999
   345   1      15.399999999999991      53.899999999999991      53.899999999999991
   346   1      15.399999999999991      55.824999999999996      55.824999999999996
   347   1      17.324999999999989      53.899999999999991      55.824999999999996
   348   1      17.324999999999989      55.824999999999996      53.899999999999991
   349   1      15.399999999999991      53.899999999999991      57.749999999999993
   350   1      15.399999999999991      55.824999999999996       59.67499999999999
   351   1      17.324999999999989      53.899999999999991       59.67499999999999
   352   1      17.324999999999989      55.824999999999996      57.749999999999993
   353   1      15.399999999999991      53.899999999999991      61.599999999999994
   354   1      15.399999999999991      55.824999999999996      63.524999999999999
   355   1      17.324999999999989      53.899999999999991      63.524999999999999
   356   1      17.324999999999989      55.824999999999996      61.599999999999994
   357   1      15.399999999999991      53.899999999999991      65.449999999999989
   358   1      15.399999999999991      55.824999999999996      67.374999999999986