model_files/PdCo/PdCo_30000/PdCo_321/PdCo_321_fcc_29817_temp.data (written by ASE) 

29817 	 atoms 
2  atom types
0.0                     104  xlo xhi
0.0                     104  ylo yhi
0.0                     104  zlo zhi


Atoms 

     1   1      1.8750000000000002                  46.875                    52.5
     2   1                       0      50.625000000000007      50.625000000000007
     3   1      1.8750000000000002                   48.75      50.625000000000007
     4   1      1.8750000000000002      50.625000000000007                   48.75
     5   1                       0      50.625000000000007                  54.375
     6   1      1.8750000000000002                   48.75                  54.375
     7   1      1.8750000000000002      50.625000000000007                    52.5
     8   1      1.8750000000000002      50.625000000000007      56.250000000000007
     9   1      1.8750000000000002                    52.5                  46.875
    10   1                       0                  54.375      50.625000000000007
    11   1      1.8750000000000002                    52.5      50.625000000000007
    12   1      1.8750000000000002                  54.375                   48.75
    13   1                       0                    52.5                    52.5
    14   1                       0                  54.375                  54.375
    15   1      1.8750000000000002                    52.5                  54.375
    16   1      1.8750000000000002                  54.375                    52.5
    17   1      1.8750000000000002                    52.5      58.125000000000007
    18   1      1.8750000000000002                  54.375      56.250000000000007
    19   1      1.8750000000000002      56.250000000000007      50.625000000000007
    20   1      1.8750000000000002      56.250000000000007                  54.375
    21   1      1.8750000000000002      58.125000000000007                    52.5
    22   1                   5.625                  43.125                   48.75
    23   1                   5.625                  43.125                    52.5
    24   1                   5.625                  43.125      56.250000000000007
    25   1      3.7500000000000004                  46.875                  46.875
    26   1                   5.625                      45                  46.875
    27   1                   5.625                  46.875                      45
    28   1      3.7500000000000004                  46.875      50.625000000000007
    29   1                   5.625                      45      50.625000000000007
    30   1                   5.625                  46.875                   48.75
    31   1      3.7500000000000004                      45                    52.5
    32   1      3.7500000000000004                  46.875                  54.375
    33   1                   5.625                      45                  54.375
    34   1                   5.625                  46.875                    52.5
    35   1      3.7500000000000004                  46.875      58.125000000000007
    36   1                   5.625                      45      58.125000000000007
    37   1                   5.625                  46.875      56.250000000000007
    38   1                   5.625                  46.875      60.000000000000007
    39   1                   5.625                   48.75                  43.125
    40   1      3.7500000000000004      50.625000000000007                  46.875
    41   1                   5.625                   48.75                  46.875
    42   1                   5.625      50.625000000000007                      45
    43   1      3.7500000000000004                   48.75                   48.75
    44   1      3.7500000000000004      50.625000000000007      50.625000000000007
    45   1                   5.625                   48.75      50.625000000000007
    46   1                   5.625      50.625000000000007                   48.75
    47   1      3.7500000000000004                   48.75                    52.5
    48   1      3.7500000000000004      50.625000000000007                  54.375
    49   1                   5.625                   48.75                  54.375
    50   1                   5.625      50.625000000000007                    52.5
    51   1      3.7500000000000004                   48.75      56.250000000000007
    52   1      3.7500000000000004      50.625000000000007      58.125000000000007
    53   1                   5.625                   48.75      58.125000000000007
    54   1                   5.625      50.625000000000007      56.250000000000007
    55   1                   5.625                   48.75      61.875000000000007
    56   1                   5.625      50.625000000000007      60.000000000000007
    57   1                   5.625                    52.5                  43.125
    58   1      3.7500000000000004                    52.5                      45
    59   1      3.7500000000000004                  54.375                  46.875
    60   1                   5.625                    52.5                  46.875
    61   1                   5.625                  54.375                      45
    62   1      3.7500000000000004                    52.5                   48.75
    63   1      3.7500000000000004                  54.375      50.625000000000007
    64   1                   5.625                    52.5      50.625000000000007
    65   1                   5.625                  54.375                   48.75
    66   1      3.7500000000000004                    52.5                    52.5
    67   1      3.7500000000000004                  54.375                  54.375
    68   1                   5.625                    52.5                  54.375
    69   1                   5.625                  54.375                    52.5
    70   1      3.7500000000000004                    52.5      56.250000000000007
    71   1      3.7500000000000004                  54.375      58.125000000000007
    72   1                   5.625                    52.5      58.125000000000007
    73   1                   5.625                  54.375      56.250000000000007
    74   1      3.7500000000000004                    52.5      60.000000000000007
    75   1                   5.625                    52.5      61.875000000000007
    76   1                   5.625                  54.375      60.000000000000007
    77   1                   5.625      56.250000000000007                  43.125
    78   1      3.7500000000000004      58.125000000000007                  46.875
    79   1                   5.625      56.250000000000007                  46.875
    80   1                   5.625      58.125000000000007                      45
    81   1      3.7500000000000004      56.250000000000007                   48.75
    82   1      3.7500000000000004      58.125000000000007      50.625000000000007
    83   1                   5.625      56.250000000000007      50.625000000000007
    84   1                   5.625      58.125000000000007                   48.75
    85   1      3.7500000000000004      56.250000000000007                    52.5
    86   1      3.7500000000000004      58.125000000000007                  54.375
    87   1                   5.625      56.250000000000007                  54.375
    88   1                   5.625      58.125000000000007                    52.5
    89   1      3.7500000000000004      56.250000000000007      56.250000000000007
    90   1      3.7500000000000004      58.125000000000007      58.125000000000007
    91   1                   5.625      56.250000000000007      58.125000000000007
    92   1                   5.625      58.125000000000007      56.250000000000007
    93   1                   5.625      56.250000000000007      61.875000000000007
    94   1                   5.625      58.125000000000007      60.000000000000007
    95   1                   5.625      60.000000000000007                  46.875
    96   1                   5.625      60.000000000000007      50.625000000000007
    97   1                   5.625      61.875000000000007                   48.75
    98   1      3.7500000000000004      60.000000000000007                    52.5
    99   1                   5.625      60.000000000000007                  54.375
   100   1                   5.625      61.875000000000007                    52.5
   101   1                   5.625      60.000000000000007      58.125000000000007
   102   1                   5.625      61.875000000000007      56.250000000000007
   103   1                   9.375                  35.625                    52.5
   104   1                   9.375      39.375000000000007                      45
   105   1      7.5000000000000009      39.375000000000007      50.625000000000007
   106   1                   9.375                    37.5      50.625000000000007
   107   1                   9.375      39.375000000000007                   48.75
   108   1      7.5000000000000009      39.375000000000007                  54.375
   109   1                   9.375                    37.5                  54.375
   110   1                   9.375      39.375000000000007                    52.5
   111   1                   9.375      39.375000000000007      56.250000000000007
   112   1                   9.375      39.375000000000007      60.000000000000007
   113   1      7.5000000000000009                  43.125                  43.125
   114   1                   9.375                   41.25                  43.125
   115   1                   9.375                  43.125                   41.25
   116   1      7.5000000000000009                  43.125                  46.875
   117   1                   9.375                   41.25                  46.875
   118   1                   9.375                  43.125                      45
   119   1      7.5000000000000009                   41.25                   48.75
   120   1      7.5000000000000009                  43.125      50.625000000000007
   121   1                   9.375                   41.25      50.625000000000007
   122   1                   9.375                  43.125                   48.75
   123   1      7.5000000000000009                   41.25                    52.5
   124   1      7.5000000000000009                  43.125                  54.375
   125   1                   9.375                   41.25                  54.375
   126   1                   9.375                  43.125                    52.5
   127   1      7.5000000000000009                   41.25      56.250000000000007
   128   1      7.5000000000000009                  43.125      58.125000000000007
   129   1                   9.375                   41.25      58.125000000000007
   130   1                   9.375                  43.125      56.250000000000007
   131   1      7.5000000000000009                  43.125      61.875000000000007
   132   1                   9.375                   41.25      61.875000000000007
   133   1                   9.375                  43.125      60.000000000000007
   134   1                   9.375                  43.125      63.750000000000007
   135   1                   9.375                      45      39.375000000000007
   136   1      7.5000000000000009                  46.875                  43.125
   137   1                   9.375                      45                  43.125
   138   1                   9.375                  46.875                   41.25
   139   1      7.5000000000000009                      45                      45
   140   1      7.5000000000000009                  46.875                  46.875
   141   1                   9.375                      45                  46.875
   142   1                   9.375                  46.875                      45
   143   1      7.5000000000000009                      45                   48.75
   144   1      7.5000000000000009                  46.875      50.625000000000007
   145   1                   9.375                      45      50.625000000000007
   146   1                   9.375                  46.875                   48.75
   147   1      7.5000000000000009                      45                    52.5
   148   1      7.5000000000000009                  46.875                  54.375
   149   1                   9.375                      45                  54.375
   150   1                   9.375                  46.875                    52.5
   151   1      7.5000000000000009                      45      56.250000000000007
   152   1      7.5000000000000009                  46.875      58.125000000000007
   153   1                   9.375                      45      58.125000000000007
   154   1                   9.375                  46.875      56.250000000000007
   155   1      7.5000000000000009                      45      60.000000000000007
   156   1      7.5000000000000009                  46.875      61.875000000000007
   157   1                   9.375                      45      61.875000000000007
   158   1                   9.375                  46.875      60.000000000000007
   159   1                   9.375                      45                  65.625
   160   1                   9.375                  46.875      63.750000000000007
   161   1      7.5000000000000009      50.625000000000007      39.375000000000007
   162   1                   9.375                   48.75      39.375000000000007
   163   1                   9.375      50.625000000000007                    37.5
   164   1      7.5000000000000009                   48.75                   41.25
   165   1      7.5000000000000009      50.625000000000007                  43.125
   166   1                   9.375                   48.75                  43.125
   167   1                   9.375      50.625000000000007                   41.25
   168   1      7.5000000000000009                   48.75                      45
   169   1      7.5000000000000009      50.625000000000007                  46.875
   170   1                   9.375                   48.75                  46.875
   171   1                   9.375      50.625000000000007                      45
   172   1      7.5000000000000009                   48.75                   48.75
   173   1      7.5000000000000009      50.625000000000007      50.625000000000007
   174   1                   9.375                   48.75      50.625000000000007
   175   1                   9.375      50.625000000000007                   48.75
   176   1      7.5000000000000009                   48.75                    52.5
   177   1      7.5000000000000009      50.625000000000007                  54.375
   178   1                   9.375                   48.75                  54.375
   179   1                   9.375      50.625000000000007                    52.5
   180   1      7.5000000000000009                   48.75      56.250000000000007
   181   1      7.5000000000000009      50.625000000000007      58.125000000000007
   182   1                   9.375                   48.75      58.125000000000007
   183   1                   9.375      50.625000000000007      56.250000000000007
   184   1      7.5000000000000009                   48.75      60.000000000000007
   185   1      7.5000000000000009      50.625000000000007      61.875000000000007
   186   1                   9.375                   48.75      61.875000000000007
   187   1                   9.375      50.625000000000007      60.000000000000007
   188   1      7.5000000000000009                   48.75      63.750000000000007
   189   1      7.5000000000000009      50.625000000000007                  65.625
   190   1                   9.375                   48.75                  65.625
   191   1                   9.375      50.625000000000007      63.750000000000007
   192   1                   9.375      50.625000000000007                    67.5
   193   1                   9.375                    52.5                  35.625
   194   1      7.5000000000000009                  54.375      39.375000000000007
   195   1                   9.375                    52.5      39.375000000000007
   196   1                   9.375                  54.375                    37.5
   197   1      7.5000000000000009                    52.5                   41.25
   198   1      7.5000000000000009                  54.375                  43.125
   199   1                   9.375                    52.5                  43.125
   200   1                   9.375                  54.375                   41.25
   201   1      7.5000000000000009                    52.5                      45
   202   1      7.5000000000000009                  54.375                  46.875
   203   1                   9.375                    52.5                  46.875
   204   1                   9.375                  54.375                      45
   205   1      7.5000000000000009                    52.5                   48.75
   206   1      7.5000000000000009                  54.375      50.625000000000007
   207   1                   9.375                    52.5      50.625000000000007
   208   1                   9.375                  54.375                   48.75
   209   1      7.5000000000000009                    52.5                    52.5
   210   1      7.5000000000000009                  54.375                  54.375
   211   1                   9.375                    52.5                  54.375
   212   1                   9.375                  54.375                    52.5
   213   1      7.5000000000000009                    52.5      56.250000000000007
   214   1      7.5000000000000009                  54.375      58.125000000000007
   215   1                   9.375                    52.5      58.125000000000007
   216   1                   9.375                  54.375      56.250000000000007
   217   1      7.5000000000000009                    52.5      60.000000000000007
   218   1      7.5000000000000009                  54.375      61.875000000000007
   219   1                   9.375                    52.5      61.875000000000007
   220   1                   9.375                  54.375      60.000000000000007
   221   1      7.5000000000000009                    52.5      63.750000000000007
   222   1      7.5000000000000009                  54.375                  65.625
   223   1                   9.375                    52.5                  65.625
   224   1                   9.375                  54.375      63.750000000000007
   225   1                   9.375                    52.5                  69.375
   226   1                   9.375                  54.375                    67.5
   227   1                   9.375      56.250000000000007      39.375000000000007
   228   1      7.5000000000000009      56.250000000000007                   41.25
   229   1      7.5000000000000009      58.125000000000007                  43.125
   230   1                   9.375      56.250000000000007                  43.125
   231   1                   9.375      58.125000000000007                   41.25
   232   1      7.5000000000000009      56.250000000000007                      45
   233   1      7.5000000000000009      58.125000000000007                  46.875
   234   1                   9.375      56.250000000000007                  46.875
   235   1                   9.375      58.125000000000007                      45
   236   1      7.5000000000000009      56.250000000000007                   48.75
   237   1      7.5000000000000009      58.125000000000007      50.625000000000007
   238   1                   9.375      56.250000000000007      50.625000000000007
   239   1                   9.375      58.125000000000007                   48.75
   240   1      7.5000000000000009      56.250000000000007                    52.5
   241   1      7.5000000000000009      58.125000000000007                  54.375
   242   1                   9.375      56.250000000000007                  54.375
   243   1                   9.375      58.125000000000007                    52.5
   244   1      7.5000000000000009      56.250000000000007      56.250000000000007
   245   1      7.5000000000000009      58.125000000000007      58.125000000000007
   246   1                   9.375      56.250000000000007      58.125000000000007
   247   1                   9.375      58.125000000000007      56.250000000000007
   248   1      7.5000000000000009      56.250000000000007      60.000000000000007
   249   1      7.5000000000000009      58.125000000000007      61.875000000000007
   250   1                   9.375      56.250000000000007      61.875000000000007
   251   1                   9.375      58.125000000000007      60.000000000000007
   252   1      7.5000000000000009      56.250000000000007      63.750000000000007
   253   1                   9.375      56.250000000000007                  65.625
   254   1                   9.375      58.125000000000007      63.750000000000007
   255   1                   9.375      60.000000000000007      39.375000000000007
   256   1      7.5000000000000009      61.875000000000007                  43.125
   257   1                   9.375      60.000000000000007                  43.125
   258   1                   9.375      61.875000000000007                   41.25
   259   1      7.5000000000000009      60.000000000000007                      45
   260   1      7.5000000000000009      61.875000000000007                  46.875
   261   1                   9.375      60.000000000000007                  46.875
   262   1                   9.375      61.875000000000007                      45
   263   1      7.5000000000000009      60.000000000000007                   48.75
   264   1      7.5000000000000009      61.875000000000007      50.625000000000007
   265   1                   9.375      60.000000000000007      50.625000000000007
   266   1                   9.375      61.875000000000007                   48.75
   267   1      7.5000000000000009      60.000000000000007                    52.5
   268   1      7.5000000000000009      61.875000000000007                  54.375
   269   1                   9.375      60.000000000000007                  54.375
   270   1                   9.375      61.875000000000007                    52.5
   271   1      7.5000000000000009      60.000000000000007      56.250000000000007
   272   1      7.5000000000000009      61.875000000000007      58.125000000000007
   273   1                   9.375      60.000000000000007      58.125000000000007
   274   1                   9.375      61.875000000000007      56.250000000000007
   275   1      7.5000000000000009      60.000000000000007      60.000000000000007
   276   1      7.5000000000000009      61.875000000000007      61.875000000000007
   277   1                   9.375      60.000000000000007      61.875000000000007
   278   1                   9.375      61.875000000000007      60.000000000000007
   279   1                   9.375      60.000000000000007                  65.625
   280   1                   9.375      61.875000000000007      63.750000000000007
   281   1                   9.375      63.750000000000007                  43.125
   282   1                   9.375      63.750000000000007                  46.875
   283   1                   9.375                  65.625                      45
   284   1      7.5000000000000009      63.750000000000007                   48.75
   285   1      7.5000000000000009                  65.625      50.625000000000007
   286   1                   9.375      63.750000000000007      50.625000000000007
   287   1                   9.375                  65.625                   48.75
   288   1      7.5000000000000009      63.750000000000007                    52.5
   289   1      7.5000000000000009                  65.625                  54.375
   290   1                   9.375      63.750000000000007                  54.375
   291   1                   9.375                  65.625                    52.5
   292   1      7.5000000000000009      63.750000000000007      56.250000000000007
   293   1                   9.375      63.750000000000007      58.125000000000007
   294   1                   9.375                  65.625      56.250000000000007
   295   1                   9.375      63.750000000000007      61.875000000000007
   296   1                   9.375                  65.625      60.000000000000007
   297   1                   9.375                    67.5      50.625000000000007
   298   1                   9.375                    67.5                  54.375
   299   1                   9.375                  69.375                    52.5
   300   1                  13.125      31.875000000000004                   48.75
   301   1                  13.125      31.875000000000004                    52.5
   302   1                  13.125      31.875000000000004      56.250000000000007
   303   1                  13.125                  35.625                   41.25
   304   1                   11.25                  35.625                  46.875
   305   1                  13.125                   33.75                  46.875
   306   1                  13.125                  35.625                      45
   307   1                   11.25                  35.625      50.625000000000007
   308   1                  13.125                   33.75      50.625000000000007
   309   1                  13.125                  35.625                   48.75
   310   1                   11.25                   33.75                    52.5
   311   1                   11.25                  35.625                  54.375
   312   1                  13.125                   33.75                  54.375
   313   1                  13.125                  35.625                    52.5
   314   1                   11.25                  35.625      58.125000000000007
   315   1                  13.125                   33.75      58.125000000000007
   316   1                  13.125                  35.625      56.250000000000007
   317   1                  13.125                  35.625      60.000000000000007
   318   1                  13.125                  35.625      63.750000000000007
   319   1                   11.25      39.375000000000007      39.375000000000007
   320   1                  13.125                    37.5      39.375000000000007
   321   1                  13.125      39.375000000000007                    37.5
   322   1                   11.25      39.375000000000007                  43.125
   323   1                  13.125                    37.5                  43.125
   324   1                  13.125      39.375000000000007                   41.25
   325   1                   11.25                    37.5                      45
   326   1                   11.25      39.375000000000007                  46.875
   327   1                  13.125                    37.5                  46.875
   328   1                  13.125      39.375000000000007                      45
   329   1                   11.25                    37.5                   48.75
   330   1                   11.25      39.375000000000007      50.625000000000007
   331   1                  13.125                    37.5      50.625000000000007
   332   1                  13.125      39.375000000000007                   48.75
   333   1                   11.25                    37.5                    52.5
   334   1                   11.25      39.375000000000007                  54.375
   335   1                  13.125                    37.5                  54.375
   336   1                  13.125      39.375000000000007                    52.5
   337   1                   11.25                    37.5      56.250000000000007
   338   1                   11.25      39.375000000000007      58.125000000000007
   339   1                  13.125                    37.5      58.125000000000007
   340   1                  13.125      39.375000000000007      56.250000000000007
   341   1                   11.25                    37.5      60.000000000000007
   342   1                   11.25      39.375000000000007      61.875000000000007
   343   1                  13.125                    37.5      61.875000000000007
   344   1                  13.125      39.375000000000007      60.000000000000007
   345   1                   11.25      39.375000000000007                  65.625
   346   1                  13.125                    37.5                  65.625
   347   1                  13.125      39.375000000000007      63.750000000000007
   348   1                  13.125      39.375000000000007                    67.5
   349   1                  13.125                   41.25                  35.625
   350   1                   11.25                  43.125      39.375000000000007
   351   1                  13.125                   41.25      39.375000000000007
   352   1                  13.125                  43.125                    37.5
   353   1                   11.25                   41.25                   41.25
   354   1                   11.25                  43.125                  43.125
   355   1                  13.125                   41.25                  43.125
   356   1                  13.125                  43.125                   41.25
   357   1                   11.25                   41.25                      45
   358   1                   11.25                  43.125                  46.875