LAMMPS data file via write_data, version 30 Nov 2020, timestep = 0

30129 atoms
5 atom types

0 114 xlo xhi
0 114 ylo yhi
0 114 zlo zhi

Masses

1 58.7
2 55.8
3 52
4 59
5 63

Atoms # atomic

7 2 3.569999999999993 55.33499999999998 55.33499999999998 0 0 0
8 5 5.35499999999999 53.54999999999999 55.33499999999998 0 0 0
9 4 5.35499999999999 55.33499999999998 53.54999999999999 0 0 0
32 5 7.139999999999993 51.764999999999986 51.764999999999986 0 0 0
33 2 8.92499999999999 49.97999999999998 51.764999999999986 0 0 0
34 5 8.92499999999999 51.764999999999986 49.97999999999998 0 0 0
35 3 7.139999999999993 51.764999999999986 55.33499999999998 0 0 0
36 4 8.92499999999999 49.97999999999998 55.33499999999998 0 0 0
37 1 8.92499999999999 51.764999999999986 53.54999999999999 0 0 0
46 1 7.139999999999993 55.33499999999998 51.764999999999986 0 0 0
47 1 8.92499999999999 53.54999999999999 51.764999999999986 0 0 0
48 2 8.92499999999999 55.33499999999998 49.97999999999998 0 0 0
49 1 7.139999999999993 53.54999999999999 53.54999999999999 0 0 0
50 4 7.139999999999993 55.33499999999998 55.33499999999998 0 0 0
51 4 8.92499999999999 53.54999999999999 55.33499999999998 0 0 0
52 3 8.92499999999999 55.33499999999998 53.54999999999999 0 0 0
105 3 10.709999999999994 48.19499999999998 48.19499999999998 0 0 0
106 4 12.49499999999999 46.40999999999999 48.19499999999998 0 0 0
107 5 12.49499999999999 48.19499999999998 46.40999999999999 0 0 0
108 4 10.709999999999994 48.19499999999998 51.764999999999986 0 0 0
109 4 12.49499999999999 46.40999999999999 51.764999999999986 0 0 0
110 5 12.49499999999999 48.19499999999998 49.97999999999998 0 0 0
111 3 10.709999999999994 48.19499999999998 55.33499999999998 0 0 0
112 1 12.49499999999999 46.40999999999999 55.33499999999998 0 0 0
113 2 12.49499999999999 48.19499999999998 53.54999999999999 0 0 0
125 3 10.709999999999994 51.764999999999986 48.19499999999998 0 0 0
126 1 12.49499999999999 49.97999999999998 48.19499999999998 0 0 0
127 4 12.49499999999999 51.764999999999986 46.40999999999999 0 0 0
128 5 10.709999999999994 49.97999999999998 49.97999999999998 0 0 0
129 4 10.709999999999994 51.764999999999986 51.764999999999986 0 0 0
130 1 12.49499999999999 49.97999999999998 51.764999999999986 0 0 0
131 4 12.49499999999999 51.764999999999986 49.97999999999998 0 0 0
132 4 10.709999999999994 49.97999999999998 53.54999999999999 0 0 0
133 1 10.709999999999994 51.764999999999986 55.33499999999998 0 0 0
134 1 12.49499999999999 49.97999999999998 55.33499999999998 0 0 0
135 4 12.49499999999999 51.764999999999986 53.54999999999999 0 0 0
149 5 10.709999999999994 55.33499999999998 48.19499999999998 0 0 0
150 1 12.49499999999999 53.54999999999999 48.19499999999998 0 0 0
151 4 12.49499999999999 55.33499999999998 46.40999999999999 0 0 0
152 1 10.709999999999994 53.54999999999999 49.97999999999998 0 0 0
153 4 10.709999999999994 55.33499999999998 51.764999999999986 0 0 0
154 2 12.49499999999999 53.54999999999999 51.764999999999986 0 0 0
155 3 12.49499999999999 55.33499999999998 49.97999999999998 0 0 0
156 5 10.709999999999994 53.54999999999999 53.54999999999999 0 0 0
157 3 10.709999999999994 55.33499999999998 55.33499999999998 0 0 0
158 5 12.49499999999999 53.54999999999999 55.33499999999998 0 0 0
159 1 12.49499999999999 55.33499999999998 53.54999999999999 0 0 0
258 3 14.279999999999985 44.624999999999986 48.19499999999998 0 0 0
259 5 16.06499999999999 42.83999999999998 48.19499999999998 0 0 0
260 4 16.06499999999999 44.624999999999986 46.40999999999999 0 0 0
261 2 14.279999999999985 44.624999999999986 51.764999999999986 0 0 0
262 5 16.06499999999999 42.83999999999998 51.764999999999986 0 0 0
263 5 16.06499999999999 44.624999999999986 49.97999999999998 0 0 0
264 4 14.279999999999985 44.624999999999986 55.33499999999998 0 0 0
265 1 16.06499999999999 42.83999999999998 55.33499999999998 0 0 0
266 4 16.06499999999999 44.624999999999986 53.54999999999999 0 0 0
278 2 14.279999999999985 48.19499999999998 44.624999999999986 0 0 0
279 4 16.06499999999999 46.40999999999999 44.624999999999986 0 0 0
280 3 16.06499999999999 48.19499999999998 42.83999999999998 0 0 0
281 4 14.279999999999985 46.40999999999999 46.40999999999999 0 0 0
282 3 14.279999999999985 48.19499999999998 48.19499999999998 0 0 0
283 4 16.06499999999999 46.40999999999999 48.19499999999998 0 0 0
284 4 16.06499999999999 48.19499999999998 46.40999999999999 0 0 0
285 3 14.279999999999985 46.40999999999999 49.97999999999998 0 0 0
286 3 14.279999999999985 48.19499999999998 51.764999999999986 0 0 0
287 5 16.06499999999999 46.40999999999999 51.764999999999986 0 0 0
288 2 16.06499999999999 48.19499999999998 49.97999999999998 0 0 0
289 4 14.279999999999985 46.40999999999999 53.54999999999999 0 0 0
290 3 14.279999999999985 48.19499999999998 55.33499999999998 0 0 0
291 3 16.06499999999999 46.40999999999999 55.33499999999998 0 0 0
292 2 16.06499999999999 48.19499999999998 53.54999999999999 0 0 0
310 2 14.279999999999985 51.764999999999986 44.624999999999986 0 0 0
311 5 16.06499999999999 49.97999999999998 44.624999999999986 0 0 0
312 5 16.06499999999999 51.764999999999986 42.83999999999998 0 0 0
313 3 14.279999999999985 49.97999999999998 46.40999999999999 0 0 0
314 1 14.279999999999985 51.764999999999986 48.19499999999998 0 0 0
315 2 16.06499999999999 49.97999999999998 48.19499999999998 0 0 0
316 2 16.06499999999999 51.764999999999986 46.40999999999999 0 0 0
317 3 14.279999999999985 49.97999999999998 49.97999999999998 0 0 0
318 2 14.279999999999985 51.764999999999986 51.764999999999986 0 0 0
319 3 16.06499999999999 49.97999999999998 51.764999999999986 0 0 0
320 3 16.06499999999999 51.764999999999986 49.97999999999998 0 0 0
321 2 14.279999999999985 49.97999999999998 53.54999999999999 0 0 0
322 3 14.279999999999985 51.764999999999986 55.33499999999998 0 0 0
323 3 16.06499999999999 49.97999999999998 55.33499999999998 0 0 0
324 1 16.06499999999999 51.764999999999986 53.54999999999999 0 0 0
342 2 14.279999999999985 55.33499999999998 44.624999999999986 0 0 0
343 5 16.06499999999999 53.54999999999999 44.624999999999986 0 0 0
344 3 16.06499999999999 55.33499999999998 42.83999999999998 0 0 0
345 3 14.279999999999985 53.54999999999999 46.40999999999999 0 0 0
346 2 14.279999999999985 55.33499999999998 48.19499999999998 0 0 0
347 4 16.06499999999999 53.54999999999999 48.19499999999998 0 0 0
348 5 16.06499999999999 55.33499999999998 46.40999999999999 0 0 0
349 3 14.279999999999985 53.54999999999999 49.97999999999998 0 0 0
350 5 14.279999999999985 55.33499999999998 51.764999999999986 0 0 0
351 3 16.06499999999999 53.54999999999999 51.764999999999986 0 0 0
352 1 16.06499999999999 55.33499999999998 49.97999999999998 0 0 0
353 5 14.279999999999985 53.54999999999999 53.54999999999999 0 0 0
354 3 14.279999999999985 55.33499999999998 55.33499999999998 0 0 0
355 4 16.06499999999999 53.54999999999999 55.33499999999998 0 0 0
356 3 16.06499999999999 55.33499999999998 53.54999999999999 0 0 0
511 2 19.63499999999999 41.05499999999998 42.83999999999998 0 0 0
512 3 17.84999999999999 41.05499999999998 48.19499999999998 0 0 0
513 4 19.63499999999999 39.26999999999999 48.19499999999998 0 0 0
514 1 19.63499999999999 41.05499999999998 46.40999999999999 0 0 0
515 1 17.84999999999999 41.05499999999998 51.764999999999986 0 0 0
516 2 19.63499999999999 39.26999999999999 51.764999999999986 0 0 0
517 2 19.63499999999999 41.05499999999998 49.97999999999998 0 0 0
518 5 17.84999999999999 41.05499999999998 55.33499999999998 0 0 0
519 5 19.63499999999999 39.26999999999999 55.33499999999998 0 0 0
520 4 19.63499999999999 41.05499999999998 53.54999999999999 0 0 0
533 3 19.63499999999999 42.83999999999998 41.05499999999998 0 0 0
534 1 17.84999999999999 42.83999999999998 42.83999999999998 0 0 0
535 4 17.84999999999999 44.624999999999986 44.624999999999986 0 0 0
536 4 19.63499999999999 42.83999999999998 44.624999999999986 0 0 0
537 3 19.63499999999999 44.624999999999986 42.83999999999998 0 0 0
538 2 17.84999999999999 42.83999999999998 46.40999999999999 0 0 0
539 3 17.84999999999999 44.624999999999986 48.19499999999998 0 0 0
540 5 19.63499999999999 42.83999999999998 48.19499999999998 0 0 0
541 4 19.63499999999999 44.624999999999986 46.40999999999999 0 0 0
542 4 17.84999999999999 42.83999999999998 49.97999999999998 0 0 0
543 5 17.84999999999999 44.624999999999986 51.764999999999986 0 0 0
544 4 19.63499999999999 42.83999999999998 51.764999999999986 0 0 0
545 2 19.63499999999999 44.624999999999986 49.97999999999998 0 0 0
546 5 17.84999999999999 42.83999999999998 53.54999999999999 0 0 0
547 5 17.84999999999999 44.624999999999986 55.33499999999998 0 0 0
548 2 19.63499999999999 42.83999999999998 55.33499999999998 0 0 0
549 5 19.63499999999999 44.624999999999986 53.54999999999999 0 0 0
569 1 17.84999999999999 48.19499999999998 41.05499999999998 0 0 0
570 5 19.63499999999999 46.40999999999999 41.05499999999998 0 0 0
571 3 19.63499999999999 48.19499999999998 39.26999999999999 0 0 0
572 3 17.84999999999999 46.40999999999999 42.83999999999998 0 0 0
573 2 17.84999999999999 48.19499999999998 44.624999999999986 0 0 0
574 1 19.63499999999999 46.40999999999999 44.624999999999986 0 0 0
575 1 19.63499999999999 48.19499999999998 42.83999999999998 0 0 0
576 4 17.84999999999999 46.40999999999999 46.40999999999999 0 0 0
577 4 17.84999999999999 48.19499999999998 48.19499999999998 0 0 0
578 3 19.63499999999999 46.40999999999999 48.19499999999998 0 0 0
579 1 19.63499999999999 48.19499999999998 46.40999999999999 0 0 0
580 3 17.84999999999999 46.40999999999999 49.97999999999998 0 0 0
581 3 17.84999999999999 48.19499999999998 51.764999999999986 0 0 0
582 5 19.63499999999999 46.40999999999999 51.764999999999986 0 0 0
583 5 19.63499999999999 48.19499999999998 49.97999999999998 0 0 0
584 4 17.84999999999999 46.40999999999999 53.54999999999999 0 0 0
585 1 17.84999999999999 48.19499999999998 55.33499999999998 0 0 0
586 5 19.63499999999999 46.40999999999999 55.33499999999998 0 0 0
587 3 19.63499999999999 48.19499999999998 53.54999999999999 0 0 0
609 1 17.84999999999999 51.764999999999986 41.05499999999998 0 0 0
610 1 19.63499999999999 49.97999999999998 41.05499999999998 0 0 0
611 4 19.63499999999999 51.764999999999986 39.26999999999999 0 0 0
612 5 17.84999999999999 49.97999999999998 42.83999999999998 0 0 0
613 3 17.84999999999999 51.764999999999986 44.624999999999986 0 0 0
614 2 19.63499999999999 49.97999999999998 44.624999999999986 0 0 0
615 4 19.63499999999999 51.764999999999986 42.83999999999998 0 0 0
616 2 17.84999999999999 49.97999999999998 46.40999999999999 0 0 0
617 5 17.84999999999999 51.764999999999986 48.19499999999998 0 0 0
618 1 19.63499999999999 49.97999999999998 48.19499999999998 0 0 0
619 5 19.63499999999999 51.764999999999986 46.40999999999999 0 0 0
620 4 17.84999999999999 49.97999999999998 49.97999999999998 0 0 0
621 5 17.84999999999999 51.764999999999986 51.764999999999986 0 0 0
622 1 19.63499999999999 49.97999999999998 51.764999999999986 0 0 0
623 5 19.63499999999999 51.764999999999986 49.97999999999998 0 0 0
624 3 17.84999999999999 49.97999999999998 53.54999999999999 0 0 0
625 4 17.84999999999999 51.764999999999986 55.33499999999998 0 0 0
626 4 19.63499999999999 49.97999999999998 55.33499999999998 0 0 0
627 2 19.63499999999999 51.764999999999986 53.54999999999999 0 0 0
649 5 17.84999999999999 55.33499999999998 41.05499999999998 0 0 0
650 4 19.63499999999999 53.54999999999999 41.05499999999998 0 0 0
651 3 19.63499999999999 55.33499999999998 39.26999999999999 0 0 0
652 4 17.84999999999999 53.54999999999999 42.83999999999998 0 0 0
653 3 17.84999999999999 55.33499999999998 44.624999999999986 0 0 0
654 5 19.63499999999999 53.54999999999999 44.624999999999986 0 0 0
655 3 19.63499999999999 55.33499999999998 42.83999999999998 0 0 0
656 3 17.84999999999999 53.54999999999999 46.40999999999999 0 0 0
657 4 17.84999999999999 55.33499999999998 48.19499999999998 0 0 0
658 2 19.63499999999999 53.54999999999999 48.19499999999998 0 0 0
659 4 19.63499999999999 55.33499999999998 46.40999999999999 0 0 0
660 4 17.84999999999999 53.54999999999999 49.97999999999998 0 0 0
661 4 17.84999999999999 55.33499999999998 51.764999999999986 0 0 0
662 4 19.63499999999999 53.54999999999999 51.764999999999986 0 0 0
663 3 19.63499999999999 55.33499999999998 49.97999999999998 0 0 0
664 2 17.84999999999999 53.54999999999999 53.54999999999999 0 0 0
665 4 17.84999999999999 55.33499999999998 55.33499999999998 0 0 0
666 1 19.63499999999999 53.54999999999999 55.33499999999998 0 0 0
667 5 19.63499999999999 55.33499999999998 53.54999999999999 0 0 0
892 1 23.20499999999999 37.484999999999985 42.83999999999998 0 0 0
893 3 21.419999999999987 37.484999999999985 48.19499999999998 0 0 0
894 3 23.20499999999999 35.69999999999998 48.19499999999998 0 0 0
895 4 23.20499999999999 37.484999999999985 46.40999999999999 0 0 0
896 3 21.419999999999987 37.484999999999985 51.764999999999986 0 0 0
897 3 23.20499999999999 35.69999999999998 51.764999999999986 0 0 0
898 2 23.20499999999999 37.484999999999985 49.97999999999998 0 0 0
899 3 21.419999999999987 37.484999999999985 55.33499999999998 0 0 0
900 2 23.20499999999999 35.69999999999998 55.33499999999998 0 0 0
901 1 23.20499999999999 37.484999999999985 53.54999999999999 0 0 0
914 5 21.419999999999987 41.05499999999998 41.05499999999998 0 0 0
915 1 23.20499999999999 39.26999999999999 41.05499999999998 0 0 0
916 1 23.20499999999999 41.05499999999998 39.26999999999999 0 0 0
917 1 21.419999999999987 39.26999999999999 42.83999999999998 0 0 0
918 4 21.419999999999987 41.05499999999998 44.624999999999986 0 0 0
919 5 23.20499999999999 39.26999999999999 44.624999999999986 0 0 0
920 2 23.20499999999999 41.05499999999998 42.83999999999998 0 0 0
921 4 21.419999999999987 39.26999999999999 46.40999999999999 0 0 0
922 2 21.419999999999987 41.05499999999998 48.19499999999998 0 0 0
923 4 23.20499999999999 39.26999999999999 48.19499999999998 0 0 0
924 1 23.20499999999999 41.05499999999998 46.40999999999999 0 0 0
925 1 21.419999999999987 39.26999999999999 49.97999999999998 0 0 0
926 5 21.419999999999987 41.05499999999998 51.764999999999986 0 0 0
927 4 23.20499999999999 39.26999999999999 51.764999999999986 0 0 0
928 2 23.20499999999999 41.05499999999998 49.97999999999998 0 0 0
929 4 21.419999999999987 39.26999999999999 53.54999999999999 0 0 0
930 3 21.419999999999987 41.05499999999998 55.33499999999998 0 0 0
931 1 23.20499999999999 39.26999999999999 55.33499999999998 0 0 0
932 1 23.20499999999999 41.05499999999998 53.54999999999999 0 0 0
954 5 23.20499999999999 42.83999999999998 37.484999999999985 0 0 0
955 4 21.419999999999987 42.83999999999998 39.26999999999999 0 0 0
956 1 21.419999999999987 44.624999999999986 41.05499999999998 0 0 0
957 3 23.20499999999999 42.83999999999998 41.05499999999998 0 0 0
958 1 23.20499999999999 44.624999999999986 39.26999999999999 0 0 0
959 3 21.419999999999987 42.83999999999998 42.83999999999998 0 0 0
960 4 21.419999999999987 44.624999999999986 44.624999999999986 0 0 0
961 1 23.20499999999999 42.83999999999998 44.624999999999986 0 0 0
962 4 23.20499999999999 44.624999999999986 42.83999999999998 0 0 0
963 5 21.419999999999987 42.83999999999998 46.40999999999999 0 0 0
964 5 21.419999999999987 44.624999999999986 48.19499999999998 0 0 0
965 4 23.20499999999999 42.83999999999998 48.19499999999998 0 0 0
966 3 23.20499999999999 44.624999999999986 46.40999999999999 0 0 0
967 4 21.419999999999987 42.83999999999998 49.97999999999998 0 0 0
968 3 21.419999999999987 44.624999999999986 51.764999999999986 0 0 0
969 4 23.20499999999999 42.83999999999998 51.764999999999986 0 0 0
970 3 23.20499999999999 44.624999999999986 49.97999999999998 0 0 0
971 1 21.419999999999987 42.83999999999998 53.54999999999999 0 0 0
972 1 21.419999999999987 44.624999999999986 55.33499999999998 0 0 0
973 2 23.20499999999999 42.83999999999998 55.33499999999998 0 0 0
974 1 23.20499999999999 44.624999999999986 53.54999999999999 0 0 0
998 2 21.419999999999987 48.19499999999998 37.484999999999985 0 0 0
999 3 23.20499999999999 46.40999999999999 37.484999999999985 0 0 0
1000 5 23.20499999999999 48.19499999999998 35.69999999999998 0 0 0
1001 3 21.419999999999987 46.40999999999999 39.26999999999999 0 0 0
1002 2 21.419999999999987 48.19499999999998 41.05499999999998 0 0 0
1003 4 23.20499999999999 46.40999999999999 41.05499999999998 0 0 0
1004 5 23.20499999999999 48.19499999999998 39.26999999999999 0 0 0
1005 4 21.419999999999987 46.40999999999999 42.83999999999998 0 0 0
1006 4 21.419999999999987 48.19499999999998 44.624999999999986 0 0 0
1007 2 23.20499999999999 46.40999999999999 44.624999999999986 0 0 0
1008 2 23.20499999999999 48.19499999999998 42.83999999999998 0 0 0
1009 4 21.419999999999987 46.40999999999999 46.40999999999999 0 0 0
1010 3 21.419999999999987 48.19499999999998 48.19499999999998 0 0 0
1011 2 23.20499999999999 46.40999999999999 48.19499999999998 0 0 0
1012 5 23.20499999999999 48.19499999999998 46.40999999999999 0 0 0
1013 2 21.419999999999987 46.40999999999999 49.97999999999998 0 0 0
1014 2 21.419999999999987 48.19499999999998 51.764999999999986 0 0 0
1015 1 23.20499999999999 46.40999999999999 51.764999999999986 0 0 0
1016 1 23.20499999999999 48.19499999999998 49.97999999999998 0 0 0
1017 1 21.419999999999987 46.40999999999999 53.54999999999999 0 0 0
1018 5 21.419999999999987 48.19499999999998 55.33499999999998 0 0 0
1019 3 23.20499999999999 46.40999999999999 55.33499999999998 0 0 0
1020 5 23.20499999999999 48.19499999999998 53.54999999999999 0 0 0
1046 1 21.419999999999987 51.764999999999986 37.484999999999985 0 0 0
1047 5 23.20499999999999 49.97999999999998 37.484999999999985 0 0 0
1048 4 23.20499999999999 51.764999999999986 35.69999999999998 0 0 0
1049 1 21.419999999999987 49.97999999999998 39.26999999999999 0 0 0
1050 2 21.419999999999987 51.764999999999986 41.05499999999998 0 0 0
1051 2 23.20499999999999 49.97999999999998 41.05499999999998 0 0 0
1052 3 23.20499999999999 51.764999999999986 39.26999999999999 0 0 0
1053 4 21.419999999999987 49.97999999999998 42.83999999999998 0 0 0
1054 4 21.419999999999987 51.764999999999986 44.624999999999986 0 0 0
1055 4 23.20499999999999 49.97999999999998 44.624999999999986 0 0 0
1056 4 23.20499999999999 51.764999999999986 42.83999999999998 0 0 0
1057 3 21.419999999999987 49.97999999999998 46.40999999999999 0 0 0
1058 2 21.419999999999987 51.764999999999986 48.19499999999998 0 0 0
1059 4 23.20499999999999 49.97999999999998 48.19499999999998 0 0 0
1060 2 23.20499999999999 51.764999999999986 46.40999999999999 0 0 0
1061 4 21.419999999999987 49.97999999999998 49.97999999999998 0 0 0
1062 3 21.419999999999987 51.764999999999986 51.764999999999986 0 0 0
1063 4 23.20499999999999 49.97999999999998 51.764999999999986 0 0 0
1064 1 23.20499999999999 51.764999999999986 49.97999999999998 0 0 0
1065 1 21.419999999999987 49.97999999999998 53.54999999999999 0 0 0
1066 2 21.419999999999987 51.764999999999986 55.33499999999998 0 0 0
1067 1 23.20499999999999 49.97999999999998 55.33499999999998 0 0 0
1068 3 23.20499999999999 51.764999999999986 53.54999999999999 0 0 0
1094 4 21.419999999999987 55.33499999999998 37.484999999999985 0 0 0
1095 1 23.20499999999999 53.54999999999999 37.484999999999985 0 0 0
1096 3 23.20499999999999 55.33499999999998 35.69999999999998 0 0 0
1097 2 21.419999999999987 53.54999999999999 39.26999999999999 0 0 0
1098 4 21.419999999999987 55.33499999999998 41.05499999999998 0 0 0
1099 2 23.20499999999999 53.54999999999999 41.05499999999998 0 0 0
1100 1 23.20499999999999 55.33499999999998 39.26999999999999 0 0 0
1101 4 21.419999999999987 53.54999999999999 42.83999999999998 0 0 0
1102 1 21.419999999999987 55.33499999999998 44.624999999999986 0 0 0
1103 4 23.20499999999999 53.54999999999999 44.624999999999986 0 0 0
1104 5 23.20499999999999 55.33499999999998 42.83999999999998 0 0 0
1105 5 21.419999999999987 53.54999999999999 46.40999999999999 0 0 0
1106 2 21.419999999999987 55.33499999999998 48.19499999999998 0 0 0
1107 5 23.20499999999999 53.54999999999999 48.19499999999998 0 0 0
1108 5 23.20499999999999 55.33499999999998 46.40999999999999 0 0 0
1109 1 21.419999999999987 53.54999999999999 49.97999999999998 0 0 0
1110 5 21.419999999999987 55.33499999999998 51.764999999999986 0 0 0
1111 3 23.20499999999999 53.54999999999999 51.764999999999986 0 0 0
1112 5 23.20499999999999 55.33499999999998 49.97999999999998 0 0 0
1113 5 21.419999999999987 53.54999999999999 53.54999999999999 0 0 0
1114 3 21.419999999999987 55.33499999999998 55.33499999999998 0 0 0
1115 5 23.20499999999999 53.54999999999999 55.33499999999998 0 0 0
1116 1 23.20499999999999 55.33499999999998 53.54999999999999 0 0 0
1421 4 26.77499999999999 33.914999999999985 42.83999999999998 0 0 0
1422 5 24.98999999999999 33.914999999999985 48.19499999999998 0 0 0
1423 2 26.77499999999999 32.12999999999999 48.19499999999998 0 0 0
1424 1 26.77499999999999 33.914999999999985 46.40999999999999 0 0 0
1425 3 24.98999999999999 33.914999999999985 51.764999999999986 0 0 0
1426 5 26.77499999999999 32.12999999999999 51.764999999999986 0 0 0
1427 2 26.77499999999999 33.914999999999985 49.97999999999998 0 0 0
1428 1 24.98999999999999 33.914999999999985 55.33499999999998 0 0 0
1429 4 26.77499999999999 32.12999999999999 55.33499999999998 0 0 0
1430 1 26.77499999999999 33.914999999999985 53.54999999999999 0 0 0
1443 2 24.98999999999999 37.484999999999985 37.484999999999985 0 0 0
1444 4 26.77499999999999 35.69999999999998 37.484999999999985 0 0 0
1445 3 26.77499999999999 37.484999999999985 35.69999999999998 0 0 0
1446 2 24.98999999999999 37.484999999999985 41.05499999999998 0 0 0
1447 3 26.77499999999999 35.69999999999998 41.05499999999998 0 0 0
1448 5 26.77499999999999 37.484999999999985 39.26999999999999 0 0 0
1449 2 24.98999999999999 35.69999999999998 42.83999999999998 0 0 0
1450 2 24.98999999999999 37.484999999999985 44.624999999999986 0 0 0
1451 1 26.77499999999999 35.69999999999998 44.624999999999986 0 0 0
1452 1 26.77499999999999 37.484999999999985 42.83999999999998 0 0 0
1453 1 24.98999999999999 35.69999999999998 46.40999999999999 0 0 0
1454 1 24.98999999999999 37.484999999999985 48.19499999999998 0 0 0
1455 5 26.77499999999999 35.69999999999998 48.19499999999998 0 0 0
1456 1 26.77499999999999 37.484999999999985 46.40999999999999 0 0 0
1457 4 24.98999999999999 35.69999999999998 49.97999999999998 0 0 0
1458 5 24.98999999999999 37.484999999999985 51.764999999999986 0 0 0
1459 5 26.77499999999999 35.69999999999998 51.764999999999986 0 0 0
1460 5 26.77499999999999 37.484999999999985 49.97999999999998 0 0 0
1461 2 24.98999999999999 35.69999999999998 53.54999999999999 0 0 0
1462 3 24.98999999999999 37.484999999999985 55.33499999999998 0 0 0
1463 5 26.77499999999999 35.69999999999998 55.33499999999998 0 0 0
1464 4 26.77499999999999 37.484999999999985 53.54999999999999 0 0 0
1489 3 24.98999999999999 41.05499999999998 37.484999999999985 0 0 0
1490 4 26.77499999999999 39.26999999999999 37.484999999999985 0 0 0
1491 4 26.77499999999999 41.05499999999998 35.69999999999998 0 0 0
1492 3 24.98999999999999 39.26999999999999 39.26999999999999 0 0 0
1493 3 24.98999999999999 41.05499999999998 41.05499999999998 0 0 0
1494 3 26.77499999999999 39.26999999999999 41.05499999999998 0 0 0
1495 3 26.77499999999999 41.05499999999998 39.26999999999999 0 0 0
1496 3 24.98999999999999 39.26999999999999 42.83999999999998 0 0 0
1497 5 24.98999999999999 41.05499999999998 44.624999999999986 0 0 0
1498 3 26.77499999999999 39.26999999999999 44.624999999999986 0 0 0
1499 1 26.77499999999999 41.05499999999998 42.83999999999998 0 0 0
1500 5 24.98999999999999 39.26999999999999 46.40999999999999 0 0 0
1501 2 24.98999999999999 41.05499999999998 48.19499999999998 0 0 0
1502 5 26.77499999999999 39.26999999999999 48.19499999999998 0 0 0
1503 5 26.77499999999999 41.05499999999998 46.40999999999999 0 0 0
1504 1 24.98999999999999 39.26999999999999 49.97999999999998 0 0 0
1505 2 24.98999999999999 41.05499999999998 51.764999999999986 0 0 0
1506 5 26.77499999999999 39.26999999999999 51.764999999999986 0 0 0
1507 1 26.77499999999999 41.05499999999998 49.97999999999998 0 0 0
1508 1 24.98999999999999 39.26999999999999 53.54999999999999 0 0 0
1509 5 24.98999999999999 41.05499999999998 55.33499999999998 0 0 0
1510 5 26.77499999999999 39.26999999999999 55.33499999999998 0 0 0
1511 5 26.77499999999999 41.05499999999998 53.54999999999999 0 0 0
1537 5 26.77499999999999 42.83999999999998 33.914999999999985 0 0 0
1538 5 24.98999999999999 42.83999999999998 35.69999999999998 0 0 0
1539 2 24.98999999999999 44.624999999999986 37.484999999999985 0 0 0
1540 4 26.77499999999999 42.83999999999998 37.484999999999985 0 0 0
1541 4 26.77499999999999 44.624999999999986 35.69999999999998 0 0 0
1542 5 24.98999999999999 42.83999999999998 39.26999999999999 0 0 0
1543 3 24.98999999999999 44.624999999999986 41.05499999999998 0 0 0
1544 5 26.77499999999999 42.83999999999998 41.05499999999998 0 0 0
1545 2 26.77499999999999 44.624999999999986 39.26999999999999 0 0 0
1546 5 24.98999999999999 42.83999999999998 42.83999999999998 0 0 0
1547 3 24.98999999999999 44.624999999999986 44.624999999999986 0 0 0
1548 1 26.77499999999999 42.83999999999998 44.624999999999986 0 0 0
1549 5 26.77499999999999 44.624999999999986 42.83999999999998 0 0 0
1550 1 24.98999999999999 42.83999999999998 46.40999999999999 0 0 0
1551 1 24.98999999999999 44.624999999999986 48.19499999999998 0 0 0
1552 1 26.77499999999999 42.83999999999998 48.19499999999998 0 0 0
1553 4 26.77499999999999 44.624999999999986 46.40999999999999 0 0 0
1554 2 24.98999999999999 42.83999999999998 49.97999999999998 0 0 0
1555 3 24.98999999999999 44.624999999999986 51.764999999999986 0 0 0
1556 3 26.77499999999999 42.83999999999998 51.764999999999986 0 0 0
1557 2 26.77499999999999 44.624999999999986 49.97999999999998 0 0 0
1558 1 24.98999999999999 42.83999999999998 53.54999999999999 0 0 0
1559 5 24.98999999999999 44.624999999999986 55.33499999999998 0 0 0
1560 5 26.77499999999999 42.83999999999998 55.33499999999998 0 0 0
1561 5 26.77499999999999 44.624999999999986 53.54999999999999 0 0 0
1589 3 24.98999999999999 48.19499999999998 33.914999999999985 0 0 0
1590 3 26.77499999999999 46.40999999999999 33.914999999999985 0 0 0
1591 5 26.77499999999999 48.19499999999998 32.12999999999999 0 0 0
1592 1 24.98999999999999 46.40999999999999 35.69999999999998 0 0 0
1593 4 24.98999999999999 48.19499999999998 37.484999999999985 0 0 0
1594 3 26.77499999999999 46.40999999999999 37.484999999999985 0 0 0
1595 2 26.77499999999999 48.19499999999998 35.69999999999998 0 0 0
1596 5 24.98999999999999 46.40999999999999 39.26999999999999 0 0 0
1597 2 24.98999999999999 48.19499999999998 41.05499999999998 0 0 0
1598 1 26.77499999999999 46.40999999999999 41.05499999999998 0 0 0
1599 1 26.77499999999999 48.19499999999998 39.26999999999999 0 0 0
1600 3 24.98999999999999 46.40999999999999 42.83999999999998 0 0 0
1601 1 24.98999999999999 48.19499999999998 44.624999999999986 0 0 0
1602 2 26.77499999999999 46.40999999999999 44.624999999999986 0 0 0
1603 2 26.77499999999999 48.19499999999998 42.83999999999998 0 0 0
1604 5 24.98999999999999 46.40999999999999 46.40999999999999 0 0 0
1605 1 24.98999999999999 48.19499999999998 48.19499999999998 0 0 0
1606 1 26.77499999999999 46.40999999999999 48.19499999999998 0 0 0
1607 4 26.77499999999999 48.19499999999998 46.40999999999999 0 0 0
1608 3 24.98999999999999 46.40999999999999 49.97999999999998 0 0 0
1609 1 24.98999999999999 48.19499999999998 51.764999999999986 0 0 0
1610 5 26.77499999999999 46.40999999999999 51.764999999999986 0 0 0
1611 1 26.77499999999999 48.19499999999998 49.97999999999998 0 0 0
1612 2 24.98999999999999 46.40999999999999 53.54999999999999 0 0 0
1613 1 24.98999999999999 48.19499999999998 55.33499999999998 0 0 0
1614 4 26.77499999999999 46.40999999999999 55.33499999999998 0 0 0
1615 2 26.77499999999999 48.19499999999998 53.54999999999999 0 0 0
1645 1 24.98999999999999 51.764999999999986 33.914999999999985 0 0 0
1646 2 26.77499999999999 49.97999999999998 33.914999999999985 0 0 0
1647 3 26.77499999999999 51.764999999999986 32.12999999999999 0 0 0
1648 4 24.98999999999999 49.97999999999998 35.69999999999998 0 0 0
1649 2 24.98999999999999 51.764999999999986 37.484999999999985 0 0 0
1650 1 26.77499999999999 49.97999999999998 37.484999999999985 0 0 0
1651 2 26.77499999999999 51.764999999999986 35.69999999999998 0 0 0
1652 3 24.98999999999999 49.97999999999998 39.26999999999999 0 0 0
1653 5 24.98999999999999 51.764999999999986 41.05499999999998 0 0 0
1654 5 26.77499999999999 49.97999999999998 41.05499999999998 0 0 0
1655 2 26.77499999999999 51.764999999999986 39.26999999999999 0 0 0
1656 5 24.98999999999999 49.97999999999998 42.83999999999998 0 0 0
1657 1 24.98999999999999 51.764999999999986 44.624999999999986 0 0 0
1658 4 26.77499999999999 49.97999999999998 44.624999999999986 0 0 0
1659 1 26.77499999999999 51.764999999999986 42.83999999999998 0 0 0
1660 5 24.98999999999999 49.97999999999998 46.40999999999999 0 0 0
1661 3 24.98999999999999 51.764999999999986 48.19499999999998 0 0 0
1662 2 26.77499999999999 49.97999999999998 48.19499999999998 0 0 0
1663 4 26.77499999999999 51.764999999999986 46.40999999999999 0 0 0
1664 5 24.98999999999999 49.97999999999998 49.97999999999998 0 0 0
1665 3 24.98999999999999 51.764999999999986 51.764999999999986 0 0 0
1666 2 26.77499999999999 49.97999999999998 51.764999999999986 0 0 0
1667 5 26.77499999999999 51.764999999999986 49.97999999999998 0 0 0
1668 1 24.98999999999999 49.97999999999998 53.54999999999999 0 0 0
1669 5 24.98999999999999 51.764999999999986 55.33499999999998 0 0 0
1670 1 26.77499999999999 49.97999999999998 55.33499999999998 0 0 0
1671 4 26.77499999999999 51.764999999999986 53.54999999999999 0 0 0
1701 1 24.98999999999999 55.33499999999998 33.914999999999985 0 0 0
1702 3 26.77499999999999 53.54999999999999 33.914999999999985 0 0 0
1703 4 26.77499999999999 55.33499999999998 32.12999999999999 0 0 0
1704 3 24.98999999999999 53.54999999999999 35.69999999999998 0 0 0
1705 3 24.98999999999999 55.33499999999998 37.484999999999985 0 0 0
1706 5 26.77499999999999 53.54999999999999 37.484999999999985 0 0 0