model_files/PtFe/PtFe_30000/PtFe_542/PtFe_542_fcc_29823_temp.data (written by ASE) 

29823 	 atoms 
2  atom types
0.0                     112  xlo xhi
0.0                     112  ylo yhi
0.0                     112  zlo zhi


Atoms 

     1   1      1.8799999999999955      54.519999999999989      56.399999999999984
     2   1      1.8799999999999955      56.399999999999984      54.519999999999989
     3   1      111.99999999999999      56.399999999999984      56.399999999999984
     4   1      1.8799999999999955      56.399999999999984      58.279999999999987
     5   1      1.8799999999999955      58.279999999999987      56.399999999999984
     6   1      3.7599999999999909      50.759999999999998      54.519999999999989
     7   1      5.6399999999999935      48.879999999999995      54.519999999999989
     8   1      5.6399999999999935      50.759999999999998      52.639999999999993
     9   1      3.7599999999999909      50.759999999999998      58.279999999999987
    10   1      5.6399999999999935      48.879999999999995      58.279999999999987
    11   1      5.6399999999999935      50.759999999999998      56.399999999999984
    12   1      5.6399999999999935      50.759999999999998      60.159999999999989
    13   1      3.7599999999999909      54.519999999999989      50.759999999999998
    14   1      5.6399999999999935      52.639999999999993      50.759999999999998
    15   1      5.6399999999999935      54.519999999999989      48.879999999999995
    16   1      3.7599999999999909      52.639999999999993      52.639999999999993
    17   1      3.7599999999999909      54.519999999999989      54.519999999999989
    18   1      5.6399999999999935      52.639999999999993      54.519999999999989
    19   1      5.6399999999999935      54.519999999999989      52.639999999999993
    20   1      3.7599999999999909      52.639999999999993      56.399999999999984
    21   1      3.7599999999999909      54.519999999999989      58.279999999999987
    22   1      5.6399999999999935      52.639999999999993      58.279999999999987
    23   1      5.6399999999999935      54.519999999999989      56.399999999999984
    24   1      3.7599999999999909      52.639999999999993      60.159999999999989
    25   1      3.7599999999999909      54.519999999999989      62.039999999999992
    26   1      5.6399999999999935      52.639999999999993      62.039999999999992
    27   1      5.6399999999999935      54.519999999999989      60.159999999999989
    28   1      5.6399999999999935      54.519999999999989      63.919999999999987
    29   1      3.7599999999999909      58.279999999999987      50.759999999999998
    30   1      5.6399999999999935      56.399999999999984      50.759999999999998
    31   1      5.6399999999999935      58.279999999999987      48.879999999999995
    32   1      3.7599999999999909      56.399999999999984      52.639999999999993
    33   1      3.7599999999999909      58.279999999999987      54.519999999999989
    34   1      5.6399999999999935      56.399999999999984      54.519999999999989
    35   1      5.6399999999999935      58.279999999999987      52.639999999999993
    36   1      3.7599999999999909      56.399999999999984      56.399999999999984
    37   1      3.7599999999999909      58.279999999999987      58.279999999999987
    38   1      5.6399999999999935      56.399999999999984      58.279999999999987
    39   1      5.6399999999999935      58.279999999999987      56.399999999999984
    40   1      3.7599999999999909      56.399999999999984      60.159999999999989
    41   1      3.7599999999999909      58.279999999999987      62.039999999999992
    42   1      5.6399999999999935      56.399999999999984      62.039999999999992
    43   1      5.6399999999999935      58.279999999999987      60.159999999999989
    44   1      5.6399999999999935      58.279999999999987      63.919999999999987
    45   1      5.6399999999999935      60.159999999999989      50.759999999999998
    46   1      3.7599999999999909      60.159999999999989      52.639999999999993
    47   1      3.7599999999999909      62.039999999999992      54.519999999999989
    48   1      5.6399999999999935      60.159999999999989      54.519999999999989
    49   1      5.6399999999999935      62.039999999999992      52.639999999999993
    50   1      3.7599999999999909      60.159999999999989      56.399999999999984
    51   1      3.7599999999999909      62.039999999999992      58.279999999999987
    52   1      5.6399999999999935      60.159999999999989      58.279999999999987
    53   1      5.6399999999999935      62.039999999999992      56.399999999999984
    54   1      3.7599999999999909      60.159999999999989      60.159999999999989
    55   1      5.6399999999999935      60.159999999999989      62.039999999999992
    56   1      5.6399999999999935      62.039999999999992      60.159999999999989
    57   1      5.6399999999999935      63.919999999999987      54.519999999999989
    58   1      5.6399999999999935      63.919999999999987      58.279999999999987
    59   1      9.3999999999999915      43.239999999999995      56.399999999999984
    60   1      9.3999999999999915      46.999999999999986      48.879999999999995
    61   1      7.5199999999999951      46.999999999999986      54.519999999999989
    62   1      9.3999999999999915       45.11999999999999      54.519999999999989
    63   1      9.3999999999999915      46.999999999999986      52.639999999999993
    64   1      7.5199999999999951       45.11999999999999      56.399999999999984
    65   1      7.5199999999999951      46.999999999999986      58.279999999999987
    66   1      9.3999999999999915       45.11999999999999      58.279999999999987
    67   1      9.3999999999999915      46.999999999999986      56.399999999999984
    68   1      9.3999999999999915      46.999999999999986      60.159999999999989
    69   1      9.3999999999999915      46.999999999999986      63.919999999999987
    70   1      9.3999999999999915      48.879999999999995      46.999999999999986
    71   1      7.5199999999999951      48.879999999999995      48.879999999999995
    72   1      7.5199999999999951      50.759999999999998      50.759999999999998
    73   1      9.3999999999999915      48.879999999999995      50.759999999999998
    74   1      9.3999999999999915      50.759999999999998      48.879999999999995
    75   1      7.5199999999999951      48.879999999999995      52.639999999999993
    76   1      7.5199999999999951      50.759999999999998      54.519999999999989
    77   1      9.3999999999999915      48.879999999999995      54.519999999999989
    78   1      9.3999999999999915      50.759999999999998      52.639999999999993
    79   1      7.5199999999999951      48.879999999999995      56.399999999999984
    80   1      7.5199999999999951      50.759999999999998      58.279999999999987
    81   1      9.3999999999999915      48.879999999999995      58.279999999999987
    82   1      9.3999999999999915      50.759999999999998      56.399999999999984
    83   1      7.5199999999999951      48.879999999999995      60.159999999999989
    84   1      7.5199999999999951      50.759999999999998      62.039999999999992
    85   1      9.3999999999999915      48.879999999999995      62.039999999999992
    86   1      9.3999999999999915      50.759999999999998      60.159999999999989
    87   1      7.5199999999999951      48.879999999999995      63.919999999999987
    88   1      9.3999999999999915      48.879999999999995      65.799999999999983
    89   1      9.3999999999999915      50.759999999999998      63.919999999999987
    90   1      7.5199999999999951      54.519999999999989      46.999999999999986
    91   1      9.3999999999999915      52.639999999999993      46.999999999999986
    92   1      9.3999999999999915      54.519999999999989       45.11999999999999
    93   1      7.5199999999999951      52.639999999999993      48.879999999999995
    94   1      7.5199999999999951      54.519999999999989      50.759999999999998
    95   1      9.3999999999999915      52.639999999999993      50.759999999999998
    96   1      9.3999999999999915      54.519999999999989      48.879999999999995
    97   1      7.5199999999999951      52.639999999999993      52.639999999999993
    98   1      7.5199999999999951      54.519999999999989      54.519999999999989
    99   1      9.3999999999999915      52.639999999999993      54.519999999999989
   100   1      9.3999999999999915      54.519999999999989      52.639999999999993
   101   1      7.5199999999999951      52.639999999999993      56.399999999999984
   102   1      7.5199999999999951      54.519999999999989      58.279999999999987
   103   1      9.3999999999999915      52.639999999999993      58.279999999999987
   104   1      9.3999999999999915      54.519999999999989      56.399999999999984
   105   1      7.5199999999999951      52.639999999999993      60.159999999999989
   106   1      7.5199999999999951      54.519999999999989      62.039999999999992
   107   1      9.3999999999999915      52.639999999999993      62.039999999999992
   108   1      9.3999999999999915      54.519999999999989      60.159999999999989
   109   1      7.5199999999999951      52.639999999999993      63.919999999999987
   110   1      7.5199999999999951      54.519999999999989      65.799999999999983
   111   1      9.3999999999999915      52.639999999999993      65.799999999999983
   112   1      9.3999999999999915      54.519999999999989      63.919999999999987
   113   1      9.3999999999999915      54.519999999999989      67.679999999999993
   114   1      9.3999999999999915      56.399999999999984      43.239999999999995
   115   1      7.5199999999999951      56.399999999999984       45.11999999999999
   116   1      7.5199999999999951      58.279999999999987      46.999999999999986
   117   1      9.3999999999999915      56.399999999999984      46.999999999999986
   118   1      9.3999999999999915      58.279999999999987       45.11999999999999
   119   1      7.5199999999999951      56.399999999999984      48.879999999999995
   120   1      7.5199999999999951      58.279999999999987      50.759999999999998
   121   1      9.3999999999999915      56.399999999999984      50.759999999999998
   122   1      9.3999999999999915      58.279999999999987      48.879999999999995
   123   1      7.5199999999999951      56.399999999999984      52.639999999999993
   124   1      7.5199999999999951      58.279999999999987      54.519999999999989
   125   1      9.3999999999999915      56.399999999999984      54.519999999999989
   126   1      9.3999999999999915      58.279999999999987      52.639999999999993
   127   1      7.5199999999999951      56.399999999999984      56.399999999999984
   128   1      7.5199999999999951      58.279999999999987      58.279999999999987
   129   1      9.3999999999999915      56.399999999999984      58.279999999999987
   130   1      9.3999999999999915      58.279999999999987      56.399999999999984
   131   1      7.5199999999999951      56.399999999999984      60.159999999999989
   132   1      7.5199999999999951      58.279999999999987      62.039999999999992
   133   1      9.3999999999999915      56.399999999999984      62.039999999999992
   134   1      9.3999999999999915      58.279999999999987      60.159999999999989
   135   1      7.5199999999999951      56.399999999999984      63.919999999999987
   136   1      7.5199999999999951      58.279999999999987      65.799999999999983
   137   1      9.3999999999999915      56.399999999999984      65.799999999999983
   138   1      9.3999999999999915      58.279999999999987      63.919999999999987
   139   1      7.5199999999999951      56.399999999999984      67.679999999999993
   140   1      9.3999999999999915      56.399999999999984      69.559999999999974
   141   1      9.3999999999999915      58.279999999999987      67.679999999999993
   142   1      9.3999999999999915      60.159999999999989      46.999999999999986
   143   1      7.5199999999999951      60.159999999999989      48.879999999999995
   144   1      7.5199999999999951      62.039999999999992      50.759999999999998
   145   1      9.3999999999999915      60.159999999999989      50.759999999999998
   146   1      9.3999999999999915      62.039999999999992      48.879999999999995
   147   1      7.5199999999999951      60.159999999999989      52.639999999999993
   148   1      7.5199999999999951      62.039999999999992      54.519999999999989
   149   1      9.3999999999999915      60.159999999999989      54.519999999999989
   150   1      9.3999999999999915      62.039999999999992      52.639999999999993
   151   1      7.5199999999999951      60.159999999999989      56.399999999999984
   152   1      7.5199999999999951      62.039999999999992      58.279999999999987
   153   1      9.3999999999999915      60.159999999999989      58.279999999999987
   154   1      9.3999999999999915      62.039999999999992      56.399999999999984
   155   1      7.5199999999999951      60.159999999999989      60.159999999999989
   156   1      7.5199999999999951      62.039999999999992      62.039999999999992
   157   1      9.3999999999999915      60.159999999999989      62.039999999999992
   158   1      9.3999999999999915      62.039999999999992      60.159999999999989
   159   1      7.5199999999999951      60.159999999999989      63.919999999999987
   160   1      9.3999999999999915      60.159999999999989      65.799999999999983
   161   1      9.3999999999999915      62.039999999999992      63.919999999999987
   162   1      9.3999999999999915      63.919999999999987      46.999999999999986
   163   1      7.5199999999999951      63.919999999999987      48.879999999999995
   164   1      9.3999999999999915      63.919999999999987      50.759999999999998
   165   1      9.3999999999999915      65.799999999999983      48.879999999999995
   166   1      7.5199999999999951      63.919999999999987      52.639999999999993
   167   1      7.5199999999999951      65.799999999999983      54.519999999999989
   168   1      9.3999999999999915      63.919999999999987      54.519999999999989
   169   1      9.3999999999999915      65.799999999999983      52.639999999999993
   170   1      7.5199999999999951      63.919999999999987      56.399999999999984
   171   1      7.5199999999999951      65.799999999999983      58.279999999999987
   172   1      9.3999999999999915      63.919999999999987      58.279999999999987
   173   1      9.3999999999999915      65.799999999999983      56.399999999999984
   174   1      7.5199999999999951      63.919999999999987      60.159999999999989
   175   1      9.3999999999999915      63.919999999999987      62.039999999999992
   176   1      9.3999999999999915      65.799999999999983      60.159999999999989
   177   1      7.5199999999999951      63.919999999999987      63.919999999999987
   178   1      9.3999999999999915      63.919999999999987      65.799999999999983
   179   1      9.3999999999999915      65.799999999999983      63.919999999999987
   180   1      9.3999999999999915      67.679999999999993      54.519999999999989
   181   1      7.5199999999999951      67.679999999999993      56.399999999999984
   182   1      9.3999999999999915      67.679999999999993      58.279999999999987
   183   1      9.3999999999999915      69.559999999999974      56.399999999999984
   184   1      13.159999999999997      39.479999999999997      56.399999999999984
   185   1      11.279999999999994      43.239999999999995      50.759999999999998
   186   1      13.159999999999997      41.359999999999992      50.759999999999998
   187   1      13.159999999999997      43.239999999999995      48.879999999999995
   188   1      11.279999999999994      43.239999999999995      54.519999999999989
   189   1      13.159999999999997      41.359999999999992      54.519999999999989
   190   1      13.159999999999997      43.239999999999995      52.639999999999993
   191   1      11.279999999999994      41.359999999999992      56.399999999999984
   192   1      11.279999999999994      43.239999999999995      58.279999999999987
   193   1      13.159999999999997      41.359999999999992      58.279999999999987
   194   1      13.159999999999997      43.239999999999995      56.399999999999984
   195   1      11.279999999999994      43.239999999999995      62.039999999999992
   196   1      13.159999999999997      41.359999999999992      62.039999999999992
   197   1      13.159999999999997      43.239999999999995      60.159999999999989
   198   1      13.159999999999997      43.239999999999995      63.919999999999987
   199   1      11.279999999999994      46.999999999999986      46.999999999999986
   200   1      13.159999999999997       45.11999999999999      46.999999999999986
   201   1      13.159999999999997      46.999999999999986       45.11999999999999
   202   1      11.279999999999994       45.11999999999999      48.879999999999995
   203   1      11.279999999999994      46.999999999999986      50.759999999999998
   204   1      13.159999999999997       45.11999999999999      50.759999999999998
   205   1      13.159999999999997      46.999999999999986      48.879999999999995
   206   1      11.279999999999994       45.11999999999999      52.639999999999993
   207   1      11.279999999999994      46.999999999999986      54.519999999999989
   208   1      13.159999999999997       45.11999999999999      54.519999999999989
   209   1      13.159999999999997      46.999999999999986      52.639999999999993
   210   1      11.279999999999994       45.11999999999999      56.399999999999984
   211   1      11.279999999999994      46.999999999999986      58.279999999999987
   212   1      13.159999999999997       45.11999999999999      58.279999999999987
   213   1      13.159999999999997      46.999999999999986      56.399999999999984
   214   1      11.279999999999994       45.11999999999999      60.159999999999989
   215   1      11.279999999999994      46.999999999999986      62.039999999999992
   216   1      13.159999999999997       45.11999999999999      62.039999999999992
   217   1      13.159999999999997      46.999999999999986      60.159999999999989
   218   1      11.279999999999994       45.11999999999999      63.919999999999987
   219   1      11.279999999999994      46.999999999999986      65.799999999999983
   220   1      13.159999999999997       45.11999999999999      65.799999999999983
   221   1      13.159999999999997      46.999999999999986      63.919999999999987
   222   1      13.159999999999997      46.999999999999986      67.679999999999993
   223   1      11.279999999999994      50.759999999999998      43.239999999999995
   224   1      13.159999999999997      48.879999999999995      43.239999999999995
   225   1      13.159999999999997      50.759999999999998      41.359999999999992
   226   1      11.279999999999994      48.879999999999995       45.11999999999999
   227   1      11.279999999999994      50.759999999999998      46.999999999999986
   228   1      13.159999999999997      48.879999999999995      46.999999999999986
   229   1      13.159999999999997      50.759999999999998       45.11999999999999
   230   1      11.279999999999994      48.879999999999995      48.879999999999995
   231   1      11.279999999999994      50.759999999999998      50.759999999999998
   232   1      13.159999999999997      48.879999999999995      50.759999999999998
   233   1      13.159999999999997      50.759999999999998      48.879999999999995
   234   1      11.279999999999994      48.879999999999995      52.639999999999993
   235   1      11.279999999999994      50.759999999999998      54.519999999999989
   236   1      13.159999999999997      48.879999999999995      54.519999999999989
   237   1      13.159999999999997      50.759999999999998      52.639999999999993
   238   1      11.279999999999994      48.879999999999995      56.399999999999984
   239   1      11.279999999999994      50.759999999999998      58.279999999999987
   240   1      13.159999999999997      48.879999999999995      58.279999999999987
   241   1      13.159999999999997      50.759999999999998      56.399999999999984
   242   1      11.279999999999994      48.879999999999995      60.159999999999989
   243   1      11.279999999999994      50.759999999999998      62.039999999999992
   244   1      13.159999999999997      48.879999999999995      62.039999999999992
   245   1      13.159999999999997      50.759999999999998      60.159999999999989
   246   1      11.279999999999994      48.879999999999995      63.919999999999987
   247   1      11.279999999999994      50.759999999999998      65.799999999999983
   248   1      13.159999999999997      48.879999999999995      65.799999999999983
   249   1      13.159999999999997      50.759999999999998      63.919999999999987
   250   1      11.279999999999994      48.879999999999995      67.679999999999993
   251   1      11.279999999999994      50.759999999999998      69.559999999999974
   252   1      13.159999999999997      48.879999999999995      69.559999999999974
   253   1      13.159999999999997      50.759999999999998      67.679999999999993
   254   1      13.159999999999997      50.759999999999998      71.439999999999984
   255   1      11.279999999999994      54.519999999999989      43.239999999999995
   256   1      13.159999999999997      52.639999999999993      43.239999999999995
   257   1      13.159999999999997      54.519999999999989      41.359999999999992
   258   1      11.279999999999994      52.639999999999993       45.11999999999999
   259   1      11.279999999999994      54.519999999999989      46.999999999999986
   260   1      13.159999999999997      52.639999999999993      46.999999999999986
   261   1      13.159999999999997      54.519999999999989       45.11999999999999
   262   1      11.279999999999994      52.639999999999993      48.879999999999995
   263   1      11.279999999999994      54.519999999999989      50.759999999999998
   264   1      13.159999999999997      52.639999999999993      50.759999999999998
   265   1      13.159999999999997      54.519999999999989      48.879999999999995
   266   1      11.279999999999994      52.639999999999993      52.639999999999993
   267   1      11.279999999999994      54.519999999999989      54.519999999999989
   268   1      13.159999999999997      52.639999999999993      54.519999999999989
   269   1      13.159999999999997      54.519999999999989      52.639999999999993
   270   1      11.279999999999994      52.639999999999993      56.399999999999984
   271   1      11.279999999999994      54.519999999999989      58.279999999999987
   272   1      13.159999999999997      52.639999999999993      58.279999999999987
   273   1      13.159999999999997      54.519999999999989      56.399999999999984
   274   1      11.279999999999994      52.639999999999993      60.159999999999989
   275   1      11.279999999999994      54.519999999999989      62.039999999999992
   276   1      13.159999999999997      52.639999999999993      62.039999999999992
   277   1      13.159999999999997      54.519999999999989      60.159999999999989
   278   1      11.279999999999994      52.639999999999993      63.919999999999987
   279   1      11.279999999999994      54.519999999999989      65.799999999999983
   280   1      13.159999999999997      52.639999999999993      65.799999999999983
   281   1      13.159999999999997      54.519999999999989      63.919999999999987
   282   1      11.279999999999994      52.639999999999993      67.679999999999993
   283   1      11.279999999999994      54.519999999999989      69.559999999999974
   284   1      13.159999999999997      52.639999999999993      69.559999999999974
   285   1      13.159999999999997      54.519999999999989      67.679999999999993
   286   1      13.159999999999997      54.519999999999989      71.439999999999984
   287   1      13.159999999999997      56.399999999999984      39.479999999999997
   288   1      11.279999999999994      56.399999999999984      41.359999999999992
   289   1      11.279999999999994      58.279999999999987      43.239999999999995
   290   1      13.159999999999997      56.399999999999984      43.239999999999995
   291   1      13.159999999999997      58.279999999999987      41.359999999999992
   292   1      11.279999999999994      56.399999999999984       45.11999999999999
   293   1      11.279999999999994      58.279999999999987      46.999999999999986
   294   1      13.159999999999997      56.399999999999984      46.999999999999986
   295   1      13.159999999999997      58.279999999999987       45.11999999999999
   296   1      11.279999999999994      56.399999999999984      48.879999999999995
   297   1      11.279999999999994      58.279999999999987      50.759999999999998
   298   1      13.159999999999997      56.399999999999984      50.759999999999998
   299   1      13.159999999999997      58.279999999999987      48.879999999999995
   300   1      11.279999999999994      56.399999999999984      52.639999999999993
   301   1      11.279999999999994      58.279999999999987      54.519999999999989
   302   1      13.159999999999997      56.399999999999984      54.519999999999989
   303   1      13.159999999999997      58.279999999999987      52.639999999999993
   304   1      11.279999999999994      56.399999999999984      56.399999999999984
   305   1      11.279999999999994      58.279999999999987      58.279999999999987
   306   1      13.159999999999997      56.399999999999984      58.279999999999987
   307   1      13.159999999999997      58.279999999999987      56.399999999999984
   308   1      11.279999999999994      56.399999999999984      60.159999999999989
   309   1      11.279999999999994      58.279999999999987      62.039999999999992
   310   1      13.159999999999997      56.399999999999984      62.039999999999992
   311   1      13.159999999999997      58.279999999999987      60.159999999999989
   312   1      11.279999999999994      56.399999999999984      63.919999999999987
   313   1      11.279999999999994      58.279999999999987      65.799999999999983
   314   1      13.159999999999997      56.399999999999984      65.799999999999983
   315   1      13.159999999999997      58.279999999999987      63.919999999999987
   316   1      11.279999999999994      56.399999999999984      67.679999999999993
   317   1      11.279999999999994      58.279999999999987      69.559999999999974
   318   1      13.159999999999997      56.399999999999984      69.559999999999974
   319   1      13.159999999999997      58.279999999999987      67.679999999999993
   320   1      11.279999999999994      56.399999999999984      71.439999999999984
   321   1      13.159999999999997      56.399999999999984      73.319999999999979
   322   1      13.159999999999997      58.279999999999987      71.439999999999984
   323   1      11.279999999999994      62.039999999999992      43.239999999999995
   324   1      13.159999999999997      60.159999999999989      43.239999999999995
   325   1      13.159999999999997      62.039999999999992      41.359999999999992
   326   1      11.279999999999994      60.159999999999989       45.11999999999999
   327   1      11.279999999999994      62.039999999999992      46.999999999999986
   328   1      13.159999999999997      60.159999999999989      46.999999999999986
   329   1      13.159999999999997      62.039999999999992       45.11999999999999
   330   1      11.279999999999994      60.159999999999989      48.879999999999995
   331   1      11.279999999999994      62.039999999999992      50.759999999999998
   332   1      13.159999999999997      60.159999999999989      50.759999999999998
   333   1      13.159999999999997      62.039999999999992      48.879999999999995
   334   1      11.279999999999994      60.159999999999989      52.639999999999993
   335   1      11.279999999999994      62.039999999999992      54.519999999999989
   336   1      13.159999999999997      60.159999999999989      54.519999999999989
   337   1      13.159999999999997      62.039999999999992      52.639999999999993
   338   1      11.279999999999994      60.159999999999989      56.399999999999984
   339   1      11.279999999999994      62.039999999999992      58.279999999999987
   340   1      13.159999999999997      60.159999999999989      58.279999999999987
   341   1      13.159999999999997      62.039999999999992      56.399999999999984
   342   1      11.279999999999994      60.159999999999989      60.159999999999989
   343   1      11.279999999999994      62.039999999999992      62.039999999999992
   344   1      13.159999999999997      60.159999999999989      62.039999999999992
   345   1      13.159999999999997      62.039999999999992      60.159999999999989
   346   1      11.279999999999994      60.159999999999989      63.919999999999987
   347   1      11.279999999999994      62.039999999999992      65.799999999999983
   348   1      13.159999999999997      60.159999999999989      65.799999999999983
   349   1      13.159999999999997      62.039999999999992      63.919999999999987
   350   1      11.279999999999994      60.159999999999989      67.679999999999993
   351   1      11.279999999999994      62.039999999999992      69.559999999999974
   352   1      13.159999999999997      60.159999999999989      69.559999999999974
   353   1      13.159999999999997      62.039999999999992      67.679999999999993
   354   1      13.159999999999997      62.039999999999992      71.439999999999984
   355   1      13.159999999999997      63.919999999999987      43.239999999999995
   356   1      11.279999999999994      63.919999999999987       45.11999999999999
   357   1      11.279999999999994      65.799999999999983      46.999999999999986
   358   1      13.159999999999997      63.919999999999987      46.999999999999986