model_files/Co/Co_30000/Co_322/data.Co_322_hcp_30187 (written by ASE) 

30187 	 atoms 
1  atom types
0.0                      77  xlo xhi
0.0                      77  ylo yhi
0.0                      77  zlo zhi


Atoms 

     1   1      1.2549999999999955      36.394999999999996      37.649999999999991
     2   1      1.2549999999999955      37.649999999999991      36.394999999999996
     3   1      76.999999999999986      37.649999999999991      37.649999999999991
     4   1      1.2549999999999955      37.649999999999991      38.904999999999994
     5   1      1.2549999999999955      38.904999999999994      37.649999999999991
     6   1      3.7649999999999935      31.374999999999996      37.649999999999991
     7   1      2.5099999999999909      33.884999999999998      36.394999999999996
     8   1      3.7649999999999935      32.629999999999995      36.394999999999996
     9   1      3.7649999999999935      33.884999999999998      35.139999999999993
    10   1      2.5099999999999909      32.629999999999995      37.649999999999991
    11   1      2.5099999999999909      33.884999999999998      38.904999999999994
    12   1      3.7649999999999935      32.629999999999995      38.904999999999994
    13   1      3.7649999999999935      33.884999999999998      37.649999999999991
    14   1      3.7649999999999935      33.884999999999998      40.159999999999989
    15   1      2.5099999999999909      36.394999999999996      33.884999999999998
    16   1      3.7649999999999935      35.139999999999993      33.884999999999998
    17   1      3.7649999999999935      36.394999999999996      32.629999999999995
    18   1      2.5099999999999909      35.139999999999993      35.139999999999993
    19   1      2.5099999999999909      36.394999999999996      36.394999999999996
    20   1      3.7649999999999935      35.139999999999993      36.394999999999996
    21   1      3.7649999999999935      36.394999999999996      35.139999999999993
    22   1      2.5099999999999909      35.139999999999993      37.649999999999991
    23   1      2.5099999999999909      36.394999999999996      38.904999999999994
    24   1      3.7649999999999935      35.139999999999993      38.904999999999994
    25   1      3.7649999999999935      36.394999999999996      37.649999999999991
    26   1      2.5099999999999909      35.139999999999993      40.159999999999989
    27   1      2.5099999999999909      36.394999999999996      41.414999999999999
    28   1      3.7649999999999935      35.139999999999993      41.414999999999999
    29   1      3.7649999999999935      36.394999999999996      40.159999999999989
    30   1      3.7649999999999935      36.394999999999996      42.669999999999995
    31   1      3.7649999999999935      37.649999999999991      31.374999999999996
    32   1      2.5099999999999909      37.649999999999991      32.629999999999995
    33   1      2.5099999999999909      38.904999999999994      33.884999999999998
    34   1      3.7649999999999935      37.649999999999991      33.884999999999998
    35   1      3.7649999999999935      38.904999999999994      32.629999999999995
    36   1      2.5099999999999909      37.649999999999991      35.139999999999993
    37   1      2.5099999999999909      38.904999999999994      36.394999999999996
    38   1      3.7649999999999935      37.649999999999991      36.394999999999996
    39   1      3.7649999999999935      38.904999999999994      35.139999999999993
    40   1      2.5099999999999909      37.649999999999991      37.649999999999991
    41   1      2.5099999999999909      38.904999999999994      38.904999999999994
    42   1      3.7649999999999935      37.649999999999991      38.904999999999994
    43   1      3.7649999999999935      38.904999999999994      37.649999999999991
    44   1      2.5099999999999909      37.649999999999991      40.159999999999989
    45   1      2.5099999999999909      38.904999999999994      41.414999999999999
    46   1      3.7649999999999935      37.649999999999991      41.414999999999999
    47   1      3.7649999999999935      38.904999999999994      40.159999999999989
    48   1      2.5099999999999909      37.649999999999991      42.669999999999995
    49   1      3.7649999999999935      37.649999999999991       43.92499999999999
    50   1      3.7649999999999935      38.904999999999994      42.669999999999995
    51   1      3.7649999999999935      40.159999999999989      33.884999999999998
    52   1      2.5099999999999909      40.159999999999989      35.139999999999993
    53   1      2.5099999999999909      41.414999999999999      36.394999999999996
    54   1      3.7649999999999935      40.159999999999989      36.394999999999996
    55   1      3.7649999999999935      41.414999999999999      35.139999999999993
    56   1      2.5099999999999909      40.159999999999989      37.649999999999991
    57   1      2.5099999999999909      41.414999999999999      38.904999999999994
    58   1      3.7649999999999935      40.159999999999989      38.904999999999994
    59   1      3.7649999999999935      41.414999999999999      37.649999999999991
    60   1      2.5099999999999909      40.159999999999989      40.159999999999989
    61   1      3.7649999999999935      40.159999999999989      41.414999999999999
    62   1      3.7649999999999935      41.414999999999999      40.159999999999989
    63   1      3.7649999999999935      42.669999999999995      36.394999999999996
    64   1      2.5099999999999909      42.669999999999995      37.649999999999991
    65   1      3.7649999999999935      42.669999999999995      38.904999999999994
    66   1      3.7649999999999935       43.92499999999999      37.649999999999991
    67   1      6.2749999999999959      28.864999999999995      37.649999999999991
    68   1      5.0199999999999969      31.374999999999996      36.394999999999996
    69   1      6.2749999999999959       30.11999999999999      36.394999999999996
    70   1      6.2749999999999959      31.374999999999996      35.139999999999993
    71   1      5.0199999999999969       30.11999999999999      37.649999999999991
    72   1      5.0199999999999969      31.374999999999996      38.904999999999994
    73   1      6.2749999999999959       30.11999999999999      38.904999999999994
    74   1      6.2749999999999959      31.374999999999996      37.649999999999991
    75   1      6.2749999999999959      31.374999999999996      40.159999999999989
    76   1      5.0199999999999969      33.884999999999998      33.884999999999998
    77   1      6.2749999999999959      32.629999999999995      33.884999999999998
    78   1      6.2749999999999959      33.884999999999998      32.629999999999995
    79   1      5.0199999999999969      32.629999999999995      35.139999999999993
    80   1      5.0199999999999969      33.884999999999998      36.394999999999996
    81   1      6.2749999999999959      32.629999999999995      36.394999999999996
    82   1      6.2749999999999959      33.884999999999998      35.139999999999993
    83   1      5.0199999999999969      32.629999999999995      37.649999999999991
    84   1      5.0199999999999969      33.884999999999998      38.904999999999994
    85   1      6.2749999999999959      32.629999999999995      38.904999999999994
    86   1      6.2749999999999959      33.884999999999998      37.649999999999991
    87   1      5.0199999999999969      32.629999999999995      40.159999999999989
    88   1      5.0199999999999969      33.884999999999998      41.414999999999999
    89   1      6.2749999999999959      32.629999999999995      41.414999999999999
    90   1      6.2749999999999959      33.884999999999998      40.159999999999989
    91   1      6.2749999999999959      33.884999999999998      42.669999999999995
    92   1      5.0199999999999969      36.394999999999996      31.374999999999996
    93   1      6.2749999999999959      35.139999999999993      31.374999999999996
    94   1      6.2749999999999959      36.394999999999996       30.11999999999999
    95   1      5.0199999999999969      35.139999999999993      32.629999999999995
    96   1      5.0199999999999969      36.394999999999996      33.884999999999998
    97   1      6.2749999999999959      35.139999999999993      33.884999999999998
    98   1      6.2749999999999959      36.394999999999996      32.629999999999995
    99   1      5.0199999999999969      35.139999999999993      35.139999999999993
   100   1      5.0199999999999969      36.394999999999996      36.394999999999996
   101   1      6.2749999999999959      35.139999999999993      36.394999999999996
   102   1      6.2749999999999959      36.394999999999996      35.139999999999993
   103   1      5.0199999999999969      35.139999999999993      37.649999999999991
   104   1      5.0199999999999969      36.394999999999996      38.904999999999994
   105   1      6.2749999999999959      35.139999999999993      38.904999999999994
   106   1      6.2749999999999959      36.394999999999996      37.649999999999991
   107   1      5.0199999999999969      35.139999999999993      40.159999999999989
   108   1      5.0199999999999969      36.394999999999996      41.414999999999999
   109   1      6.2749999999999959      35.139999999999993      41.414999999999999
   110   1      6.2749999999999959      36.394999999999996      40.159999999999989
   111   1      5.0199999999999969      35.139999999999993      42.669999999999995
   112   1      5.0199999999999969      36.394999999999996       43.92499999999999
   113   1      6.2749999999999959      35.139999999999993       43.92499999999999
   114   1      6.2749999999999959      36.394999999999996      42.669999999999995
   115   1      6.2749999999999959      36.394999999999996      45.179999999999993
   116   1      6.2749999999999959      37.649999999999991      28.864999999999995
   117   1      5.0199999999999969      37.649999999999991       30.11999999999999
   118   1      5.0199999999999969      38.904999999999994      31.374999999999996
   119   1      6.2749999999999959      37.649999999999991      31.374999999999996
   120   1      6.2749999999999959      38.904999999999994       30.11999999999999
   121   1      5.0199999999999969      37.649999999999991      32.629999999999995
   122   1      5.0199999999999969      38.904999999999994      33.884999999999998
   123   1      6.2749999999999959      37.649999999999991      33.884999999999998
   124   1      6.2749999999999959      38.904999999999994      32.629999999999995
   125   1      5.0199999999999969      37.649999999999991      35.139999999999993
   126   1      5.0199999999999969      38.904999999999994      36.394999999999996
   127   1      6.2749999999999959      37.649999999999991      36.394999999999996
   128   1      6.2749999999999959      38.904999999999994      35.139999999999993
   129   1      5.0199999999999969      37.649999999999991      37.649999999999991
   130   1      5.0199999999999969      38.904999999999994      38.904999999999994
   131   1      6.2749999999999959      37.649999999999991      38.904999999999994
   132   1      6.2749999999999959      38.904999999999994      37.649999999999991
   133   1      5.0199999999999969      37.649999999999991      40.159999999999989
   134   1      5.0199999999999969      38.904999999999994      41.414999999999999
   135   1      6.2749999999999959      37.649999999999991      41.414999999999999
   136   1      6.2749999999999959      38.904999999999994      40.159999999999989
   137   1      5.0199999999999969      37.649999999999991      42.669999999999995
   138   1      5.0199999999999969      38.904999999999994       43.92499999999999
   139   1      6.2749999999999959      37.649999999999991       43.92499999999999
   140   1      6.2749999999999959      38.904999999999994      42.669999999999995
   141   1      5.0199999999999969      37.649999999999991      45.179999999999993
   142   1      6.2749999999999959      37.649999999999991      46.435000000000002
   143   1      6.2749999999999959      38.904999999999994      45.179999999999993
   144   1      6.2749999999999959      40.159999999999989      31.374999999999996
   145   1      5.0199999999999969      40.159999999999989      32.629999999999995
   146   1      5.0199999999999969      41.414999999999999      33.884999999999998
   147   1      6.2749999999999959      40.159999999999989      33.884999999999998
   148   1      6.2749999999999959      41.414999999999999      32.629999999999995
   149   1      5.0199999999999969      40.159999999999989      35.139999999999993
   150   1      5.0199999999999969      41.414999999999999      36.394999999999996
   151   1      6.2749999999999959      40.159999999999989      36.394999999999996
   152   1      6.2749999999999959      41.414999999999999      35.139999999999993
   153   1      5.0199999999999969      40.159999999999989      37.649999999999991
   154   1      5.0199999999999969      41.414999999999999      38.904999999999994
   155   1      6.2749999999999959      40.159999999999989      38.904999999999994
   156   1      6.2749999999999959      41.414999999999999      37.649999999999991
   157   1      5.0199999999999969      40.159999999999989      40.159999999999989
   158   1      5.0199999999999969      41.414999999999999      41.414999999999999
   159   1      6.2749999999999959      40.159999999999989      41.414999999999999
   160   1      6.2749999999999959      41.414999999999999      40.159999999999989
   161   1      5.0199999999999969      40.159999999999989      42.669999999999995
   162   1      6.2749999999999959      40.159999999999989       43.92499999999999
   163   1      6.2749999999999959      41.414999999999999      42.669999999999995
   164   1      6.2749999999999959      42.669999999999995      33.884999999999998
   165   1      5.0199999999999969      42.669999999999995      35.139999999999993
   166   1      5.0199999999999969       43.92499999999999      36.394999999999996
   167   1      6.2749999999999959      42.669999999999995      36.394999999999996
   168   1      6.2749999999999959       43.92499999999999      35.139999999999993
   169   1      5.0199999999999969      42.669999999999995      37.649999999999991
   170   1      5.0199999999999969       43.92499999999999      38.904999999999994
   171   1      6.2749999999999959      42.669999999999995      38.904999999999994
   172   1      6.2749999999999959       43.92499999999999      37.649999999999991
   173   1      5.0199999999999969      42.669999999999995      40.159999999999989
   174   1      6.2749999999999959      42.669999999999995      41.414999999999999
   175   1      6.2749999999999959       43.92499999999999      40.159999999999989
   176   1      6.2749999999999959      45.179999999999993      36.394999999999996
   177   1      5.0199999999999969      45.179999999999993      37.649999999999991
   178   1      6.2749999999999959      45.179999999999993      38.904999999999994
   179   1      6.2749999999999959      46.435000000000002      37.649999999999991
   180   1       8.784999999999993      23.844999999999995      37.649999999999991
   181   1      7.5299999999999949      26.354999999999997      36.394999999999996
   182   1       8.784999999999993      25.099999999999994      36.394999999999996
   183   1       8.784999999999993      26.354999999999997      35.139999999999993
   184   1      7.5299999999999949      25.099999999999994      37.649999999999991
   185   1      7.5299999999999949      26.354999999999997      38.904999999999994
   186   1       8.784999999999993      25.099999999999994      38.904999999999994
   187   1       8.784999999999993      26.354999999999997      37.649999999999991
   188   1       8.784999999999993      26.354999999999997      40.159999999999989
   189   1      7.5299999999999949      28.864999999999995      33.884999999999998
   190   1       8.784999999999993      27.609999999999992      33.884999999999998
   191   1       8.784999999999993      28.864999999999995      32.629999999999995
   192   1      7.5299999999999949      27.609999999999992      35.139999999999993
   193   1      7.5299999999999949      28.864999999999995      36.394999999999996
   194   1       8.784999999999993      27.609999999999992      36.394999999999996
   195   1       8.784999999999993      28.864999999999995      35.139999999999993
   196   1      7.5299999999999949      27.609999999999992      37.649999999999991
   197   1      7.5299999999999949      28.864999999999995      38.904999999999994
   198   1       8.784999999999993      27.609999999999992      38.904999999999994
   199   1       8.784999999999993      28.864999999999995      37.649999999999991
   200   1      7.5299999999999949      27.609999999999992      40.159999999999989
   201   1      7.5299999999999949      28.864999999999995      41.414999999999999
   202   1       8.784999999999993      27.609999999999992      41.414999999999999
   203   1       8.784999999999993      28.864999999999995      40.159999999999989
   204   1       8.784999999999993      28.864999999999995      42.669999999999995
   205   1      7.5299999999999949      31.374999999999996      31.374999999999996
   206   1       8.784999999999993       30.11999999999999      31.374999999999996
   207   1       8.784999999999993      31.374999999999996       30.11999999999999
   208   1      7.5299999999999949       30.11999999999999      32.629999999999995
   209   1      7.5299999999999949      31.374999999999996      33.884999999999998
   210   1       8.784999999999993       30.11999999999999      33.884999999999998
   211   1       8.784999999999993      31.374999999999996      32.629999999999995
   212   1      7.5299999999999949       30.11999999999999      35.139999999999993
   213   1      7.5299999999999949      31.374999999999996      36.394999999999996
   214   1       8.784999999999993       30.11999999999999      36.394999999999996
   215   1       8.784999999999993      31.374999999999996      35.139999999999993
   216   1      7.5299999999999949       30.11999999999999      37.649999999999991
   217   1      7.5299999999999949      31.374999999999996      38.904999999999994
   218   1       8.784999999999993       30.11999999999999      38.904999999999994
   219   1       8.784999999999993      31.374999999999996      37.649999999999991
   220   1      7.5299999999999949       30.11999999999999      40.159999999999989
   221   1      7.5299999999999949      31.374999999999996      41.414999999999999
   222   1       8.784999999999993       30.11999999999999      41.414999999999999
   223   1       8.784999999999993      31.374999999999996      40.159999999999989
   224   1      7.5299999999999949       30.11999999999999      42.669999999999995
   225   1      7.5299999999999949      31.374999999999996       43.92499999999999
   226   1       8.784999999999993       30.11999999999999       43.92499999999999
   227   1       8.784999999999993      31.374999999999996      42.669999999999995
   228   1       8.784999999999993      31.374999999999996      45.179999999999993
   229   1      7.5299999999999949      33.884999999999998      28.864999999999995
   230   1       8.784999999999993      32.629999999999995      28.864999999999995
   231   1       8.784999999999993      33.884999999999998      27.609999999999992
   232   1      7.5299999999999949      32.629999999999995       30.11999999999999
   233   1      7.5299999999999949      33.884999999999998      31.374999999999996
   234   1       8.784999999999993      32.629999999999995      31.374999999999996
   235   1       8.784999999999993      33.884999999999998       30.11999999999999
   236   1      7.5299999999999949      32.629999999999995      32.629999999999995
   237   1      7.5299999999999949      33.884999999999998      33.884999999999998
   238   1       8.784999999999993      32.629999999999995      33.884999999999998
   239   1       8.784999999999993      33.884999999999998      32.629999999999995
   240   1      7.5299999999999949      32.629999999999995      35.139999999999993
   241   1      7.5299999999999949      33.884999999999998      36.394999999999996
   242   1       8.784999999999993      32.629999999999995      36.394999999999996
   243   1       8.784999999999993      33.884999999999998      35.139999999999993
   244   1      7.5299999999999949      32.629999999999995      37.649999999999991
   245   1      7.5299999999999949      33.884999999999998      38.904999999999994
   246   1       8.784999999999993      32.629999999999995      38.904999999999994
   247   1       8.784999999999993      33.884999999999998      37.649999999999991
   248   1      7.5299999999999949      32.629999999999995      40.159999999999989
   249   1      7.5299999999999949      33.884999999999998      41.414999999999999
   250   1       8.784999999999993      32.629999999999995      41.414999999999999
   251   1       8.784999999999993      33.884999999999998      40.159999999999989
   252   1      7.5299999999999949      32.629999999999995      42.669999999999995
   253   1      7.5299999999999949      33.884999999999998       43.92499999999999
   254   1       8.784999999999993      32.629999999999995       43.92499999999999
   255   1       8.784999999999993      33.884999999999998      42.669999999999995
   256   1      7.5299999999999949      32.629999999999995      45.179999999999993
   257   1      7.5299999999999949      33.884999999999998      46.435000000000002
   258   1       8.784999999999993      32.629999999999995      46.435000000000002
   259   1       8.784999999999993      33.884999999999998      45.179999999999993
   260   1       8.784999999999993      33.884999999999998      47.689999999999998
   261   1      7.5299999999999949      36.394999999999996      26.354999999999997
   262   1       8.784999999999993      35.139999999999993      26.354999999999997
   263   1       8.784999999999993      36.394999999999996      25.099999999999994
   264   1      7.5299999999999949      35.139999999999993      27.609999999999992
   265   1      7.5299999999999949      36.394999999999996      28.864999999999995
   266   1       8.784999999999993      35.139999999999993      28.864999999999995
   267   1       8.784999999999993      36.394999999999996      27.609999999999992
   268   1      7.5299999999999949      35.139999999999993       30.11999999999999
   269   1      7.5299999999999949      36.394999999999996      31.374999999999996
   270   1       8.784999999999993      35.139999999999993      31.374999999999996
   271   1       8.784999999999993      36.394999999999996       30.11999999999999
   272   1      7.5299999999999949      35.139999999999993      32.629999999999995
   273   1      7.5299999999999949      36.394999999999996      33.884999999999998
   274   1       8.784999999999993      35.139999999999993      33.884999999999998
   275   1       8.784999999999993      36.394999999999996      32.629999999999995
   276   1      7.5299999999999949      35.139999999999993      35.139999999999993
   277   1      7.5299999999999949      36.394999999999996      36.394999999999996
   278   1       8.784999999999993      35.139999999999993      36.394999999999996
   279   1       8.784999999999993      36.394999999999996      35.139999999999993
   280   1      7.5299999999999949      35.139999999999993      37.649999999999991
   281   1      7.5299999999999949      36.394999999999996      38.904999999999994
   282   1       8.784999999999993      35.139999999999993      38.904999999999994
   283   1       8.784999999999993      36.394999999999996      37.649999999999991
   284   1      7.5299999999999949      35.139999999999993      40.159999999999989
   285   1      7.5299999999999949      36.394999999999996      41.414999999999999
   286   1       8.784999999999993      35.139999999999993      41.414999999999999
   287   1       8.784999999999993      36.394999999999996      40.159999999999989
   288   1      7.5299999999999949      35.139999999999993      42.669999999999995
   289   1      7.5299999999999949      36.394999999999996       43.92499999999999
   290   1       8.784999999999993      35.139999999999993       43.92499999999999
   291   1       8.784999999999993      36.394999999999996      42.669999999999995
   292   1      7.5299999999999949      35.139999999999993      45.179999999999993
   293   1      7.5299999999999949      36.394999999999996      46.435000000000002
   294   1       8.784999999999993      35.139999999999993      46.435000000000002
   295   1       8.784999999999993      36.394999999999996      45.179999999999993
   296   1      7.5299999999999949      35.139999999999993      47.689999999999998
   297   1      7.5299999999999949      36.394999999999996      48.944999999999993
   298   1       8.784999999999993      35.139999999999993      48.944999999999993
   299   1       8.784999999999993      36.394999999999996      47.689999999999998
   300   1       8.784999999999993      36.394999999999996      50.199999999999989
   301   1       8.784999999999993      37.649999999999991      23.844999999999995
   302   1      7.5299999999999949      37.649999999999991      25.099999999999994
   303   1      7.5299999999999949      38.904999999999994      26.354999999999997
   304   1       8.784999999999993      37.649999999999991      26.354999999999997
   305   1       8.784999999999993      38.904999999999994      25.099999999999994
   306   1      7.5299999999999949      37.649999999999991      27.609999999999992
   307   1      7.5299999999999949      38.904999999999994      28.864999999999995
   308   1       8.784999999999993      37.649999999999991      28.864999999999995
   309   1       8.784999999999993      38.904999999999994      27.609999999999992
   310   1      7.5299999999999949      37.649999999999991       30.11999999999999
   311   1      7.5299999999999949      38.904999999999994      31.374999999999996
   312   1       8.784999999999993      37.649999999999991      31.374999999999996
   313   1       8.784999999999993      38.904999999999994       30.11999999999999
   314   1      7.5299999999999949      37.649999999999991      32.629999999999995
   315   1      7.5299999999999949      38.904999999999994      33.884999999999998
   316   1       8.784999999999993      37.649999999999991      33.884999999999998
   317   1       8.784999999999993      38.904999999999994      32.629999999999995
   318   1      7.5299999999999949      37.649999999999991      35.139999999999993
   319   1      7.5299999999999949      38.904999999999994      36.394999999999996
   320   1       8.784999999999993      37.649999999999991      36.394999999999996
   321   1       8.784999999999993      38.904999999999994      35.139999999999993
   322   1      7.5299999999999949      37.649999999999991      37.649999999999991
   323   1      7.5299999999999949      38.904999999999994      38.904999999999994
   324   1       8.784999999999993      37.649999999999991      38.904999999999994
   325   1       8.784999999999993      38.904999999999994      37.649999999999991
   326   1      7.5299999999999949      37.649999999999991      40.159999999999989
   327   1      7.5299999999999949      38.904999999999994      41.414999999999999
   328   1       8.784999999999993      37.649999999999991      41.414999999999999
   329   1       8.784999999999993      38.904999999999994      40.159999999999989
   330   1      7.5299999999999949      37.649999999999991      42.669999999999995
   331   1      7.5299999999999949      38.904999999999994       43.92499999999999
   332   1       8.784999999999993      37.649999999999991       43.92499999999999
   333   1       8.784999999999993      38.904999999999994      42.669999999999995
   334   1      7.5299999999999949      37.649999999999991      45.179999999999993
   335   1      7.5299999999999949      38.904999999999994      46.435000000000002
   336   1       8.784999999999993      37.649999999999991      46.435000000000002
   337   1       8.784999999999993      38.904999999999994      45.179999999999993
   338   1      7.5299999999999949      37.649999999999991      47.689999999999998
   339   1      7.5299999999999949      38.904999999999994      48.944999999999993
   340   1       8.784999999999993      37.649999999999991      48.944999999999993
   341   1       8.784999999999993      38.904999999999994      47.689999999999998
   342   1      7.5299999999999949      37.649999999999991      50.199999999999989
   343   1       8.784999999999993      37.649999999999991      51.454999999999998
   344   1       8.784999999999993      38.904999999999994      50.199999999999989
   345   1       8.784999999999993      40.159999999999989      26.354999999999997
   346   1      7.5299999999999949      40.159999999999989      27.609999999999992
   347   1      7.5299999999999949      41.414999999999999      28.864999999999995
   348   1       8.784999999999993      40.159999999999989      28.864999999999995
   349   1       8.784999999999993      41.414999999999999      27.609999999999992
   350   1      7.5299999999999949      40.159999999999989       30.11999999999999
   351   1      7.5299999999999949      41.414999999999999      31.374999999999996
   352   1       8.784999999999993      40.159999999999989      31.374999999999996
   353   1       8.784999999999993      41.414999999999999       30.11999999999999
   354   1      7.5299999999999949      40.159999999999989      32.629999999999995
   355   1      7.5299999999999949      41.414999999999999      33.884999999999998
   356   1       8.784999999999993      40.159999999999989      33.884999999999998
   357   1       8.784999999999993      41.414999999999999      32.629999999999995
   358   1      7.5299999999999949      40.159999999999989      35.139999999999993