model_files/CuFeNi/CuFeNi_30000/CuFeNi_320/CuFeNi_320_fcc_29879_temp.data (written by ASE) 

29879 	 atoms 
3  atom types
0.0                      98  xlo xhi
0.0                      98  ylo yhi
0.0                      98  zlo zhi


Atoms 

     1   1      1.9000000000000055      43.699999999999989      45.599999999999994
     2   1      1.9000000000000055      43.699999999999989      49.399999999999984
     3   1      1.9000000000000055      43.699999999999989      53.199999999999996
     4   1      1.9000000000000055      45.599999999999994      43.699999999999989
     5   1                       0      45.599999999999994      45.599999999999994
     6   1                       0      47.499999999999986      47.499999999999986
     7   1      1.9000000000000055      45.599999999999994      47.499999999999986
     8   1      1.9000000000000055      47.499999999999986      45.599999999999994
     9   1                       0      45.599999999999994      49.399999999999984
    10   1                       0      47.499999999999986      51.299999999999983
    11   1      1.9000000000000055      45.599999999999994      51.299999999999983
    12   1      1.9000000000000055      47.499999999999986      49.399999999999984
    13   1                       0      45.599999999999994      53.199999999999996
    14   1      1.9000000000000055      45.599999999999994      55.099999999999987
    15   1      1.9000000000000055      47.499999999999986      53.199999999999996
    16   1      1.9000000000000055      49.399999999999984      43.699999999999989
    17   1                       0      49.399999999999984      45.599999999999994
    18   1                       0      51.299999999999983      47.499999999999986
    19   1      1.9000000000000055      49.399999999999984      47.499999999999986
    20   1      1.9000000000000055      51.299999999999983      45.599999999999994
    21   1                       0      49.399999999999984      49.399999999999984
    22   1                       0      51.299999999999983      51.299999999999983
    23   1      1.9000000000000055      49.399999999999984      51.299999999999983
    24   1      1.9000000000000055      51.299999999999983      49.399999999999984
    25   1                       0      49.399999999999984      53.199999999999996
    26   1      1.9000000000000055      49.399999999999984      55.099999999999987
    27   1      1.9000000000000055      51.299999999999983      53.199999999999996
    28   1      1.9000000000000055      53.199999999999996      43.699999999999989
    29   1                       0      53.199999999999996      45.599999999999994
    30   1      1.9000000000000055      53.199999999999996      47.499999999999986
    31   1      1.9000000000000055      55.099999999999987      45.599999999999994
    32   1                       0      53.199999999999996      49.399999999999984
    33   1      1.9000000000000055      53.199999999999996      51.299999999999983
    34   1      1.9000000000000055      55.099999999999987      49.399999999999984
    35   1                       0      53.199999999999996      53.199999999999996
    36   1      1.9000000000000055      53.199999999999996      55.099999999999987
    37   1      1.9000000000000055      55.099999999999987      53.199999999999996
    38   1      3.8000000000000043      39.899999999999991      39.899999999999991
    39   1       5.700000000000002      37.999999999999986      39.899999999999991
    40   1       5.700000000000002      39.899999999999991      37.999999999999986
    41   1      3.8000000000000043      39.899999999999991      43.699999999999989
    42   1       5.700000000000002      37.999999999999986      43.699999999999989
    43   1       5.700000000000002      39.899999999999991      41.799999999999997
    44   1      3.8000000000000043      39.899999999999991      47.499999999999986
    45   1       5.700000000000002      37.999999999999986      47.499999999999986
    46   1       5.700000000000002      39.899999999999991      45.599999999999994
    47   1      3.8000000000000043      39.899999999999991      51.299999999999983
    48   1       5.700000000000002      37.999999999999986      51.299999999999983
    49   1       5.700000000000002      39.899999999999991      49.399999999999984
    50   1      3.8000000000000043      39.899999999999991      55.099999999999987
    51   1       5.700000000000002      37.999999999999986      55.099999999999987
    52   1       5.700000000000002      39.899999999999991      53.199999999999996
    53   1      3.8000000000000043      39.899999999999991      58.899999999999991
    54   1       5.700000000000002      37.999999999999986      58.899999999999991
    55   1       5.700000000000002      39.899999999999991      56.999999999999986
    56   1       5.700000000000002      39.899999999999991       60.79999999999999
    57   1      3.8000000000000043      43.699999999999989      39.899999999999991
    58   1       5.700000000000002      41.799999999999997      39.899999999999991
    59   1       5.700000000000002      43.699999999999989      37.999999999999986
    60   1      3.8000000000000043      41.799999999999997      41.799999999999997
    61   1      3.8000000000000043      43.699999999999989      43.699999999999989
    62   1       5.700000000000002      41.799999999999997      43.699999999999989
    63   1       5.700000000000002      43.699999999999989      41.799999999999997
    64   1      3.8000000000000043      41.799999999999997      45.599999999999994
    65   1      3.8000000000000043      43.699999999999989      47.499999999999986
    66   1       5.700000000000002      41.799999999999997      47.499999999999986
    67   1       5.700000000000002      43.699999999999989      45.599999999999994
    68   1      3.8000000000000043      41.799999999999997      49.399999999999984
    69   1      3.8000000000000043      43.699999999999989      51.299999999999983
    70   1       5.700000000000002      41.799999999999997      51.299999999999983
    71   1       5.700000000000002      43.699999999999989      49.399999999999984
    72   1      3.8000000000000043      41.799999999999997      53.199999999999996
    73   1      3.8000000000000043      43.699999999999989      55.099999999999987
    74   1       5.700000000000002      41.799999999999997      55.099999999999987
    75   1       5.700000000000002      43.699999999999989      53.199999999999996
    76   1      3.8000000000000043      41.799999999999997      56.999999999999986
    77   1      3.8000000000000043      43.699999999999989      58.899999999999991
    78   1       5.700000000000002      41.799999999999997      58.899999999999991
    79   1       5.700000000000002      43.699999999999989      56.999999999999986
    80   1       5.700000000000002      43.699999999999989       60.79999999999999
    81   1      3.8000000000000043      47.499999999999986      39.899999999999991
    82   1       5.700000000000002      45.599999999999994      39.899999999999991
    83   1       5.700000000000002      47.499999999999986      37.999999999999986
    84   1      3.8000000000000043      45.599999999999994      41.799999999999997
    85   1      3.8000000000000043      47.499999999999986      43.699999999999989
    86   1       5.700000000000002      45.599999999999994      43.699999999999989
    87   1       5.700000000000002      47.499999999999986      41.799999999999997
    88   1      3.8000000000000043      45.599999999999994      45.599999999999994
    89   1      3.8000000000000043      47.499999999999986      47.499999999999986
    90   1       5.700000000000002      45.599999999999994      47.499999999999986
    91   1       5.700000000000002      47.499999999999986      45.599999999999994
    92   1      3.8000000000000043      45.599999999999994      49.399999999999984
    93   1      3.8000000000000043      47.499999999999986      51.299999999999983
    94   1       5.700000000000002      45.599999999999994      51.299999999999983
    95   1       5.700000000000002      47.499999999999986      49.399999999999984
    96   1      3.8000000000000043      45.599999999999994      53.199999999999996
    97   1      3.8000000000000043      47.499999999999986      55.099999999999987
    98   1       5.700000000000002      45.599999999999994      55.099999999999987
    99   1       5.700000000000002      47.499999999999986      53.199999999999996
   100   1      3.8000000000000043      45.599999999999994      56.999999999999986
   101   1      3.8000000000000043      47.499999999999986      58.899999999999991
   102   1       5.700000000000002      45.599999999999994      58.899999999999991
   103   1       5.700000000000002      47.499999999999986      56.999999999999986
   104   1       5.700000000000002      47.499999999999986       60.79999999999999
   105   1      3.8000000000000043      51.299999999999983      39.899999999999991
   106   1       5.700000000000002      49.399999999999984      39.899999999999991
   107   1       5.700000000000002      51.299999999999983      37.999999999999986
   108   1      3.8000000000000043      49.399999999999984      41.799999999999997
   109   1      3.8000000000000043      51.299999999999983      43.699999999999989
   110   1       5.700000000000002      49.399999999999984      43.699999999999989
   111   1       5.700000000000002      51.299999999999983      41.799999999999997
   112   1      3.8000000000000043      49.399999999999984      45.599999999999994
   113   1      3.8000000000000043      51.299999999999983      47.499999999999986
   114   1       5.700000000000002      49.399999999999984      47.499999999999986
   115   1       5.700000000000002      51.299999999999983      45.599999999999994
   116   1      3.8000000000000043      49.399999999999984      49.399999999999984
   117   1      3.8000000000000043      51.299999999999983      51.299999999999983
   118   1       5.700000000000002      49.399999999999984      51.299999999999983
   119   1       5.700000000000002      51.299999999999983      49.399999999999984
   120   1      3.8000000000000043      49.399999999999984      53.199999999999996
   121   1      3.8000000000000043      51.299999999999983      55.099999999999987
   122   1       5.700000000000002      49.399999999999984      55.099999999999987
   123   1       5.700000000000002      51.299999999999983      53.199999999999996
   124   1      3.8000000000000043      49.399999999999984      56.999999999999986
   125   1      3.8000000000000043      51.299999999999983      58.899999999999991
   126   1       5.700000000000002      49.399999999999984      58.899999999999991
   127   1       5.700000000000002      51.299999999999983      56.999999999999986
   128   1       5.700000000000002      51.299999999999983       60.79999999999999
   129   1      3.8000000000000043      55.099999999999987      39.899999999999991
   130   1       5.700000000000002      53.199999999999996      39.899999999999991
   131   1       5.700000000000002      55.099999999999987      37.999999999999986
   132   1      3.8000000000000043      53.199999999999996      41.799999999999997
   133   1      3.8000000000000043      55.099999999999987      43.699999999999989
   134   1       5.700000000000002      53.199999999999996      43.699999999999989
   135   1       5.700000000000002      55.099999999999987      41.799999999999997
   136   1      3.8000000000000043      53.199999999999996      45.599999999999994
   137   1      3.8000000000000043      55.099999999999987      47.499999999999986
   138   1       5.700000000000002      53.199999999999996      47.499999999999986
   139   1       5.700000000000002      55.099999999999987      45.599999999999994
   140   1      3.8000000000000043      53.199999999999996      49.399999999999984
   141   1      3.8000000000000043      55.099999999999987      51.299999999999983
   142   1       5.700000000000002      53.199999999999996      51.299999999999983
   143   1       5.700000000000002      55.099999999999987      49.399999999999984
   144   1      3.8000000000000043      53.199999999999996      53.199999999999996
   145   1      3.8000000000000043      55.099999999999987      55.099999999999987
   146   1       5.700000000000002      53.199999999999996      55.099999999999987
   147   1       5.700000000000002      55.099999999999987      53.199999999999996
   148   1      3.8000000000000043      53.199999999999996      56.999999999999986
   149   1      3.8000000000000043      55.099999999999987      58.899999999999991
   150   1       5.700000000000002      53.199999999999996      58.899999999999991
   151   1       5.700000000000002      55.099999999999987      56.999999999999986
   152   1       5.700000000000002      55.099999999999987       60.79999999999999
   153   1      3.8000000000000043      58.899999999999991      39.899999999999991
   154   1       5.700000000000002      56.999999999999986      39.899999999999991
   155   1       5.700000000000002      58.899999999999991      37.999999999999986
   156   1      3.8000000000000043      56.999999999999986      41.799999999999997
   157   1      3.8000000000000043      58.899999999999991      43.699999999999989
   158   1       5.700000000000002      56.999999999999986      43.699999999999989
   159   1       5.700000000000002      58.899999999999991      41.799999999999997
   160   1      3.8000000000000043      56.999999999999986      45.599999999999994
   161   1      3.8000000000000043      58.899999999999991      47.499999999999986
   162   1       5.700000000000002      56.999999999999986      47.499999999999986
   163   1       5.700000000000002      58.899999999999991      45.599999999999994
   164   1      3.8000000000000043      56.999999999999986      49.399999999999984
   165   1      3.8000000000000043      58.899999999999991      51.299999999999983
   166   1       5.700000000000002      56.999999999999986      51.299999999999983
   167   1       5.700000000000002      58.899999999999991      49.399999999999984
   168   1      3.8000000000000043      56.999999999999986      53.199999999999996
   169   1      3.8000000000000043      58.899999999999991      55.099999999999987
   170   1       5.700000000000002      56.999999999999986      55.099999999999987
   171   1       5.700000000000002      58.899999999999991      53.199999999999996
   172   1      3.8000000000000043      56.999999999999986      56.999999999999986
   173   1      3.8000000000000043      58.899999999999991      58.899999999999991
   174   1       5.700000000000002      56.999999999999986      58.899999999999991
   175   1       5.700000000000002      58.899999999999991      56.999999999999986
   176   1       5.700000000000002      58.899999999999991       60.79999999999999
   177   1       5.700000000000002       60.79999999999999      39.899999999999991
   178   1       5.700000000000002       60.79999999999999      43.699999999999989
   179   1       5.700000000000002       60.79999999999999      47.499999999999986
   180   1       5.700000000000002       60.79999999999999      51.299999999999983
   181   1       5.700000000000002       60.79999999999999      55.099999999999987
   182   1       5.700000000000002       60.79999999999999      58.899999999999991
   183   1                     9.5      32.299999999999997      34.199999999999989
   184   1                     9.5      32.299999999999997      37.999999999999986
   185   1                     9.5      32.299999999999997      41.799999999999997
   186   1                     9.5      32.299999999999997      45.599999999999994
   187   1                     9.5      32.299999999999997      49.399999999999984
   188   1                     9.5      32.299999999999997      53.199999999999996
   189   1                     9.5      32.299999999999997      56.999999999999986
   190   1                     9.5      32.299999999999997       60.79999999999999
   191   1                     9.5      32.299999999999997      64.599999999999994
   192   1                     9.5      34.199999999999989      32.299999999999997
   193   1      7.6000000000000014      34.199999999999989      34.199999999999989
   194   1      7.6000000000000014      36.099999999999994      36.099999999999994
   195   1                     9.5      34.199999999999989      36.099999999999994
   196   1                     9.5      36.099999999999994      34.199999999999989
   197   1      7.6000000000000014      34.199999999999989      37.999999999999986
   198   1      7.6000000000000014      36.099999999999994      39.899999999999991
   199   1                     9.5      34.199999999999989      39.899999999999991
   200   1                     9.5      36.099999999999994      37.999999999999986
   201   1      7.6000000000000014      34.199999999999989      41.799999999999997
   202   1      7.6000000000000014      36.099999999999994      43.699999999999989
   203   1                     9.5      34.199999999999989      43.699999999999989
   204   1                     9.5      36.099999999999994      41.799999999999997
   205   1      7.6000000000000014      34.199999999999989      45.599999999999994
   206   1      7.6000000000000014      36.099999999999994      47.499999999999986
   207   1                     9.5      34.199999999999989      47.499999999999986
   208   1                     9.5      36.099999999999994      45.599999999999994
   209   1      7.6000000000000014      34.199999999999989      49.399999999999984
   210   1      7.6000000000000014      36.099999999999994      51.299999999999983
   211   1                     9.5      34.199999999999989      51.299999999999983
   212   1                     9.5      36.099999999999994      49.399999999999984
   213   1      7.6000000000000014      34.199999999999989      53.199999999999996
   214   1      7.6000000000000014      36.099999999999994      55.099999999999987
   215   1                     9.5      34.199999999999989      55.099999999999987
   216   1                     9.5      36.099999999999994      53.199999999999996
   217   1      7.6000000000000014      34.199999999999989      56.999999999999986
   218   1      7.6000000000000014      36.099999999999994      58.899999999999991
   219   1                     9.5      34.199999999999989      58.899999999999991
   220   1                     9.5      36.099999999999994      56.999999999999986
   221   1      7.6000000000000014      34.199999999999989       60.79999999999999
   222   1      7.6000000000000014      36.099999999999994      62.700000000000003
   223   1                     9.5      34.199999999999989      62.700000000000003
   224   1                     9.5      36.099999999999994       60.79999999999999
   225   1      7.6000000000000014      34.199999999999989      64.599999999999994
   226   1                     9.5      34.199999999999989      66.499999999999986
   227   1                     9.5      36.099999999999994      64.599999999999994
   228   1                     9.5      37.999999999999986      32.299999999999997
   229   1      7.6000000000000014      37.999999999999986      34.199999999999989
   230   1      7.6000000000000014      39.899999999999991      36.099999999999994
   231   1                     9.5      37.999999999999986      36.099999999999994
   232   1                     9.5      39.899999999999991      34.199999999999989
   233   1      7.6000000000000014      37.999999999999986      37.999999999999986
   234   1      7.6000000000000014      39.899999999999991      39.899999999999991
   235   1                     9.5      37.999999999999986      39.899999999999991
   236   1                     9.5      39.899999999999991      37.999999999999986
   237   1      7.6000000000000014      37.999999999999986      41.799999999999997
   238   1      7.6000000000000014      39.899999999999991      43.699999999999989
   239   1                     9.5      37.999999999999986      43.699999999999989
   240   1                     9.5      39.899999999999991      41.799999999999997
   241   1      7.6000000000000014      37.999999999999986      45.599999999999994
   242   1      7.6000000000000014      39.899999999999991      47.499999999999986
   243   1                     9.5      37.999999999999986      47.499999999999986
   244   1                     9.5      39.899999999999991      45.599999999999994
   245   1      7.6000000000000014      37.999999999999986      49.399999999999984
   246   1      7.6000000000000014      39.899999999999991      51.299999999999983
   247   1                     9.5      37.999999999999986      51.299999999999983
   248   1                     9.5      39.899999999999991      49.399999999999984
   249   1      7.6000000000000014      37.999999999999986      53.199999999999996
   250   1      7.6000000000000014      39.899999999999991      55.099999999999987
   251   1                     9.5      37.999999999999986      55.099999999999987
   252   1                     9.5      39.899999999999991      53.199999999999996
   253   1      7.6000000000000014      37.999999999999986      56.999999999999986
   254   1      7.6000000000000014      39.899999999999991      58.899999999999991
   255   1                     9.5      37.999999999999986      58.899999999999991
   256   1                     9.5      39.899999999999991      56.999999999999986
   257   1      7.6000000000000014      37.999999999999986       60.79999999999999
   258   1      7.6000000000000014      39.899999999999991      62.700000000000003
   259   1                     9.5      37.999999999999986      62.700000000000003
   260   1                     9.5      39.899999999999991       60.79999999999999
   261   1      7.6000000000000014      37.999999999999986      64.599999999999994
   262   1                     9.5      37.999999999999986      66.499999999999986
   263   1                     9.5      39.899999999999991      64.599999999999994
   264   1                     9.5      41.799999999999997      32.299999999999997
   265   1      7.6000000000000014      41.799999999999997      34.199999999999989
   266   1      7.6000000000000014      43.699999999999989      36.099999999999994
   267   1                     9.5      41.799999999999997      36.099999999999994
   268   1                     9.5      43.699999999999989      34.199999999999989
   269   1      7.6000000000000014      41.799999999999997      37.999999999999986
   270   1      7.6000000000000014      43.699999999999989      39.899999999999991
   271   1                     9.5      41.799999999999997      39.899999999999991
   272   1                     9.5      43.699999999999989      37.999999999999986
   273   1      7.6000000000000014      41.799999999999997      41.799999999999997
   274   1      7.6000000000000014      43.699999999999989      43.699999999999989
   275   1                     9.5      41.799999999999997      43.699999999999989
   276   1                     9.5      43.699999999999989      41.799999999999997
   277   1      7.6000000000000014      41.799999999999997      45.599999999999994
   278   1      7.6000000000000014      43.699999999999989      47.499999999999986
   279   1                     9.5      41.799999999999997      47.499999999999986
   280   1                     9.5      43.699999999999989      45.599999999999994
   281   1      7.6000000000000014      41.799999999999997      49.399999999999984
   282   1      7.6000000000000014      43.699999999999989      51.299999999999983
   283   1                     9.5      41.799999999999997      51.299999999999983
   284   1                     9.5      43.699999999999989      49.399999999999984
   285   1      7.6000000000000014      41.799999999999997      53.199999999999996
   286   1      7.6000000000000014      43.699999999999989      55.099999999999987
   287   1                     9.5      41.799999999999997      55.099999999999987
   288   1                     9.5      43.699999999999989      53.199999999999996
   289   1      7.6000000000000014      41.799999999999997      56.999999999999986
   290   1      7.6000000000000014      43.699999999999989      58.899999999999991
   291   1                     9.5      41.799999999999997      58.899999999999991
   292   1                     9.5      43.699999999999989      56.999999999999986
   293   1      7.6000000000000014      41.799999999999997       60.79999999999999
   294   1      7.6000000000000014      43.699999999999989      62.700000000000003
   295   1                     9.5      41.799999999999997      62.700000000000003
   296   1                     9.5      43.699999999999989       60.79999999999999
   297   1      7.6000000000000014      41.799999999999997      64.599999999999994
   298   1                     9.5      41.799999999999997      66.499999999999986
   299   1                     9.5      43.699999999999989      64.599999999999994
   300   1                     9.5      45.599999999999994      32.299999999999997
   301   1      7.6000000000000014      45.599999999999994      34.199999999999989
   302   1      7.6000000000000014      47.499999999999986      36.099999999999994
   303   1                     9.5      45.599999999999994      36.099999999999994
   304   1                     9.5      47.499999999999986      34.199999999999989
   305   1      7.6000000000000014      45.599999999999994      37.999999999999986
   306   1      7.6000000000000014      47.499999999999986      39.899999999999991
   307   1                     9.5      45.599999999999994      39.899999999999991
   308   1                     9.5      47.499999999999986      37.999999999999986
   309   1      7.6000000000000014      45.599999999999994      41.799999999999997
   310   1      7.6000000000000014      47.499999999999986      43.699999999999989
   311   1                     9.5      45.599999999999994      43.699999999999989
   312   1                     9.5      47.499999999999986      41.799999999999997
   313   1      7.6000000000000014      45.599999999999994      45.599999999999994
   314   1      7.6000000000000014      47.499999999999986      47.499999999999986
   315   1                     9.5      45.599999999999994      47.499999999999986
   316   1                     9.5      47.499999999999986      45.599999999999994
   317   1      7.6000000000000014      45.599999999999994      49.399999999999984
   318   1      7.6000000000000014      47.499999999999986      51.299999999999983
   319   1                     9.5      45.599999999999994      51.299999999999983
   320   1                     9.5      47.499999999999986      49.399999999999984
   321   1      7.6000000000000014      45.599999999999994      53.199999999999996
   322   1      7.6000000000000014      47.499999999999986      55.099999999999987
   323   1                     9.5      45.599999999999994      55.099999999999987
   324   1                     9.5      47.499999999999986      53.199999999999996
   325   1      7.6000000000000014      45.599999999999994      56.999999999999986
   326   1      7.6000000000000014      47.499999999999986      58.899999999999991
   327   1                     9.5      45.599999999999994      58.899999999999991
   328   1                     9.5      47.499999999999986      56.999999999999986
   329   1      7.6000000000000014      45.599999999999994       60.79999999999999
   330   1      7.6000000000000014      47.499999999999986      62.700000000000003
   331   1                     9.5      45.599999999999994      62.700000000000003
   332   1                     9.5      47.499999999999986       60.79999999999999
   333   1      7.6000000000000014      45.599999999999994      64.599999999999994
   334   1                     9.5      45.599999999999994      66.499999999999986
   335   1                     9.5      47.499999999999986      64.599999999999994
   336   1                     9.5      49.399999999999984      32.299999999999997
   337   1      7.6000000000000014      49.399999999999984      34.199999999999989
   338   1      7.6000000000000014      51.299999999999983      36.099999999999994
   339   1                     9.5      49.399999999999984      36.099999999999994
   340   1                     9.5      51.299999999999983      34.199999999999989
   341   1      7.6000000000000014      49.399999999999984      37.999999999999986
   342   1      7.6000000000000014      51.299999999999983      39.899999999999991
   343   1                     9.5      49.399999999999984      39.899999999999991
   344   1                     9.5      51.299999999999983      37.999999999999986
   345   1      7.6000000000000014      49.399999999999984      41.799999999999997
   346   1      7.6000000000000014      51.299999999999983      43.699999999999989
   347   1                     9.5      49.399999999999984      43.699999999999989
   348   1                     9.5      51.299999999999983      41.799999999999997
   349   1      7.6000000000000014      49.399999999999984      45.599999999999994
   350   1      7.6000000000000014      51.299999999999983      47.499999999999986
   351   1                     9.5      49.399999999999984      47.499999999999986
   352   1                     9.5      51.299999999999983      45.599999999999994
   353   1      7.6000000000000014      49.399999999999984      49.399999999999984
   354   1      7.6000000000000014      51.299999999999983      51.299999999999983
   355   1                     9.5      49.399999999999984      51.299999999999983
   356   1                     9.5      51.299999999999983      49.399999999999984
   357   1      7.6000000000000014      49.399999999999984      53.199999999999996
   358   1      7.6000000000000014      51.299999999999983      55.099999999999987