model_files/Pt/Pt_3000/Pt_521/data.Pt_521_fcc_3007 (written by ASE) 

3007 	 atoms 
1  atom types
0.0                      45  xlo xhi
0.0                      45  ylo yhi
0.0                      45  zlo zhi


Atoms 

     1   1                       0      19.600000000000001      21.559999999999999
     2   1                       0      21.559999999999999      19.600000000000001
     3   1                       0      21.559999999999999      23.520000000000003
     4   1                       0      23.520000000000003      21.559999999999999
     5   1      3.9199999999999982      7.8399999999999999      21.559999999999999
     6   1      3.9199999999999982      11.759999999999998      13.719999999999999
     7   1      3.9199999999999982      9.7999999999999989      19.600000000000001
     8   1      3.9199999999999982      11.759999999999998      17.640000000000001
     9   1      3.9199999999999982      9.7999999999999989      23.520000000000003
    10   1      3.9199999999999982      11.759999999999998      21.559999999999999
    11   1      3.9199999999999982      11.759999999999998      25.479999999999997
    12   1      3.9199999999999982      11.759999999999998      29.399999999999999
    13   1      3.9199999999999982      13.719999999999999      11.759999999999998
    14   1      1.9599999999999975                   15.68                   15.68
    15   1      3.9199999999999982      13.719999999999999                   15.68
    16   1      3.9199999999999982                   15.68      13.719999999999999
    17   1      1.9599999999999975                   15.68      19.600000000000001
    18   1      3.9199999999999982      13.719999999999999      19.600000000000001
    19   1      3.9199999999999982                   15.68      17.640000000000001
    20   1      1.9599999999999975      13.719999999999999      21.559999999999999
    21   1      1.9599999999999975                   15.68      23.520000000000003
    22   1      3.9199999999999982      13.719999999999999      23.520000000000003
    23   1      3.9199999999999982                   15.68      21.559999999999999
    24   1      1.9599999999999975                   15.68      27.439999999999998
    25   1      3.9199999999999982      13.719999999999999      27.439999999999998
    26   1      3.9199999999999982                   15.68      25.479999999999997
    27   1      3.9199999999999982      13.719999999999999      31.359999999999999
    28   1      3.9199999999999982                   15.68      29.399999999999999
    29   1      3.9199999999999982      17.640000000000001      11.759999999999998
    30   1      3.9199999999999982      19.600000000000001      9.7999999999999989
    31   1      1.9599999999999975      19.600000000000001                   15.68
    32   1      3.9199999999999982      17.640000000000001                   15.68
    33   1      3.9199999999999982      19.600000000000001      13.719999999999999
    34   1      1.9599999999999975      17.640000000000001      17.640000000000001
    35   1      1.9599999999999975      19.600000000000001      19.600000000000001
    36   1      3.9199999999999982      17.640000000000001      19.600000000000001
    37   1      3.9199999999999982      19.600000000000001      17.640000000000001
    38   1      1.9599999999999975      17.640000000000001      21.559999999999999
    39   1      1.9599999999999975      19.600000000000001      23.520000000000003
    40   1      3.9199999999999982      17.640000000000001      23.520000000000003
    41   1      3.9199999999999982      19.600000000000001      21.559999999999999
    42   1      1.9599999999999975      17.640000000000001      25.479999999999997
    43   1      1.9599999999999975      19.600000000000001      27.439999999999998
    44   1      3.9199999999999982      17.640000000000001      27.439999999999998
    45   1      3.9199999999999982      19.600000000000001      25.479999999999997
    46   1      3.9199999999999982      17.640000000000001      31.359999999999999
    47   1      3.9199999999999982      19.600000000000001      29.399999999999999
    48   1      3.9199999999999982      19.600000000000001                   33.32
    49   1      3.9199999999999982      21.559999999999999      7.8399999999999999
    50   1      3.9199999999999982      21.559999999999999      11.759999999999998
    51   1      3.9199999999999982      23.520000000000003      9.7999999999999989
    52   1      1.9599999999999975      21.559999999999999      13.719999999999999
    53   1      1.9599999999999975      23.520000000000003                   15.68
    54   1      3.9199999999999982      21.559999999999999                   15.68
    55   1      3.9199999999999982      23.520000000000003      13.719999999999999
    56   1      1.9599999999999975      21.559999999999999      17.640000000000001
    57   1      1.9599999999999975      23.520000000000003      19.600000000000001
    58   1      3.9199999999999982      21.559999999999999      19.600000000000001
    59   1      3.9199999999999982      23.520000000000003      17.640000000000001
    60   1      1.9599999999999975      21.559999999999999      21.559999999999999
    61   1      1.9599999999999975      23.520000000000003      23.520000000000003
    62   1      3.9199999999999982      21.559999999999999      23.520000000000003
    63   1      3.9199999999999982      23.520000000000003      21.559999999999999
    64   1      1.9599999999999975      21.559999999999999      25.479999999999997
    65   1      1.9599999999999975      23.520000000000003      27.439999999999998
    66   1      3.9199999999999982      21.559999999999999      27.439999999999998
    67   1      3.9199999999999982      23.520000000000003      25.479999999999997
    68   1      1.9599999999999975      21.559999999999999      29.399999999999999
    69   1      3.9199999999999982      21.559999999999999      31.359999999999999
    70   1      3.9199999999999982      23.520000000000003      29.399999999999999
    71   1      3.9199999999999982      21.559999999999999      35.280000000000001
    72   1      3.9199999999999982      23.520000000000003                   33.32
    73   1      3.9199999999999982      25.479999999999997      11.759999999999998
    74   1      1.9599999999999975      27.439999999999998                   15.68
    75   1      3.9199999999999982      25.479999999999997                   15.68
    76   1      3.9199999999999982      27.439999999999998      13.719999999999999
    77   1      1.9599999999999975      25.479999999999997      17.640000000000001
    78   1      1.9599999999999975      27.439999999999998      19.600000000000001
    79   1      3.9199999999999982      25.479999999999997      19.600000000000001
    80   1      3.9199999999999982      27.439999999999998      17.640000000000001
    81   1      1.9599999999999975      25.479999999999997      21.559999999999999
    82   1      1.9599999999999975      27.439999999999998      23.520000000000003
    83   1      3.9199999999999982      25.479999999999997      23.520000000000003
    84   1      3.9199999999999982      27.439999999999998      21.559999999999999
    85   1      1.9599999999999975      25.479999999999997      25.479999999999997
    86   1      1.9599999999999975      27.439999999999998      27.439999999999998
    87   1      3.9199999999999982      25.479999999999997      27.439999999999998
    88   1      3.9199999999999982      27.439999999999998      25.479999999999997
    89   1      3.9199999999999982      25.479999999999997      31.359999999999999
    90   1      3.9199999999999982      27.439999999999998      29.399999999999999
    91   1      3.9199999999999982      29.399999999999999      11.759999999999998
    92   1      3.9199999999999982      29.399999999999999                   15.68
    93   1      3.9199999999999982      31.359999999999999      13.719999999999999
    94   1      3.9199999999999982      29.399999999999999      19.600000000000001
    95   1      3.9199999999999982      31.359999999999999      17.640000000000001
    96   1      1.9599999999999975      29.399999999999999      21.559999999999999
    97   1      3.9199999999999982      29.399999999999999      23.520000000000003
    98   1      3.9199999999999982      31.359999999999999      21.559999999999999
    99   1      3.9199999999999982      29.399999999999999      27.439999999999998
   100   1      3.9199999999999982      31.359999999999999      25.479999999999997
   101   1      3.9199999999999982      29.399999999999999      31.359999999999999
   102   1      3.9199999999999982      31.359999999999999      29.399999999999999
   103   1      3.9199999999999982                   33.32      19.600000000000001
   104   1      3.9199999999999982                   33.32      23.520000000000003
   105   1      3.9199999999999982      35.280000000000001      21.559999999999999
   106   1      7.8399999999999999      3.9199999999999982      21.559999999999999
   107   1       5.879999999999999      7.8399999999999999      11.759999999999998
   108   1      7.8399999999999999       5.879999999999999      11.759999999999998
   109   1      7.8399999999999999      7.8399999999999999      9.7999999999999989
   110   1       5.879999999999999      7.8399999999999999                   15.68
   111   1      7.8399999999999999       5.879999999999999                   15.68
   112   1      7.8399999999999999      7.8399999999999999      13.719999999999999
   113   1       5.879999999999999       5.879999999999999      17.640000000000001
   114   1       5.879999999999999      7.8399999999999999      19.600000000000001
   115   1      7.8399999999999999       5.879999999999999      19.600000000000001
   116   1      7.8399999999999999      7.8399999999999999      17.640000000000001
   117   1       5.879999999999999       5.879999999999999      21.559999999999999
   118   1       5.879999999999999      7.8399999999999999      23.520000000000003
   119   1      7.8399999999999999       5.879999999999999      23.520000000000003
   120   1      7.8399999999999999      7.8399999999999999      21.559999999999999
   121   1       5.879999999999999       5.879999999999999      25.479999999999997
   122   1       5.879999999999999      7.8399999999999999      27.439999999999998
   123   1      7.8399999999999999       5.879999999999999      27.439999999999998
   124   1      7.8399999999999999      7.8399999999999999      25.479999999999997
   125   1       5.879999999999999      7.8399999999999999      31.359999999999999
   126   1      7.8399999999999999       5.879999999999999      31.359999999999999
   127   1      7.8399999999999999      7.8399999999999999      29.399999999999999
   128   1      7.8399999999999999      7.8399999999999999                   33.32
   129   1       5.879999999999999      11.759999999999998      7.8399999999999999
   130   1      7.8399999999999999      9.7999999999999989      7.8399999999999999
   131   1      7.8399999999999999      11.759999999999998       5.879999999999999
   132   1       5.879999999999999      9.7999999999999989      9.7999999999999989
   133   1       5.879999999999999      11.759999999999998      11.759999999999998
   134   1      7.8399999999999999      9.7999999999999989      11.759999999999998
   135   1      7.8399999999999999      11.759999999999998      9.7999999999999989
   136   1       5.879999999999999      9.7999999999999989      13.719999999999999
   137   1       5.879999999999999      11.759999999999998                   15.68
   138   1      7.8399999999999999      9.7999999999999989                   15.68
   139   1      7.8399999999999999      11.759999999999998      13.719999999999999
   140   1       5.879999999999999      9.7999999999999989      17.640000000000001
   141   1       5.879999999999999      11.759999999999998      19.600000000000001
   142   1      7.8399999999999999      9.7999999999999989      19.600000000000001
   143   1      7.8399999999999999      11.759999999999998      17.640000000000001
   144   1       5.879999999999999      9.7999999999999989      21.559999999999999
   145   1       5.879999999999999      11.759999999999998      23.520000000000003
   146   1      7.8399999999999999      9.7999999999999989      23.520000000000003
   147   1      7.8399999999999999      11.759999999999998      21.559999999999999
   148   1       5.879999999999999      9.7999999999999989      25.479999999999997
   149   1       5.879999999999999      11.759999999999998      27.439999999999998
   150   1      7.8399999999999999      9.7999999999999989      27.439999999999998
   151   1      7.8399999999999999      11.759999999999998      25.479999999999997
   152   1       5.879999999999999      9.7999999999999989      29.399999999999999
   153   1       5.879999999999999      11.759999999999998      31.359999999999999
   154   1      7.8399999999999999      9.7999999999999989      31.359999999999999
   155   1      7.8399999999999999      11.759999999999998      29.399999999999999
   156   1       5.879999999999999      9.7999999999999989                   33.32
   157   1       5.879999999999999      11.759999999999998      35.280000000000001
   158   1      7.8399999999999999      9.7999999999999989      35.280000000000001
   159   1      7.8399999999999999      11.759999999999998                   33.32
   160   1      7.8399999999999999      11.759999999999998      37.240000000000002
   161   1       5.879999999999999                   15.68      7.8399999999999999
   162   1      7.8399999999999999      13.719999999999999      7.8399999999999999
   163   1      7.8399999999999999                   15.68       5.879999999999999
   164   1       5.879999999999999      13.719999999999999      9.7999999999999989
   165   1       5.879999999999999                   15.68      11.759999999999998
   166   1      7.8399999999999999      13.719999999999999      11.759999999999998
   167   1      7.8399999999999999                   15.68      9.7999999999999989
   168   1       5.879999999999999      13.719999999999999      13.719999999999999
   169   1       5.879999999999999                   15.68                   15.68
   170   1      7.8399999999999999      13.719999999999999                   15.68
   171   1      7.8399999999999999                   15.68      13.719999999999999
   172   1       5.879999999999999      13.719999999999999      17.640000000000001
   173   1       5.879999999999999                   15.68      19.600000000000001
   174   1      7.8399999999999999      13.719999999999999      19.600000000000001
   175   1      7.8399999999999999                   15.68      17.640000000000001
   176   1       5.879999999999999      13.719999999999999      21.559999999999999
   177   1       5.879999999999999                   15.68      23.520000000000003
   178   1      7.8399999999999999      13.719999999999999      23.520000000000003
   179   1      7.8399999999999999                   15.68      21.559999999999999
   180   1       5.879999999999999      13.719999999999999      25.479999999999997
   181   1       5.879999999999999                   15.68      27.439999999999998
   182   1      7.8399999999999999      13.719999999999999      27.439999999999998
   183   1      7.8399999999999999                   15.68      25.479999999999997
   184   1       5.879999999999999      13.719999999999999      29.399999999999999
   185   1       5.879999999999999                   15.68      31.359999999999999
   186   1      7.8399999999999999      13.719999999999999      31.359999999999999
   187   1      7.8399999999999999                   15.68      29.399999999999999
   188   1       5.879999999999999      13.719999999999999                   33.32
   189   1       5.879999999999999                   15.68      35.280000000000001
   190   1      7.8399999999999999      13.719999999999999      35.280000000000001
   191   1      7.8399999999999999                   15.68                   33.32
   192   1      7.8399999999999999                   15.68      37.240000000000002
   193   1       5.879999999999999      17.640000000000001       5.879999999999999
   194   1       5.879999999999999      19.600000000000001      7.8399999999999999
   195   1      7.8399999999999999      17.640000000000001      7.8399999999999999
   196   1      7.8399999999999999      19.600000000000001       5.879999999999999
   197   1       5.879999999999999      17.640000000000001      9.7999999999999989
   198   1       5.879999999999999      19.600000000000001      11.759999999999998
   199   1      7.8399999999999999      17.640000000000001      11.759999999999998
   200   1      7.8399999999999999      19.600000000000001      9.7999999999999989
   201   1       5.879999999999999      17.640000000000001      13.719999999999999
   202   1       5.879999999999999      19.600000000000001                   15.68
   203   1      7.8399999999999999      17.640000000000001                   15.68
   204   1      7.8399999999999999      19.600000000000001      13.719999999999999
   205   1       5.879999999999999      17.640000000000001      17.640000000000001
   206   1       5.879999999999999      19.600000000000001      19.600000000000001
   207   1      7.8399999999999999      17.640000000000001      19.600000000000001
   208   1      7.8399999999999999      19.600000000000001      17.640000000000001
   209   1       5.879999999999999      17.640000000000001      21.559999999999999
   210   1       5.879999999999999      19.600000000000001      23.520000000000003
   211   1      7.8399999999999999      17.640000000000001      23.520000000000003
   212   1      7.8399999999999999      19.600000000000001      21.559999999999999
   213   1       5.879999999999999      17.640000000000001      25.479999999999997
   214   1       5.879999999999999      19.600000000000001      27.439999999999998
   215   1      7.8399999999999999      17.640000000000001      27.439999999999998
   216   1      7.8399999999999999      19.600000000000001      25.479999999999997
   217   1       5.879999999999999      17.640000000000001      29.399999999999999
   218   1       5.879999999999999      19.600000000000001      31.359999999999999
   219   1      7.8399999999999999      17.640000000000001      31.359999999999999
   220   1      7.8399999999999999      19.600000000000001      29.399999999999999
   221   1       5.879999999999999      17.640000000000001                   33.32
   222   1       5.879999999999999      19.600000000000001      35.280000000000001
   223   1      7.8399999999999999      17.640000000000001      35.280000000000001
   224   1      7.8399999999999999      19.600000000000001                   33.32
   225   1       5.879999999999999      17.640000000000001      37.240000000000002
   226   1      7.8399999999999999      19.600000000000001      37.240000000000002
   227   1      7.8399999999999999      21.559999999999999      3.9199999999999982
   228   1       5.879999999999999      21.559999999999999       5.879999999999999
   229   1       5.879999999999999      23.520000000000003      7.8399999999999999
   230   1      7.8399999999999999      21.559999999999999      7.8399999999999999
   231   1      7.8399999999999999      23.520000000000003       5.879999999999999
   232   1       5.879999999999999      21.559999999999999      9.7999999999999989
   233   1       5.879999999999999      23.520000000000003      11.759999999999998
   234   1      7.8399999999999999      21.559999999999999      11.759999999999998
   235   1      7.8399999999999999      23.520000000000003      9.7999999999999989
   236   1       5.879999999999999      21.559999999999999      13.719999999999999
   237   1       5.879999999999999      23.520000000000003                   15.68
   238   1      7.8399999999999999      21.559999999999999                   15.68
   239   1      7.8399999999999999      23.520000000000003      13.719999999999999
   240   1       5.879999999999999      21.559999999999999      17.640000000000001
   241   1       5.879999999999999      23.520000000000003      19.600000000000001
   242   1      7.8399999999999999      21.559999999999999      19.600000000000001
   243   1      7.8399999999999999      23.520000000000003      17.640000000000001
   244   1       5.879999999999999      21.559999999999999      21.559999999999999
   245   1       5.879999999999999      23.520000000000003      23.520000000000003
   246   1      7.8399999999999999      21.559999999999999      23.520000000000003
   247   1      7.8399999999999999      23.520000000000003      21.559999999999999
   248   1       5.879999999999999      21.559999999999999      25.479999999999997
   249   1       5.879999999999999      23.520000000000003      27.439999999999998
   250   1      7.8399999999999999      21.559999999999999      27.439999999999998
   251   1      7.8399999999999999      23.520000000000003      25.479999999999997
   252   1       5.879999999999999      21.559999999999999      29.399999999999999
   253   1       5.879999999999999      23.520000000000003      31.359999999999999
   254   1      7.8399999999999999      21.559999999999999      31.359999999999999
   255   1      7.8399999999999999      23.520000000000003      29.399999999999999
   256   1       5.879999999999999      21.559999999999999                   33.32
   257   1       5.879999999999999      23.520000000000003      35.280000000000001
   258   1      7.8399999999999999      21.559999999999999      35.280000000000001
   259   1      7.8399999999999999      23.520000000000003                   33.32
   260   1       5.879999999999999      21.559999999999999      37.240000000000002
   261   1      7.8399999999999999      21.559999999999999      39.200000000000003
   262   1      7.8399999999999999      23.520000000000003      37.240000000000002
   263   1       5.879999999999999      25.479999999999997       5.879999999999999
   264   1       5.879999999999999      27.439999999999998      7.8399999999999999
   265   1      7.8399999999999999      25.479999999999997      7.8399999999999999
   266   1      7.8399999999999999      27.439999999999998       5.879999999999999
   267   1       5.879999999999999      25.479999999999997      9.7999999999999989
   268   1       5.879999999999999      27.439999999999998      11.759999999999998
   269   1      7.8399999999999999      25.479999999999997      11.759999999999998
   270   1      7.8399999999999999      27.439999999999998      9.7999999999999989
   271   1       5.879999999999999      25.479999999999997      13.719999999999999
   272   1       5.879999999999999      27.439999999999998                   15.68
   273   1      7.8399999999999999      25.479999999999997                   15.68
   274   1      7.8399999999999999      27.439999999999998      13.719999999999999
   275   1       5.879999999999999      25.479999999999997      17.640000000000001
   276   1       5.879999999999999      27.439999999999998      19.600000000000001
   277   1      7.8399999999999999      25.479999999999997      19.600000000000001
   278   1      7.8399999999999999      27.439999999999998      17.640000000000001
   279   1       5.879999999999999      25.479999999999997      21.559999999999999
   280   1       5.879999999999999      27.439999999999998      23.520000000000003
   281   1      7.8399999999999999      25.479999999999997      23.520000000000003
   282   1      7.8399999999999999      27.439999999999998      21.559999999999999
   283   1       5.879999999999999      25.479999999999997      25.479999999999997
   284   1       5.879999999999999      27.439999999999998      27.439999999999998
   285   1      7.8399999999999999      25.479999999999997      27.439999999999998
   286   1      7.8399999999999999      27.439999999999998      25.479999999999997
   287   1       5.879999999999999      25.479999999999997      29.399999999999999
   288   1       5.879999999999999      27.439999999999998      31.359999999999999
   289   1      7.8399999999999999      25.479999999999997      31.359999999999999
   290   1      7.8399999999999999      27.439999999999998      29.399999999999999
   291   1       5.879999999999999      25.479999999999997                   33.32
   292   1       5.879999999999999      27.439999999999998      35.280000000000001
   293   1      7.8399999999999999      25.479999999999997      35.280000000000001
   294   1      7.8399999999999999      27.439999999999998                   33.32
   295   1       5.879999999999999      25.479999999999997      37.240000000000002
   296   1      7.8399999999999999      27.439999999999998      37.240000000000002
   297   1       5.879999999999999      31.359999999999999      7.8399999999999999
   298   1      7.8399999999999999      29.399999999999999      7.8399999999999999
   299   1      7.8399999999999999      31.359999999999999       5.879999999999999
   300   1       5.879999999999999      29.399999999999999      9.7999999999999989
   301   1       5.879999999999999      31.359999999999999      11.759999999999998
   302   1      7.8399999999999999      29.399999999999999      11.759999999999998
   303   1      7.8399999999999999      31.359999999999999      9.7999999999999989
   304   1       5.879999999999999      29.399999999999999      13.719999999999999
   305   1       5.879999999999999      31.359999999999999                   15.68
   306   1      7.8399999999999999      29.399999999999999                   15.68
   307   1      7.8399999999999999      31.359999999999999      13.719999999999999
   308   1       5.879999999999999      29.399999999999999      17.640000000000001
   309   1       5.879999999999999      31.359999999999999      19.600000000000001
   310   1      7.8399999999999999      29.399999999999999      19.600000000000001
   311   1      7.8399999999999999      31.359999999999999      17.640000000000001
   312   1       5.879999999999999      29.399999999999999      21.559999999999999
   313   1       5.879999999999999      31.359999999999999      23.520000000000003
   314   1      7.8399999999999999      29.399999999999999      23.520000000000003
   315   1      7.8399999999999999      31.359999999999999      21.559999999999999
   316   1       5.879999999999999      29.399999999999999      25.479999999999997
   317   1       5.879999999999999      31.359999999999999      27.439999999999998
   318   1      7.8399999999999999      29.399999999999999      27.439999999999998
   319   1      7.8399999999999999      31.359999999999999      25.479999999999997
   320   1       5.879999999999999      29.399999999999999      29.399999999999999
   321   1       5.879999999999999      31.359999999999999      31.359999999999999
   322   1      7.8399999999999999      29.399999999999999      31.359999999999999
   323   1      7.8399999999999999      31.359999999999999      29.399999999999999
   324   1       5.879999999999999      29.399999999999999                   33.32
   325   1       5.879999999999999      31.359999999999999      35.280000000000001
   326   1      7.8399999999999999      29.399999999999999      35.280000000000001
   327   1      7.8399999999999999      31.359999999999999                   33.32
   328   1      7.8399999999999999      31.359999999999999      37.240000000000002
   329   1      7.8399999999999999                   33.32      7.8399999999999999
   330   1       5.879999999999999                   33.32      9.7999999999999989
   331   1       5.879999999999999      35.280000000000001      11.759999999999998
   332   1      7.8399999999999999                   33.32      11.759999999999998
   333   1      7.8399999999999999      35.280000000000001      9.7999999999999989
   334   1       5.879999999999999                   33.32      13.719999999999999
   335   1       5.879999999999999      35.280000000000001                   15.68
   336   1      7.8399999999999999                   33.32                   15.68
   337   1      7.8399999999999999      35.280000000000001      13.719999999999999
   338   1       5.879999999999999                   33.32      17.640000000000001
   339   1       5.879999999999999      35.280000000000001      19.600000000000001
   340   1      7.8399999999999999                   33.32      19.600000000000001
   341   1      7.8399999999999999      35.280000000000001      17.640000000000001
   342   1       5.879999999999999                   33.32      21.559999999999999
   343   1       5.879999999999999      35.280000000000001      23.520000000000003
   344   1      7.8399999999999999                   33.32      23.520000000000003
   345   1      7.8399999999999999      35.280000000000001      21.559999999999999
   346   1       5.879999999999999                   33.32      25.479999999999997
   347   1       5.879999999999999      35.280000000000001      27.439999999999998
   348   1      7.8399999999999999                   33.32      27.439999999999998
   349   1      7.8399999999999999      35.280000000000001      25.479999999999997
   350   1       5.879999999999999                   33.32      29.399999999999999
   351   1       5.879999999999999      35.280000000000001      31.359999999999999
   352   1      7.8399999999999999                   33.32      31.359999999999999
   353   1      7.8399999999999999      35.280000000000001      29.399999999999999
   354   1       5.879999999999999                   33.32                   33.32
   355   1      7.8399999999999999                   33.32      35.280000000000001
   356   1      7.8399999999999999      35.280000000000001                   33.32
   357   1      7.8399999999999999      37.240000000000002      11.759999999999998
   358   1      7.8399999999999999      37.240000000000002                   15.68