model_files/PtAu/PtAu_30000/PtAu_311/PtAu_311_fcc_30453_temp.data (written by ASE) 

30453 	 atoms 
2  atom types
0.0                     103  xlo xhi
0.0                     103  ylo yhi
0.0                     103  zlo zhi


Atoms 

     1   1                       0      48.515999999999998      50.537499999999994
     2   1                       0      50.537499999999994      48.515999999999998
     3   1                       0      50.537499999999994      52.558999999999997
     4   1                       0      52.558999999999997      50.537499999999994
     5   1      4.0429999999999993      36.386999999999993      50.537499999999994
     6   1      4.0429999999999993      38.408499999999989      48.515999999999998
     7   1      4.0429999999999993      40.429999999999993      46.494500000000002
     8   1      4.0429999999999993      38.408499999999989      52.558999999999997
     9   1      4.0429999999999993      40.429999999999993      50.537499999999994
    10   1      4.0429999999999993      40.429999999999993      54.580499999999994
    11   1      4.0429999999999993      42.451499999999996      44.472999999999999
    12   1      4.0429999999999993      44.472999999999999      42.451499999999996
    13   1      2.0214999999999961      44.472999999999999      48.515999999999998
    14   1      4.0429999999999993      42.451499999999996      48.515999999999998
    15   1      4.0429999999999993      44.472999999999999      46.494500000000002
    16   1      2.0214999999999961      42.451499999999996      50.537499999999994
    17   1      2.0214999999999961      44.472999999999999      52.558999999999997
    18   1      4.0429999999999993      42.451499999999996      52.558999999999997
    19   1      4.0429999999999993      44.472999999999999      50.537499999999994
    20   1      4.0429999999999993      42.451499999999996      56.601999999999997
    21   1      4.0429999999999993      44.472999999999999      54.580499999999994
    22   1      4.0429999999999993      44.472999999999999                 58.6235
    23   1      4.0429999999999993      46.494500000000002      40.429999999999993
    24   1      4.0429999999999993      48.515999999999998      38.408499999999989
    25   1      2.0214999999999961      48.515999999999998      44.472999999999999
    26   1      4.0429999999999993      46.494500000000002      44.472999999999999
    27   1      4.0429999999999993      48.515999999999998      42.451499999999996
    28   1      2.0214999999999961      46.494500000000002      46.494500000000002
    29   1      2.0214999999999961      48.515999999999998      48.515999999999998
    30   1      4.0429999999999993      46.494500000000002      48.515999999999998
    31   1      4.0429999999999993      48.515999999999998      46.494500000000002
    32   1      2.0214999999999961      46.494500000000002      50.537499999999994
    33   1      2.0214999999999961      48.515999999999998      52.558999999999997
    34   1      4.0429999999999993      46.494500000000002      52.558999999999997
    35   1      4.0429999999999993      48.515999999999998      50.537499999999994
    36   1      2.0214999999999961      46.494500000000002      54.580499999999994
    37   1      2.0214999999999961      48.515999999999998      56.601999999999997
    38   1      4.0429999999999993      46.494500000000002      56.601999999999997
    39   1      4.0429999999999993      48.515999999999998      54.580499999999994
    40   1      4.0429999999999993      46.494500000000002      60.645000000000003
    41   1      4.0429999999999993      48.515999999999998                 58.6235
    42   1      4.0429999999999993      48.515999999999998      62.666499999999992
    43   1      4.0429999999999993      50.537499999999994      36.386999999999993
    44   1      4.0429999999999993      50.537499999999994      40.429999999999993
    45   1      4.0429999999999993      52.558999999999997      38.408499999999989
    46   1      2.0214999999999961      50.537499999999994      42.451499999999996
    47   1      2.0214999999999961      52.558999999999997      44.472999999999999
    48   1      4.0429999999999993      50.537499999999994      44.472999999999999
    49   1      4.0429999999999993      52.558999999999997      42.451499999999996
    50   1      2.0214999999999961      50.537499999999994      46.494500000000002
    51   1      2.0214999999999961      52.558999999999997      48.515999999999998
    52   1      4.0429999999999993      50.537499999999994      48.515999999999998
    53   1      4.0429999999999993      52.558999999999997      46.494500000000002
    54   1      2.0214999999999961      50.537499999999994      50.537499999999994
    55   1      2.0214999999999961      52.558999999999997      52.558999999999997
    56   1      4.0429999999999993      50.537499999999994      52.558999999999997
    57   1      4.0429999999999993      52.558999999999997      50.537499999999994
    58   1      2.0214999999999961      50.537499999999994      54.580499999999994
    59   1      2.0214999999999961      52.558999999999997      56.601999999999997
    60   1      4.0429999999999993      50.537499999999994      56.601999999999997
    61   1      4.0429999999999993      52.558999999999997      54.580499999999994
    62   1      2.0214999999999961      50.537499999999994                 58.6235
    63   1      4.0429999999999993      50.537499999999994      60.645000000000003
    64   1      4.0429999999999993      52.558999999999997                 58.6235
    65   1      4.0429999999999993      50.537499999999994      64.688000000000002
    66   1      4.0429999999999993      52.558999999999997      62.666499999999992
    67   1      4.0429999999999993      54.580499999999994      40.429999999999993
    68   1      4.0429999999999993      54.580499999999994      44.472999999999999
    69   1      4.0429999999999993      56.601999999999997      42.451499999999996
    70   1      2.0214999999999961      54.580499999999994      46.494500000000002
    71   1      2.0214999999999961      56.601999999999997      48.515999999999998
    72   1      4.0429999999999993      54.580499999999994      48.515999999999998
    73   1      4.0429999999999993      56.601999999999997      46.494500000000002
    74   1      2.0214999999999961      54.580499999999994      50.537499999999994
    75   1      2.0214999999999961      56.601999999999997      52.558999999999997
    76   1      4.0429999999999993      54.580499999999994      52.558999999999997
    77   1      4.0429999999999993      56.601999999999997      50.537499999999994
    78   1      2.0214999999999961      54.580499999999994      54.580499999999994
    79   1      4.0429999999999993      54.580499999999994      56.601999999999997
    80   1      4.0429999999999993      56.601999999999997      54.580499999999994
    81   1      4.0429999999999993      54.580499999999994      60.645000000000003
    82   1      4.0429999999999993      56.601999999999997                 58.6235
    83   1      4.0429999999999993                 58.6235      44.472999999999999
    84   1      4.0429999999999993                 58.6235      48.515999999999998
    85   1      4.0429999999999993      60.645000000000003      46.494500000000002
    86   1      2.0214999999999961                 58.6235      50.537499999999994
    87   1      4.0429999999999993                 58.6235      52.558999999999997
    88   1      4.0429999999999993      60.645000000000003      50.537499999999994
    89   1      4.0429999999999993                 58.6235      56.601999999999997
    90   1      4.0429999999999993      60.645000000000003      54.580499999999994
    91   1      4.0429999999999993      62.666499999999992      48.515999999999998
    92   1      4.0429999999999993      62.666499999999992      52.558999999999997
    93   1      4.0429999999999993      64.688000000000002      50.537499999999994
    94   1      8.0859999999999985      24.257999999999996      50.537499999999994
    95   1      8.0859999999999985      26.279499999999995      48.515999999999998
    96   1      8.0859999999999985      28.300999999999998      46.494500000000002
    97   1      8.0859999999999985      26.279499999999995      52.558999999999997
    98   1      8.0859999999999985      28.300999999999998      50.537499999999994
    99   1      8.0859999999999985      28.300999999999998      54.580499999999994
   100   1      8.0859999999999985      30.322499999999994      44.472999999999999
   101   1      8.0859999999999985      32.344000000000001      42.451499999999996
   102   1      6.0644999999999945      32.344000000000001      48.515999999999998
   103   1      8.0859999999999985      30.322499999999994      48.515999999999998
   104   1      8.0859999999999985      32.344000000000001      46.494500000000002
   105   1      6.0644999999999945      30.322499999999994      50.537499999999994
   106   1      6.0644999999999945      32.344000000000001      52.558999999999997
   107   1      8.0859999999999985      30.322499999999994      52.558999999999997
   108   1      8.0859999999999985      32.344000000000001      50.537499999999994
   109   1      8.0859999999999985      30.322499999999994      56.601999999999997
   110   1      8.0859999999999985      32.344000000000001      54.580499999999994
   111   1      8.0859999999999985      32.344000000000001                 58.6235
   112   1      8.0859999999999985      34.365499999999997      40.429999999999993
   113   1      8.0859999999999985      36.386999999999993      38.408499999999989
   114   1      6.0644999999999945      36.386999999999993      44.472999999999999
   115   1      8.0859999999999985      34.365499999999997      44.472999999999999
   116   1      8.0859999999999985      36.386999999999993      42.451499999999996
   117   1      6.0644999999999945      34.365499999999997      46.494500000000002
   118   1      6.0644999999999945      36.386999999999993      48.515999999999998
   119   1      8.0859999999999985      34.365499999999997      48.515999999999998
   120   1      8.0859999999999985      36.386999999999993      46.494500000000002
   121   1      6.0644999999999945      34.365499999999997      50.537499999999994
   122   1      6.0644999999999945      36.386999999999993      52.558999999999997
   123   1      8.0859999999999985      34.365499999999997      52.558999999999997
   124   1      8.0859999999999985      36.386999999999993      50.537499999999994
   125   1      6.0644999999999945      34.365499999999997      54.580499999999994
   126   1      6.0644999999999945      36.386999999999993      56.601999999999997
   127   1      8.0859999999999985      34.365499999999997      56.601999999999997
   128   1      8.0859999999999985      36.386999999999993      54.580499999999994
   129   1      8.0859999999999985      34.365499999999997      60.645000000000003
   130   1      8.0859999999999985      36.386999999999993                 58.6235
   131   1      8.0859999999999985      36.386999999999993      62.666499999999992
   132   1      8.0859999999999985      38.408499999999989      36.386999999999993
   133   1      8.0859999999999985      40.429999999999993      34.365499999999997
   134   1      6.0644999999999945      40.429999999999993      40.429999999999993
   135   1      8.0859999999999985      38.408499999999989      40.429999999999993
   136   1      8.0859999999999985      40.429999999999993      38.408499999999989
   137   1      6.0644999999999945      38.408499999999989      42.451499999999996
   138   1      6.0644999999999945      40.429999999999993      44.472999999999999
   139   1      8.0859999999999985      38.408499999999989      44.472999999999999
   140   1      8.0859999999999985      40.429999999999993      42.451499999999996
   141   1      6.0644999999999945      38.408499999999989      46.494500000000002
   142   1      6.0644999999999945      40.429999999999993      48.515999999999998
   143   1      8.0859999999999985      38.408499999999989      48.515999999999998
   144   1      8.0859999999999985      40.429999999999993      46.494500000000002
   145   1      6.0644999999999945      38.408499999999989      50.537499999999994
   146   1      6.0644999999999945      40.429999999999993      52.558999999999997
   147   1      8.0859999999999985      38.408499999999989      52.558999999999997
   148   1      8.0859999999999985      40.429999999999993      50.537499999999994
   149   1      6.0644999999999945      38.408499999999989      54.580499999999994
   150   1      6.0644999999999945      40.429999999999993      56.601999999999997
   151   1      8.0859999999999985      38.408499999999989      56.601999999999997
   152   1      8.0859999999999985      40.429999999999993      54.580499999999994
   153   1      6.0644999999999945      38.408499999999989                 58.6235
   154   1      6.0644999999999945      40.429999999999993      60.645000000000003
   155   1      8.0859999999999985      38.408499999999989      60.645000000000003
   156   1      8.0859999999999985      40.429999999999993                 58.6235
   157   1      8.0859999999999985      38.408499999999989      64.688000000000002
   158   1      8.0859999999999985      40.429999999999993      62.666499999999992
   159   1      8.0859999999999985      40.429999999999993      66.709500000000006
   160   1      8.0859999999999985      42.451499999999996      32.344000000000001
   161   1      8.0859999999999985      44.472999999999999      30.322499999999994
   162   1      6.0644999999999945      44.472999999999999      36.386999999999993
   163   1      8.0859999999999985      42.451499999999996      36.386999999999993
   164   1      8.0859999999999985      44.472999999999999      34.365499999999997
   165   1      6.0644999999999945      42.451499999999996      38.408499999999989
   166   1      6.0644999999999945      44.472999999999999      40.429999999999993
   167   1      8.0859999999999985      42.451499999999996      40.429999999999993
   168   1      8.0859999999999985      44.472999999999999      38.408499999999989
   169   1      6.0644999999999945      42.451499999999996      42.451499999999996
   170   1      6.0644999999999945      44.472999999999999      44.472999999999999
   171   1      8.0859999999999985      42.451499999999996      44.472999999999999
   172   1      8.0859999999999985      44.472999999999999      42.451499999999996
   173   1      6.0644999999999945      42.451499999999996      46.494500000000002
   174   1      6.0644999999999945      44.472999999999999      48.515999999999998
   175   1      8.0859999999999985      42.451499999999996      48.515999999999998
   176   1      8.0859999999999985      44.472999999999999      46.494500000000002
   177   1      6.0644999999999945      42.451499999999996      50.537499999999994
   178   1      6.0644999999999945      44.472999999999999      52.558999999999997
   179   1      8.0859999999999985      42.451499999999996      52.558999999999997
   180   1      8.0859999999999985      44.472999999999999      50.537499999999994
   181   1      6.0644999999999945      42.451499999999996      54.580499999999994
   182   1      6.0644999999999945      44.472999999999999      56.601999999999997
   183   1      8.0859999999999985      42.451499999999996      56.601999999999997
   184   1      8.0859999999999985      44.472999999999999      54.580499999999994
   185   1      6.0644999999999945      42.451499999999996                 58.6235
   186   1      6.0644999999999945      44.472999999999999      60.645000000000003
   187   1      8.0859999999999985      42.451499999999996      60.645000000000003
   188   1      8.0859999999999985      44.472999999999999                 58.6235
   189   1      6.0644999999999945      42.451499999999996      62.666499999999992
   190   1      6.0644999999999945      44.472999999999999      64.688000000000002
   191   1      8.0859999999999985      42.451499999999996      64.688000000000002
   192   1      8.0859999999999985      44.472999999999999      62.666499999999992
   193   1      8.0859999999999985      42.451499999999996      68.731000000000009
   194   1      8.0859999999999985      44.472999999999999      66.709500000000006
   195   1      8.0859999999999985      44.472999999999999      70.752499999999998
   196   1      8.0859999999999985      46.494500000000002      28.300999999999998
   197   1      8.0859999999999985      48.515999999999998      26.279499999999995
   198   1      6.0644999999999945      48.515999999999998      32.344000000000001
   199   1      8.0859999999999985      46.494500000000002      32.344000000000001
   200   1      8.0859999999999985      48.515999999999998      30.322499999999994
   201   1      6.0644999999999945      46.494500000000002      34.365499999999997
   202   1      6.0644999999999945      48.515999999999998      36.386999999999993
   203   1      8.0859999999999985      46.494500000000002      36.386999999999993
   204   1      8.0859999999999985      48.515999999999998      34.365499999999997
   205   1      6.0644999999999945      46.494500000000002      38.408499999999989
   206   1      6.0644999999999945      48.515999999999998      40.429999999999993
   207   1      8.0859999999999985      46.494500000000002      40.429999999999993
   208   1      8.0859999999999985      48.515999999999998      38.408499999999989
   209   1      6.0644999999999945      46.494500000000002      42.451499999999996
   210   1      6.0644999999999945      48.515999999999998      44.472999999999999
   211   1      8.0859999999999985      46.494500000000002      44.472999999999999
   212   1      8.0859999999999985      48.515999999999998      42.451499999999996
   213   1      6.0644999999999945      46.494500000000002      46.494500000000002
   214   1      6.0644999999999945      48.515999999999998      48.515999999999998
   215   1      8.0859999999999985      46.494500000000002      48.515999999999998
   216   1      8.0859999999999985      48.515999999999998      46.494500000000002
   217   1      6.0644999999999945      46.494500000000002      50.537499999999994
   218   1      6.0644999999999945      48.515999999999998      52.558999999999997
   219   1      8.0859999999999985      46.494500000000002      52.558999999999997
   220   1      8.0859999999999985      48.515999999999998      50.537499999999994
   221   1      6.0644999999999945      46.494500000000002      54.580499999999994
   222   1      6.0644999999999945      48.515999999999998      56.601999999999997
   223   1      8.0859999999999985      46.494500000000002      56.601999999999997
   224   1      8.0859999999999985      48.515999999999998      54.580499999999994
   225   1      6.0644999999999945      46.494500000000002                 58.6235
   226   1      6.0644999999999945      48.515999999999998      60.645000000000003
   227   1      8.0859999999999985      46.494500000000002      60.645000000000003
   228   1      8.0859999999999985      48.515999999999998                 58.6235
   229   1      6.0644999999999945      46.494500000000002      62.666499999999992
   230   1      6.0644999999999945      48.515999999999998      64.688000000000002
   231   1      8.0859999999999985      46.494500000000002      64.688000000000002
   232   1      8.0859999999999985      48.515999999999998      62.666499999999992
   233   1      6.0644999999999945      46.494500000000002      66.709500000000006
   234   1      6.0644999999999945      48.515999999999998      68.731000000000009
   235   1      8.0859999999999985      46.494500000000002      68.731000000000009
   236   1      8.0859999999999985      48.515999999999998      66.709500000000006
   237   1      8.0859999999999985      46.494500000000002      72.773999999999987
   238   1      8.0859999999999985      48.515999999999998      70.752499999999998
   239   1      8.0859999999999985      48.515999999999998       74.79549999999999
   240   1      8.0859999999999985      50.537499999999994      24.257999999999996
   241   1      8.0859999999999985      50.537499999999994      28.300999999999998
   242   1      8.0859999999999985      52.558999999999997      26.279499999999995
   243   1      6.0644999999999945      50.537499999999994      30.322499999999994
   244   1      6.0644999999999945      52.558999999999997      32.344000000000001
   245   1      8.0859999999999985      50.537499999999994      32.344000000000001
   246   1      8.0859999999999985      52.558999999999997      30.322499999999994
   247   1      6.0644999999999945      50.537499999999994      34.365499999999997
   248   1      6.0644999999999945      52.558999999999997      36.386999999999993
   249   1      8.0859999999999985      50.537499999999994      36.386999999999993
   250   1      8.0859999999999985      52.558999999999997      34.365499999999997
   251   1      6.0644999999999945      50.537499999999994      38.408499999999989
   252   1      6.0644999999999945      52.558999999999997      40.429999999999993
   253   1      8.0859999999999985      50.537499999999994      40.429999999999993
   254   1      8.0859999999999985      52.558999999999997      38.408499999999989
   255   1      6.0644999999999945      50.537499999999994      42.451499999999996
   256   1      6.0644999999999945      52.558999999999997      44.472999999999999
   257   1      8.0859999999999985      50.537499999999994      44.472999999999999
   258   1      8.0859999999999985      52.558999999999997      42.451499999999996
   259   1      6.0644999999999945      50.537499999999994      46.494500000000002
   260   1      6.0644999999999945      52.558999999999997      48.515999999999998
   261   1      8.0859999999999985      50.537499999999994      48.515999999999998
   262   1      8.0859999999999985      52.558999999999997      46.494500000000002
   263   1      6.0644999999999945      50.537499999999994      50.537499999999994
   264   1      6.0644999999999945      52.558999999999997      52.558999999999997
   265   1      8.0859999999999985      50.537499999999994      52.558999999999997
   266   1      8.0859999999999985      52.558999999999997      50.537499999999994
   267   1      6.0644999999999945      50.537499999999994      54.580499999999994
   268   1      6.0644999999999945      52.558999999999997      56.601999999999997
   269   1      8.0859999999999985      50.537499999999994      56.601999999999997
   270   1      8.0859999999999985      52.558999999999997      54.580499999999994
   271   1      6.0644999999999945      50.537499999999994                 58.6235
   272   1      6.0644999999999945      52.558999999999997      60.645000000000003
   273   1      8.0859999999999985      50.537499999999994      60.645000000000003
   274   1      8.0859999999999985      52.558999999999997                 58.6235
   275   1      6.0644999999999945      50.537499999999994      62.666499999999992
   276   1      6.0644999999999945      52.558999999999997      64.688000000000002
   277   1      8.0859999999999985      50.537499999999994      64.688000000000002
   278   1      8.0859999999999985      52.558999999999997      62.666499999999992
   279   1      6.0644999999999945      50.537499999999994      66.709500000000006
   280   1      6.0644999999999945      52.558999999999997      68.731000000000009
   281   1      8.0859999999999985      50.537499999999994      68.731000000000009
   282   1      8.0859999999999985      52.558999999999997      66.709500000000006
   283   1      6.0644999999999945      50.537499999999994      70.752499999999998
   284   1      8.0859999999999985      50.537499999999994      72.773999999999987
   285   1      8.0859999999999985      52.558999999999997      70.752499999999998
   286   1      8.0859999999999985      50.537499999999994      76.816999999999993
   287   1      8.0859999999999985      52.558999999999997       74.79549999999999
   288   1      8.0859999999999985      54.580499999999994      28.300999999999998
   289   1      8.0859999999999985      54.580499999999994      32.344000000000001
   290   1      8.0859999999999985      56.601999999999997      30.322499999999994
   291   1      6.0644999999999945      54.580499999999994      34.365499999999997
   292   1      6.0644999999999945      56.601999999999997      36.386999999999993
   293   1      8.0859999999999985      54.580499999999994      36.386999999999993
   294   1      8.0859999999999985      56.601999999999997      34.365499999999997
   295   1      6.0644999999999945      54.580499999999994      38.408499999999989
   296   1      6.0644999999999945      56.601999999999997      40.429999999999993
   297   1      8.0859999999999985      54.580499999999994      40.429999999999993
   298   1      8.0859999999999985      56.601999999999997      38.408499999999989
   299   1      6.0644999999999945      54.580499999999994      42.451499999999996
   300   1      6.0644999999999945      56.601999999999997      44.472999999999999
   301   1      8.0859999999999985      54.580499999999994      44.472999999999999
   302   1      8.0859999999999985      56.601999999999997      42.451499999999996
   303   1      6.0644999999999945      54.580499999999994      46.494500000000002
   304   1      6.0644999999999945      56.601999999999997      48.515999999999998
   305   1      8.0859999999999985      54.580499999999994      48.515999999999998
   306   1      8.0859999999999985      56.601999999999997      46.494500000000002
   307   1      6.0644999999999945      54.580499999999994      50.537499999999994
   308   1      6.0644999999999945      56.601999999999997      52.558999999999997
   309   1      8.0859999999999985      54.580499999999994      52.558999999999997
   310   1      8.0859999999999985      56.601999999999997      50.537499999999994
   311   1      6.0644999999999945      54.580499999999994      54.580499999999994
   312   1      6.0644999999999945      56.601999999999997      56.601999999999997
   313   1      8.0859999999999985      54.580499999999994      56.601999999999997
   314   1      8.0859999999999985      56.601999999999997      54.580499999999994
   315   1      6.0644999999999945      54.580499999999994                 58.6235
   316   1      6.0644999999999945      56.601999999999997      60.645000000000003
   317   1      8.0859999999999985      54.580499999999994      60.645000000000003
   318   1      8.0859999999999985      56.601999999999997                 58.6235
   319   1      6.0644999999999945      54.580499999999994      62.666499999999992
   320   1      6.0644999999999945      56.601999999999997      64.688000000000002
   321   1      8.0859999999999985      54.580499999999994      64.688000000000002
   322   1      8.0859999999999985      56.601999999999997      62.666499999999992
   323   1      6.0644999999999945      54.580499999999994      66.709500000000006
   324   1      8.0859999999999985      54.580499999999994      68.731000000000009
   325   1      8.0859999999999985      56.601999999999997      66.709500000000006
   326   1      8.0859999999999985      54.580499999999994      72.773999999999987
   327   1      8.0859999999999985      56.601999999999997      70.752499999999998
   328   1      8.0859999999999985                 58.6235      32.344000000000001
   329   1      8.0859999999999985                 58.6235      36.386999999999993
   330   1      8.0859999999999985      60.645000000000003      34.365499999999997
   331   1      6.0644999999999945                 58.6235      38.408499999999989
   332   1      6.0644999999999945      60.645000000000003      40.429999999999993
   333   1      8.0859999999999985                 58.6235      40.429999999999993
   334   1      8.0859999999999985      60.645000000000003      38.408499999999989
   335   1      6.0644999999999945                 58.6235      42.451499999999996
   336   1      6.0644999999999945      60.645000000000003      44.472999999999999
   337   1      8.0859999999999985                 58.6235      44.472999999999999
   338   1      8.0859999999999985      60.645000000000003      42.451499999999996
   339   1      6.0644999999999945                 58.6235      46.494500000000002
   340   1      6.0644999999999945      60.645000000000003      48.515999999999998
   341   1      8.0859999999999985                 58.6235      48.515999999999998
   342   1      8.0859999999999985      60.645000000000003      46.494500000000002
   343   1      6.0644999999999945                 58.6235      50.537499999999994
   344   1      6.0644999999999945      60.645000000000003      52.558999999999997
   345   1      8.0859999999999985                 58.6235      52.558999999999997
   346   1      8.0859999999999985      60.645000000000003      50.537499999999994
   347   1      6.0644999999999945                 58.6235      54.580499999999994
   348   1      6.0644999999999945      60.645000000000003      56.601999999999997
   349   1      8.0859999999999985                 58.6235      56.601999999999997
   350   1      8.0859999999999985      60.645000000000003      54.580499999999994
   351   1      6.0644999999999945                 58.6235                 58.6235
   352   1      6.0644999999999945      60.645000000000003      60.645000000000003
   353   1      8.0859999999999985                 58.6235      60.645000000000003
   354   1      8.0859999999999985      60.645000000000003                 58.6235
   355   1      6.0644999999999945                 58.6235      62.666499999999992
   356   1      8.0859999999999985                 58.6235      64.688000000000002
   357   1      8.0859999999999985      60.645000000000003      62.666499999999992
   358   1      8.0859999999999985                 58.6235      68.731000000000009