model_files/PdNi/PdNi_30000/PdNi_320/PdNi_320_fcc_29879_temp.data (written by ASE) 

29879 	 atoms 
2  atom types
0.0                      96  xlo xhi
0.0                      96  ylo yhi
0.0                      96  zlo zhi


Atoms 

     1   1       1.862500000000004      42.837500000000006      44.700000000000003
     2   1       1.862500000000004      42.837500000000006      48.424999999999997
     3   1       1.862500000000004      42.837500000000006      52.149999999999999
     4   1       1.862500000000004      44.700000000000003      42.837500000000006
     5   1  7.1054273576010019e-15      44.700000000000003      44.700000000000003
     6   1  7.1054273576010019e-15      46.562500000000007      46.562500000000007
     7   1       1.862500000000004      44.700000000000003      46.562500000000007
     8   1       1.862500000000004      46.562500000000007      44.700000000000003
     9   1  7.1054273576010019e-15      44.700000000000003      48.424999999999997
    10   1  7.1054273576010019e-15      46.562500000000007      50.287499999999994
    11   1       1.862500000000004      44.700000000000003      50.287499999999994
    12   1       1.862500000000004      46.562500000000007      48.424999999999997
    13   1  7.1054273576010019e-15      44.700000000000003      52.149999999999999
    14   1       1.862500000000004      44.700000000000003      54.012500000000003
    15   1       1.862500000000004      46.562500000000007      52.149999999999999
    16   1       1.862500000000004      48.424999999999997      42.837500000000006
    17   1  7.1054273576010019e-15      48.424999999999997      44.700000000000003
    18   1  7.1054273576010019e-15      50.287499999999994      46.562500000000007
    19   1       1.862500000000004      48.424999999999997      46.562500000000007
    20   1       1.862500000000004      50.287499999999994      44.700000000000003
    21   1  7.1054273576010019e-15      48.424999999999997      48.424999999999997
    22   1  7.1054273576010019e-15      50.287499999999994      50.287499999999994
    23   1       1.862500000000004      48.424999999999997      50.287499999999994
    24   1       1.862500000000004      50.287499999999994      48.424999999999997
    25   1  7.1054273576010019e-15      48.424999999999997      52.149999999999999
    26   1       1.862500000000004      48.424999999999997      54.012500000000003
    27   1       1.862500000000004      50.287499999999994      52.149999999999999
    28   1       1.862500000000004      52.149999999999999      42.837500000000006
    29   1  7.1054273576010019e-15      52.149999999999999      44.700000000000003
    30   1       1.862500000000004      52.149999999999999      46.562500000000007
    31   1       1.862500000000004      54.012500000000003      44.700000000000003
    32   1  7.1054273576010019e-15      52.149999999999999      48.424999999999997
    33   1       1.862500000000004      52.149999999999999      50.287499999999994
    34   1       1.862500000000004      54.012500000000003      48.424999999999997
    35   1  7.1054273576010019e-15      52.149999999999999      52.149999999999999
    36   1       1.862500000000004      52.149999999999999      54.012500000000003
    37   1       1.862500000000004      54.012500000000003      52.149999999999999
    38   1      3.7250000000000081      39.112500000000004      39.112500000000004
    39   1      5.5875000000000057                   37.25      39.112500000000004
    40   1      5.5875000000000057      39.112500000000004                   37.25
    41   1      3.7250000000000081      39.112500000000004      42.837500000000006
    42   1      5.5875000000000057                   37.25      42.837500000000006
    43   1      5.5875000000000057      39.112500000000004      40.975000000000009
    44   1      3.7250000000000081      39.112500000000004      46.562500000000007
    45   1      5.5875000000000057                   37.25      46.562500000000007
    46   1      5.5875000000000057      39.112500000000004      44.700000000000003
    47   1      3.7250000000000081      39.112500000000004      50.287499999999994
    48   1      5.5875000000000057                   37.25      50.287499999999994
    49   1      5.5875000000000057      39.112500000000004      48.424999999999997
    50   1      3.7250000000000081      39.112500000000004      54.012500000000003
    51   1      5.5875000000000057                   37.25      54.012500000000003
    52   1      5.5875000000000057      39.112500000000004      52.149999999999999
    53   1      3.7250000000000081      39.112500000000004      57.737499999999997
    54   1      5.5875000000000057                   37.25      57.737499999999997
    55   1      5.5875000000000057      39.112500000000004                  55.875
    56   1      5.5875000000000057      39.112500000000004      59.600000000000001
    57   1      3.7250000000000081      42.837500000000006      39.112500000000004
    58   1      5.5875000000000057      40.975000000000009      39.112500000000004
    59   1      5.5875000000000057      42.837500000000006                   37.25
    60   1      3.7250000000000081      40.975000000000009      40.975000000000009
    61   1      3.7250000000000081      42.837500000000006      42.837500000000006
    62   1      5.5875000000000057      40.975000000000009      42.837500000000006
    63   1      5.5875000000000057      42.837500000000006      40.975000000000009
    64   1      3.7250000000000081      40.975000000000009      44.700000000000003
    65   1      3.7250000000000081      42.837500000000006      46.562500000000007
    66   1      5.5875000000000057      40.975000000000009      46.562500000000007
    67   1      5.5875000000000057      42.837500000000006      44.700000000000003
    68   1      3.7250000000000081      40.975000000000009      48.424999999999997
    69   1      3.7250000000000081      42.837500000000006      50.287499999999994
    70   1      5.5875000000000057      40.975000000000009      50.287499999999994
    71   1      5.5875000000000057      42.837500000000006      48.424999999999997
    72   1      3.7250000000000081      40.975000000000009      52.149999999999999
    73   1      3.7250000000000081      42.837500000000006      54.012500000000003
    74   1      5.5875000000000057      40.975000000000009      54.012500000000003
    75   1      5.5875000000000057      42.837500000000006      52.149999999999999
    76   1      3.7250000000000081      40.975000000000009                  55.875
    77   1      3.7250000000000081      42.837500000000006      57.737499999999997
    78   1      5.5875000000000057      40.975000000000009      57.737499999999997
    79   1      5.5875000000000057      42.837500000000006                  55.875
    80   1      5.5875000000000057      42.837500000000006      59.600000000000001
    81   1      3.7250000000000081      46.562500000000007      39.112500000000004
    82   1      5.5875000000000057      44.700000000000003      39.112500000000004
    83   1      5.5875000000000057      46.562500000000007                   37.25
    84   1      3.7250000000000081      44.700000000000003      40.975000000000009
    85   1      3.7250000000000081      46.562500000000007      42.837500000000006
    86   1      5.5875000000000057      44.700000000000003      42.837500000000006
    87   1      5.5875000000000057      46.562500000000007      40.975000000000009
    88   1      3.7250000000000081      44.700000000000003      44.700000000000003
    89   1      3.7250000000000081      46.562500000000007      46.562500000000007
    90   1      5.5875000000000057      44.700000000000003      46.562500000000007
    91   1      5.5875000000000057      46.562500000000007      44.700000000000003
    92   1      3.7250000000000081      44.700000000000003      48.424999999999997
    93   1      3.7250000000000081      46.562500000000007      50.287499999999994
    94   1      5.5875000000000057      44.700000000000003      50.287499999999994
    95   1      5.5875000000000057      46.562500000000007      48.424999999999997
    96   1      3.7250000000000081      44.700000000000003      52.149999999999999
    97   1      3.7250000000000081      46.562500000000007      54.012500000000003
    98   1      5.5875000000000057      44.700000000000003      54.012500000000003
    99   1      5.5875000000000057      46.562500000000007      52.149999999999999
   100   1      3.7250000000000081      44.700000000000003                  55.875
   101   1      3.7250000000000081      46.562500000000007      57.737499999999997
   102   1      5.5875000000000057      44.700000000000003      57.737499999999997
   103   1      5.5875000000000057      46.562500000000007                  55.875
   104   1      5.5875000000000057      46.562500000000007      59.600000000000001
   105   1      3.7250000000000081      50.287499999999994      39.112500000000004
   106   1      5.5875000000000057      48.424999999999997      39.112500000000004
   107   1      5.5875000000000057      50.287499999999994                   37.25
   108   1      3.7250000000000081      48.424999999999997      40.975000000000009
   109   1      3.7250000000000081      50.287499999999994      42.837500000000006
   110   1      5.5875000000000057      48.424999999999997      42.837500000000006
   111   1      5.5875000000000057      50.287499999999994      40.975000000000009
   112   1      3.7250000000000081      48.424999999999997      44.700000000000003
   113   1      3.7250000000000081      50.287499999999994      46.562500000000007
   114   1      5.5875000000000057      48.424999999999997      46.562500000000007
   115   1      5.5875000000000057      50.287499999999994      44.700000000000003
   116   1      3.7250000000000081      48.424999999999997      48.424999999999997
   117   1      3.7250000000000081      50.287499999999994      50.287499999999994
   118   1      5.5875000000000057      48.424999999999997      50.287499999999994
   119   1      5.5875000000000057      50.287499999999994      48.424999999999997
   120   1      3.7250000000000081      48.424999999999997      52.149999999999999
   121   1      3.7250000000000081      50.287499999999994      54.012500000000003
   122   1      5.5875000000000057      48.424999999999997      54.012500000000003
   123   1      5.5875000000000057      50.287499999999994      52.149999999999999
   124   1      3.7250000000000081      48.424999999999997                  55.875
   125   1      3.7250000000000081      50.287499999999994      57.737499999999997
   126   1      5.5875000000000057      48.424999999999997      57.737499999999997
   127   1      5.5875000000000057      50.287499999999994                  55.875
   128   1      5.5875000000000057      50.287499999999994      59.600000000000001
   129   1      3.7250000000000081      54.012500000000003      39.112500000000004
   130   1      5.5875000000000057      52.149999999999999      39.112500000000004
   131   1      5.5875000000000057      54.012500000000003                   37.25
   132   1      3.7250000000000081      52.149999999999999      40.975000000000009
   133   1      3.7250000000000081      54.012500000000003      42.837500000000006
   134   1      5.5875000000000057      52.149999999999999      42.837500000000006
   135   1      5.5875000000000057      54.012500000000003      40.975000000000009
   136   1      3.7250000000000081      52.149999999999999      44.700000000000003
   137   1      3.7250000000000081      54.012500000000003      46.562500000000007
   138   1      5.5875000000000057      52.149999999999999      46.562500000000007
   139   1      5.5875000000000057      54.012500000000003      44.700000000000003
   140   1      3.7250000000000081      52.149999999999999      48.424999999999997
   141   1      3.7250000000000081      54.012500000000003      50.287499999999994
   142   1      5.5875000000000057      52.149999999999999      50.287499999999994
   143   1      5.5875000000000057      54.012500000000003      48.424999999999997
   144   1      3.7250000000000081      52.149999999999999      52.149999999999999
   145   1      3.7250000000000081      54.012500000000003      54.012500000000003
   146   1      5.5875000000000057      52.149999999999999      54.012500000000003
   147   1      5.5875000000000057      54.012500000000003      52.149999999999999
   148   1      3.7250000000000081      52.149999999999999                  55.875
   149   1      3.7250000000000081      54.012500000000003      57.737499999999997
   150   1      5.5875000000000057      52.149999999999999      57.737499999999997
   151   1      5.5875000000000057      54.012500000000003                  55.875
   152   1      5.5875000000000057      54.012500000000003      59.600000000000001
   153   1      3.7250000000000081      57.737499999999997      39.112500000000004
   154   1      5.5875000000000057                  55.875      39.112500000000004
   155   1      5.5875000000000057      57.737499999999997                   37.25
   156   1      3.7250000000000081                  55.875      40.975000000000009
   157   1      3.7250000000000081      57.737499999999997      42.837500000000006
   158   1      5.5875000000000057                  55.875      42.837500000000006
   159   1      5.5875000000000057      57.737499999999997      40.975000000000009
   160   1      3.7250000000000081                  55.875      44.700000000000003
   161   1      3.7250000000000081      57.737499999999997      46.562500000000007
   162   1      5.5875000000000057                  55.875      46.562500000000007
   163   1      5.5875000000000057      57.737499999999997      44.700000000000003
   164   1      3.7250000000000081                  55.875      48.424999999999997
   165   1      3.7250000000000081      57.737499999999997      50.287499999999994
   166   1      5.5875000000000057                  55.875      50.287499999999994
   167   1      5.5875000000000057      57.737499999999997      48.424999999999997
   168   1      3.7250000000000081                  55.875      52.149999999999999
   169   1      3.7250000000000081      57.737499999999997      54.012500000000003
   170   1      5.5875000000000057                  55.875      54.012500000000003
   171   1      5.5875000000000057      57.737499999999997      52.149999999999999
   172   1      3.7250000000000081                  55.875                  55.875
   173   1      3.7250000000000081      57.737499999999997      57.737499999999997
   174   1      5.5875000000000057                  55.875      57.737499999999997
   175   1      5.5875000000000057      57.737499999999997                  55.875
   176   1      5.5875000000000057      57.737499999999997      59.600000000000001
   177   1      5.5875000000000057      59.600000000000001      39.112500000000004
   178   1      5.5875000000000057      59.600000000000001      42.837500000000006
   179   1      5.5875000000000057      59.600000000000001      46.562500000000007
   180   1      5.5875000000000057      59.600000000000001      50.287499999999994
   181   1      5.5875000000000057      59.600000000000001      54.012500000000003
   182   1      5.5875000000000057      59.600000000000001      57.737499999999997
   183   1      9.3125000000000071      31.662500000000001      33.525000000000006
   184   1      9.3125000000000071      31.662500000000001                   37.25
   185   1      9.3125000000000071      31.662500000000001      40.975000000000009
   186   1      9.3125000000000071      31.662500000000001      44.700000000000003
   187   1      9.3125000000000071      31.662500000000001      48.424999999999997
   188   1      9.3125000000000071      31.662500000000001      52.149999999999999
   189   1      9.3125000000000071      31.662500000000001                  55.875
   190   1      9.3125000000000071      31.662500000000001      59.600000000000001
   191   1      9.3125000000000071      31.662500000000001      63.325000000000003
   192   1      9.3125000000000071      33.525000000000006      31.662500000000001
   193   1      7.4500000000000099      33.525000000000006      33.525000000000006
   194   1      7.4500000000000099      35.387500000000003      35.387500000000003
   195   1      9.3125000000000071      33.525000000000006      35.387500000000003
   196   1      9.3125000000000071      35.387500000000003      33.525000000000006
   197   1      7.4500000000000099      33.525000000000006                   37.25
   198   1      7.4500000000000099      35.387500000000003      39.112500000000004
   199   1      9.3125000000000071      33.525000000000006      39.112500000000004
   200   1      9.3125000000000071      35.387500000000003                   37.25
   201   1      7.4500000000000099      33.525000000000006      40.975000000000009
   202   1      7.4500000000000099      35.387500000000003      42.837500000000006
   203   1      9.3125000000000071      33.525000000000006      42.837500000000006
   204   1      9.3125000000000071      35.387500000000003      40.975000000000009
   205   1      7.4500000000000099      33.525000000000006      44.700000000000003
   206   1      7.4500000000000099      35.387500000000003      46.562500000000007
   207   1      9.3125000000000071      33.525000000000006      46.562500000000007
   208   1      9.3125000000000071      35.387500000000003      44.700000000000003
   209   1      7.4500000000000099      33.525000000000006      48.424999999999997
   210   1      7.4500000000000099      35.387500000000003      50.287499999999994
   211   1      9.3125000000000071      33.525000000000006      50.287499999999994
   212   1      9.3125000000000071      35.387500000000003      48.424999999999997
   213   1      7.4500000000000099      33.525000000000006      52.149999999999999
   214   1      7.4500000000000099      35.387500000000003      54.012500000000003
   215   1      9.3125000000000071      33.525000000000006      54.012500000000003
   216   1      9.3125000000000071      35.387500000000003      52.149999999999999
   217   1      7.4500000000000099      33.525000000000006                  55.875
   218   1      7.4500000000000099      35.387500000000003      57.737499999999997
   219   1      9.3125000000000071      33.525000000000006      57.737499999999997
   220   1      9.3125000000000071      35.387500000000003                  55.875
   221   1      7.4500000000000099      33.525000000000006      59.600000000000001
   222   1      7.4500000000000099      35.387500000000003      61.462500000000006
   223   1      9.3125000000000071      33.525000000000006      61.462500000000006
   224   1      9.3125000000000071      35.387500000000003      59.600000000000001
   225   1      7.4500000000000099      33.525000000000006      63.325000000000003
   226   1      9.3125000000000071      33.525000000000006                 65.1875
   227   1      9.3125000000000071      35.387500000000003      63.325000000000003
   228   1      9.3125000000000071                   37.25      31.662500000000001
   229   1      7.4500000000000099                   37.25      33.525000000000006
   230   1      7.4500000000000099      39.112500000000004      35.387500000000003
   231   1      9.3125000000000071                   37.25      35.387500000000003
   232   1      9.3125000000000071      39.112500000000004      33.525000000000006
   233   1      7.4500000000000099                   37.25                   37.25
   234   1      7.4500000000000099      39.112500000000004      39.112500000000004
   235   1      9.3125000000000071                   37.25      39.112500000000004
   236   1      9.3125000000000071      39.112500000000004                   37.25
   237   1      7.4500000000000099                   37.25      40.975000000000009
   238   1      7.4500000000000099      39.112500000000004      42.837500000000006
   239   1      9.3125000000000071                   37.25      42.837500000000006
   240   1      9.3125000000000071      39.112500000000004      40.975000000000009
   241   1      7.4500000000000099                   37.25      44.700000000000003
   242   1      7.4500000000000099      39.112500000000004      46.562500000000007
   243   1      9.3125000000000071                   37.25      46.562500000000007
   244   1      9.3125000000000071      39.112500000000004      44.700000000000003
   245   1      7.4500000000000099                   37.25      48.424999999999997
   246   1      7.4500000000000099      39.112500000000004      50.287499999999994
   247   1      9.3125000000000071                   37.25      50.287499999999994
   248   1      9.3125000000000071      39.112500000000004      48.424999999999997
   249   1      7.4500000000000099                   37.25      52.149999999999999
   250   1      7.4500000000000099      39.112500000000004      54.012500000000003
   251   1      9.3125000000000071                   37.25      54.012500000000003
   252   1      9.3125000000000071      39.112500000000004      52.149999999999999
   253   1      7.4500000000000099                   37.25                  55.875
   254   1      7.4500000000000099      39.112500000000004      57.737499999999997
   255   1      9.3125000000000071                   37.25      57.737499999999997
   256   1      9.3125000000000071      39.112500000000004                  55.875
   257   1      7.4500000000000099                   37.25      59.600000000000001
   258   1      7.4500000000000099      39.112500000000004      61.462500000000006
   259   1      9.3125000000000071                   37.25      61.462500000000006
   260   1      9.3125000000000071      39.112500000000004      59.600000000000001
   261   1      7.4500000000000099                   37.25      63.325000000000003
   262   1      9.3125000000000071                   37.25                 65.1875
   263   1      9.3125000000000071      39.112500000000004      63.325000000000003
   264   1      9.3125000000000071      40.975000000000009      31.662500000000001
   265   1      7.4500000000000099      40.975000000000009      33.525000000000006
   266   1      7.4500000000000099      42.837500000000006      35.387500000000003
   267   1      9.3125000000000071      40.975000000000009      35.387500000000003
   268   1      9.3125000000000071      42.837500000000006      33.525000000000006
   269   1      7.4500000000000099      40.975000000000009                   37.25
   270   1      7.4500000000000099      42.837500000000006      39.112500000000004
   271   1      9.3125000000000071      40.975000000000009      39.112500000000004
   272   1      9.3125000000000071      42.837500000000006                   37.25
   273   1      7.4500000000000099      40.975000000000009      40.975000000000009
   274   1      7.4500000000000099      42.837500000000006      42.837500000000006
   275   1      9.3125000000000071      40.975000000000009      42.837500000000006
   276   1      9.3125000000000071      42.837500000000006      40.975000000000009
   277   1      7.4500000000000099      40.975000000000009      44.700000000000003
   278   1      7.4500000000000099      42.837500000000006      46.562500000000007
   279   1      9.3125000000000071      40.975000000000009      46.562500000000007
   280   1      9.3125000000000071      42.837500000000006      44.700000000000003
   281   1      7.4500000000000099      40.975000000000009      48.424999999999997
   282   1      7.4500000000000099      42.837500000000006      50.287499999999994
   283   1      9.3125000000000071      40.975000000000009      50.287499999999994
   284   1      9.3125000000000071      42.837500000000006      48.424999999999997
   285   1      7.4500000000000099      40.975000000000009      52.149999999999999
   286   1      7.4500000000000099      42.837500000000006      54.012500000000003
   287   1      9.3125000000000071      40.975000000000009      54.012500000000003
   288   1      9.3125000000000071      42.837500000000006      52.149999999999999
   289   1      7.4500000000000099      40.975000000000009                  55.875
   290   1      7.4500000000000099      42.837500000000006      57.737499999999997
   291   1      9.3125000000000071      40.975000000000009      57.737499999999997
   292   1      9.3125000000000071      42.837500000000006                  55.875
   293   1      7.4500000000000099      40.975000000000009      59.600000000000001
   294   1      7.4500000000000099      42.837500000000006      61.462500000000006
   295   1      9.3125000000000071      40.975000000000009      61.462500000000006
   296   1      9.3125000000000071      42.837500000000006      59.600000000000001
   297   1      7.4500000000000099      40.975000000000009      63.325000000000003
   298   1      9.3125000000000071      40.975000000000009                 65.1875
   299   1      9.3125000000000071      42.837500000000006      63.325000000000003
   300   1      9.3125000000000071      44.700000000000003      31.662500000000001
   301   1      7.4500000000000099      44.700000000000003      33.525000000000006
   302   1      7.4500000000000099      46.562500000000007      35.387500000000003
   303   1      9.3125000000000071      44.700000000000003      35.387500000000003
   304   1      9.3125000000000071      46.562500000000007      33.525000000000006
   305   1      7.4500000000000099      44.700000000000003                   37.25
   306   1      7.4500000000000099      46.562500000000007      39.112500000000004
   307   1      9.3125000000000071      44.700000000000003      39.112500000000004
   308   1      9.3125000000000071      46.562500000000007                   37.25
   309   1      7.4500000000000099      44.700000000000003      40.975000000000009
   310   1      7.4500000000000099      46.562500000000007      42.837500000000006
   311   1      9.3125000000000071      44.700000000000003      42.837500000000006
   312   1      9.3125000000000071      46.562500000000007      40.975000000000009
   313   1      7.4500000000000099      44.700000000000003      44.700000000000003
   314   1      7.4500000000000099      46.562500000000007      46.562500000000007
   315   1      9.3125000000000071      44.700000000000003      46.562500000000007
   316   1      9.3125000000000071      46.562500000000007      44.700000000000003
   317   1      7.4500000000000099      44.700000000000003      48.424999999999997
   318   1      7.4500000000000099      46.562500000000007      50.287499999999994
   319   1      9.3125000000000071      44.700000000000003      50.287499999999994
   320   1      9.3125000000000071      46.562500000000007      48.424999999999997
   321   1      7.4500000000000099      44.700000000000003      52.149999999999999
   322   1      7.4500000000000099      46.562500000000007      54.012500000000003
   323   1      9.3125000000000071      44.700000000000003      54.012500000000003
   324   1      9.3125000000000071      46.562500000000007      52.149999999999999
   325   1      7.4500000000000099      44.700000000000003                  55.875
   326   1      7.4500000000000099      46.562500000000007      57.737499999999997
   327   1      9.3125000000000071      44.700000000000003      57.737499999999997
   328   1      9.3125000000000071      46.562500000000007                  55.875
   329   1      7.4500000000000099      44.700000000000003      59.600000000000001
   330   1      7.4500000000000099      46.562500000000007      61.462500000000006
   331   1      9.3125000000000071      44.700000000000003      61.462500000000006
   332   1      9.3125000000000071      46.562500000000007      59.600000000000001
   333   1      7.4500000000000099      44.700000000000003      63.325000000000003
   334   1      9.3125000000000071      44.700000000000003                 65.1875
   335   1      9.3125000000000071      46.562500000000007      63.325000000000003
   336   1      9.3125000000000071      48.424999999999997      31.662500000000001
   337   1      7.4500000000000099      48.424999999999997      33.525000000000006
   338   1      7.4500000000000099      50.287499999999994      35.387500000000003
   339   1      9.3125000000000071      48.424999999999997      35.387500000000003
   340   1      9.3125000000000071      50.287499999999994      33.525000000000006
   341   1      7.4500000000000099      48.424999999999997                   37.25
   342   1      7.4500000000000099      50.287499999999994      39.112500000000004
   343   1      9.3125000000000071      48.424999999999997      39.112500000000004
   344   1      9.3125000000000071      50.287499999999994                   37.25
   345   1      7.4500000000000099      48.424999999999997      40.975000000000009
   346   1      7.4500000000000099      50.287499999999994      42.837500000000006
   347   1      9.3125000000000071      48.424999999999997      42.837500000000006
   348   1      9.3125000000000071      50.287499999999994      40.975000000000009
   349   1      7.4500000000000099      48.424999999999997      44.700000000000003
   350   1      7.4500000000000099      50.287499999999994      46.562500000000007
   351   1      9.3125000000000071      48.424999999999997      46.562500000000007
   352   1      9.3125000000000071      50.287499999999994      44.700000000000003
   353   1      7.4500000000000099      48.424999999999997      48.424999999999997
   354   1      7.4500000000000099      50.287499999999994      50.287499999999994
   355   1      9.3125000000000071      48.424999999999997      50.287499999999994
   356   1      9.3125000000000071      50.287499999999994      48.424999999999997
   357   1      7.4500000000000099      48.424999999999997      52.149999999999999
   358   1      7.4500000000000099      50.287499999999994      54.012500000000003