model_files/PtCo/PtCo_30000/PtCo_211/PtCo_211_fcc_30069_temp.data (written by ASE) 

30069 	 atoms 
2  atom types
0.0                     102  xlo xhi
0.0                     102  ylo yhi
0.0                     102  zlo zhi


Atoms 

     1   1      1.8249999999999957      49.274999999999999      51.099999999999987
     2   1      1.8249999999999957      51.099999999999987      49.274999999999999
     3   1      101.99999999999999      51.099999999999987      51.099999999999987
     4   1      1.8249999999999957      51.099999999999987       52.92499999999999
     5   1      1.8249999999999957       52.92499999999999      51.099999999999987
     6   1      5.4749999999999943      41.974999999999994      51.099999999999987
     7   1      3.6499999999999915      45.624999999999993      49.274999999999999
     8   1      5.4749999999999943       43.79999999999999      49.274999999999999
     9   1      5.4749999999999943      45.624999999999993      47.449999999999996
    10   1      3.6499999999999915       43.79999999999999      51.099999999999987
    11   1      3.6499999999999915      45.624999999999993       52.92499999999999
    12   1      5.4749999999999943       43.79999999999999       52.92499999999999
    13   1      5.4749999999999943      45.624999999999993      51.099999999999987
    14   1      5.4749999999999943      45.624999999999993      54.749999999999986
    15   1      3.6499999999999915      49.274999999999999      45.624999999999993
    16   1      5.4749999999999943      47.449999999999996      45.624999999999993
    17   1      5.4749999999999943      49.274999999999999       43.79999999999999
    18   1      3.6499999999999915      47.449999999999996      47.449999999999996
    19   1      3.6499999999999915      49.274999999999999      49.274999999999999
    20   1      5.4749999999999943      47.449999999999996      49.274999999999999
    21   1      5.4749999999999943      49.274999999999999      47.449999999999996
    22   1      3.6499999999999915      47.449999999999996      51.099999999999987
    23   1      3.6499999999999915      49.274999999999999       52.92499999999999
    24   1      5.4749999999999943      47.449999999999996       52.92499999999999
    25   1      5.4749999999999943      49.274999999999999      51.099999999999987
    26   1      3.6499999999999915      47.449999999999996      54.749999999999986
    27   1      3.6499999999999915      49.274999999999999      56.574999999999989
    28   1      5.4749999999999943      47.449999999999996      56.574999999999989
    29   1      5.4749999999999943      49.274999999999999      54.749999999999986
    30   1      5.4749999999999943      49.274999999999999      58.399999999999984
    31   1      5.4749999999999943      51.099999999999987      41.974999999999994
    32   1      3.6499999999999915      51.099999999999987       43.79999999999999
    33   1      3.6499999999999915       52.92499999999999      45.624999999999993
    34   1      5.4749999999999943      51.099999999999987      45.624999999999993
    35   1      5.4749999999999943       52.92499999999999       43.79999999999999
    36   1      3.6499999999999915      51.099999999999987      47.449999999999996
    37   1      3.6499999999999915       52.92499999999999      49.274999999999999
    38   1      5.4749999999999943      51.099999999999987      49.274999999999999
    39   1      5.4749999999999943       52.92499999999999      47.449999999999996
    40   1      3.6499999999999915      51.099999999999987      51.099999999999987
    41   1      3.6499999999999915       52.92499999999999       52.92499999999999
    42   1      5.4749999999999943      51.099999999999987       52.92499999999999
    43   1      5.4749999999999943       52.92499999999999      51.099999999999987
    44   1      3.6499999999999915      51.099999999999987      54.749999999999986
    45   1      3.6499999999999915       52.92499999999999      56.574999999999989
    46   1      5.4749999999999943      51.099999999999987      56.574999999999989
    47   1      5.4749999999999943       52.92499999999999      54.749999999999986
    48   1      3.6499999999999915      51.099999999999987      58.399999999999984
    49   1      5.4749999999999943      51.099999999999987      60.224999999999987
    50   1      5.4749999999999943       52.92499999999999      58.399999999999984
    51   1      5.4749999999999943      54.749999999999986      45.624999999999993
    52   1      3.6499999999999915      54.749999999999986      47.449999999999996
    53   1      3.6499999999999915      56.574999999999989      49.274999999999999
    54   1      5.4749999999999943      54.749999999999986      49.274999999999999
    55   1      5.4749999999999943      56.574999999999989      47.449999999999996
    56   1      3.6499999999999915      54.749999999999986      51.099999999999987
    57   1      3.6499999999999915      56.574999999999989       52.92499999999999
    58   1      5.4749999999999943      54.749999999999986       52.92499999999999
    59   1      5.4749999999999943      56.574999999999989      51.099999999999987
    60   1      3.6499999999999915      54.749999999999986      54.749999999999986
    61   1      5.4749999999999943      54.749999999999986      56.574999999999989
    62   1      5.4749999999999943      56.574999999999989      54.749999999999986
    63   1      5.4749999999999943      58.399999999999984      49.274999999999999
    64   1      3.6499999999999915      58.399999999999984      51.099999999999987
    65   1      5.4749999999999943      58.399999999999984       52.92499999999999
    66   1      5.4749999999999943      60.224999999999987      51.099999999999987
    67   1      9.1249999999999929      34.674999999999997      51.099999999999987
    68   1      7.2999999999999972      38.324999999999996      49.274999999999999
    69   1      9.1249999999999929      36.499999999999993      49.274999999999999
    70   1      9.1249999999999929      38.324999999999996      47.449999999999996
    71   1      7.2999999999999972      36.499999999999993      51.099999999999987
    72   1      7.2999999999999972      38.324999999999996       52.92499999999999
    73   1      9.1249999999999929      36.499999999999993       52.92499999999999
    74   1      9.1249999999999929      38.324999999999996      51.099999999999987
    75   1      9.1249999999999929      38.324999999999996      54.749999999999986
    76   1      7.2999999999999972      41.974999999999994      45.624999999999993
    77   1      9.1249999999999929      40.149999999999991      45.624999999999993
    78   1      9.1249999999999929      41.974999999999994       43.79999999999999
    79   1      7.2999999999999972      40.149999999999991      47.449999999999996
    80   1      7.2999999999999972      41.974999999999994      49.274999999999999
    81   1      9.1249999999999929      40.149999999999991      49.274999999999999
    82   1      9.1249999999999929      41.974999999999994      47.449999999999996
    83   1      7.2999999999999972      40.149999999999991      51.099999999999987
    84   1      7.2999999999999972      41.974999999999994       52.92499999999999
    85   1      9.1249999999999929      40.149999999999991       52.92499999999999
    86   1      9.1249999999999929      41.974999999999994      51.099999999999987
    87   1      7.2999999999999972      40.149999999999991      54.749999999999986
    88   1      7.2999999999999972      41.974999999999994      56.574999999999989
    89   1      9.1249999999999929      40.149999999999991      56.574999999999989
    90   1      9.1249999999999929      41.974999999999994      54.749999999999986
    91   1      9.1249999999999929      41.974999999999994      58.399999999999984
    92   1      7.2999999999999972      45.624999999999993      41.974999999999994
    93   1      9.1249999999999929       43.79999999999999      41.974999999999994
    94   1      9.1249999999999929      45.624999999999993      40.149999999999991
    95   1      7.2999999999999972       43.79999999999999       43.79999999999999
    96   1      7.2999999999999972      45.624999999999993      45.624999999999993
    97   1      9.1249999999999929       43.79999999999999      45.624999999999993
    98   1      9.1249999999999929      45.624999999999993       43.79999999999999
    99   1      7.2999999999999972       43.79999999999999      47.449999999999996
   100   1      7.2999999999999972      45.624999999999993      49.274999999999999
   101   1      9.1249999999999929       43.79999999999999      49.274999999999999
   102   1      9.1249999999999929      45.624999999999993      47.449999999999996
   103   1      7.2999999999999972       43.79999999999999      51.099999999999987
   104   1      7.2999999999999972      45.624999999999993       52.92499999999999
   105   1      9.1249999999999929       43.79999999999999       52.92499999999999
   106   1      9.1249999999999929      45.624999999999993      51.099999999999987
   107   1      7.2999999999999972       43.79999999999999      54.749999999999986
   108   1      7.2999999999999972      45.624999999999993      56.574999999999989
   109   1      9.1249999999999929       43.79999999999999      56.574999999999989
   110   1      9.1249999999999929      45.624999999999993      54.749999999999986
   111   1      7.2999999999999972       43.79999999999999      58.399999999999984
   112   1      7.2999999999999972      45.624999999999993      60.224999999999987
   113   1      9.1249999999999929       43.79999999999999      60.224999999999987
   114   1      9.1249999999999929      45.624999999999993      58.399999999999984
   115   1      9.1249999999999929      45.624999999999993      62.049999999999997
   116   1      7.2999999999999972      49.274999999999999      38.324999999999996
   117   1      9.1249999999999929      47.449999999999996      38.324999999999996
   118   1      9.1249999999999929      49.274999999999999      36.499999999999993
   119   1      7.2999999999999972      47.449999999999996      40.149999999999991
   120   1      7.2999999999999972      49.274999999999999      41.974999999999994
   121   1      9.1249999999999929      47.449999999999996      41.974999999999994
   122   1      9.1249999999999929      49.274999999999999      40.149999999999991
   123   1      7.2999999999999972      47.449999999999996       43.79999999999999
   124   1      7.2999999999999972      49.274999999999999      45.624999999999993
   125   1      9.1249999999999929      47.449999999999996      45.624999999999993
   126   1      9.1249999999999929      49.274999999999999       43.79999999999999
   127   1      7.2999999999999972      47.449999999999996      47.449999999999996
   128   1      7.2999999999999972      49.274999999999999      49.274999999999999
   129   1      9.1249999999999929      47.449999999999996      49.274999999999999
   130   1      9.1249999999999929      49.274999999999999      47.449999999999996
   131   1      7.2999999999999972      47.449999999999996      51.099999999999987
   132   1      7.2999999999999972      49.274999999999999       52.92499999999999
   133   1      9.1249999999999929      47.449999999999996       52.92499999999999
   134   1      9.1249999999999929      49.274999999999999      51.099999999999987
   135   1      7.2999999999999972      47.449999999999996      54.749999999999986
   136   1      7.2999999999999972      49.274999999999999      56.574999999999989
   137   1      9.1249999999999929      47.449999999999996      56.574999999999989
   138   1      9.1249999999999929      49.274999999999999      54.749999999999986
   139   1      7.2999999999999972      47.449999999999996      58.399999999999984
   140   1      7.2999999999999972      49.274999999999999      60.224999999999987
   141   1      9.1249999999999929      47.449999999999996      60.224999999999987
   142   1      9.1249999999999929      49.274999999999999      58.399999999999984
   143   1      7.2999999999999972      47.449999999999996      62.049999999999997
   144   1      7.2999999999999972      49.274999999999999                  63.875
   145   1      9.1249999999999929      47.449999999999996                  63.875
   146   1      9.1249999999999929      49.274999999999999      62.049999999999997
   147   1      9.1249999999999929      49.274999999999999      65.699999999999989
   148   1      9.1249999999999929      51.099999999999987      34.674999999999997
   149   1      7.2999999999999972      51.099999999999987      36.499999999999993
   150   1      7.2999999999999972       52.92499999999999      38.324999999999996
   151   1      9.1249999999999929      51.099999999999987      38.324999999999996
   152   1      9.1249999999999929       52.92499999999999      36.499999999999993
   153   1      7.2999999999999972      51.099999999999987      40.149999999999991
   154   1      7.2999999999999972       52.92499999999999      41.974999999999994
   155   1      9.1249999999999929      51.099999999999987      41.974999999999994
   156   1      9.1249999999999929       52.92499999999999      40.149999999999991
   157   1      7.2999999999999972      51.099999999999987       43.79999999999999
   158   1      7.2999999999999972       52.92499999999999      45.624999999999993
   159   1      9.1249999999999929      51.099999999999987      45.624999999999993
   160   1      9.1249999999999929       52.92499999999999       43.79999999999999
   161   1      7.2999999999999972      51.099999999999987      47.449999999999996
   162   1      7.2999999999999972       52.92499999999999      49.274999999999999
   163   1      9.1249999999999929      51.099999999999987      49.274999999999999
   164   1      9.1249999999999929       52.92499999999999      47.449999999999996
   165   1      7.2999999999999972      51.099999999999987      51.099999999999987
   166   1      7.2999999999999972       52.92499999999999       52.92499999999999
   167   1      9.1249999999999929      51.099999999999987       52.92499999999999
   168   1      9.1249999999999929       52.92499999999999      51.099999999999987
   169   1      7.2999999999999972      51.099999999999987      54.749999999999986
   170   1      7.2999999999999972       52.92499999999999      56.574999999999989
   171   1      9.1249999999999929      51.099999999999987      56.574999999999989
   172   1      9.1249999999999929       52.92499999999999      54.749999999999986
   173   1      7.2999999999999972      51.099999999999987      58.399999999999984
   174   1      7.2999999999999972       52.92499999999999      60.224999999999987
   175   1      9.1249999999999929      51.099999999999987      60.224999999999987
   176   1      9.1249999999999929       52.92499999999999      58.399999999999984
   177   1      7.2999999999999972      51.099999999999987      62.049999999999997
   178   1      7.2999999999999972       52.92499999999999                  63.875
   179   1      9.1249999999999929      51.099999999999987                  63.875
   180   1      9.1249999999999929       52.92499999999999      62.049999999999997
   181   1      7.2999999999999972      51.099999999999987      65.699999999999989
   182   1      9.1249999999999929      51.099999999999987      67.524999999999991
   183   1      9.1249999999999929       52.92499999999999      65.699999999999989
   184   1      9.1249999999999929      54.749999999999986      38.324999999999996
   185   1      7.2999999999999972      54.749999999999986      40.149999999999991
   186   1      7.2999999999999972      56.574999999999989      41.974999999999994
   187   1      9.1249999999999929      54.749999999999986      41.974999999999994
   188   1      9.1249999999999929      56.574999999999989      40.149999999999991
   189   1      7.2999999999999972      54.749999999999986       43.79999999999999
   190   1      7.2999999999999972      56.574999999999989      45.624999999999993
   191   1      9.1249999999999929      54.749999999999986      45.624999999999993
   192   1      9.1249999999999929      56.574999999999989       43.79999999999999
   193   1      7.2999999999999972      54.749999999999986      47.449999999999996
   194   1      7.2999999999999972      56.574999999999989      49.274999999999999
   195   1      9.1249999999999929      54.749999999999986      49.274999999999999
   196   1      9.1249999999999929      56.574999999999989      47.449999999999996
   197   1      7.2999999999999972      54.749999999999986      51.099999999999987
   198   1      7.2999999999999972      56.574999999999989       52.92499999999999
   199   1      9.1249999999999929      54.749999999999986       52.92499999999999
   200   1      9.1249999999999929      56.574999999999989      51.099999999999987
   201   1      7.2999999999999972      54.749999999999986      54.749999999999986
   202   1      7.2999999999999972      56.574999999999989      56.574999999999989
   203   1      9.1249999999999929      54.749999999999986      56.574999999999989
   204   1      9.1249999999999929      56.574999999999989      54.749999999999986
   205   1      7.2999999999999972      54.749999999999986      58.399999999999984
   206   1      7.2999999999999972      56.574999999999989      60.224999999999987
   207   1      9.1249999999999929      54.749999999999986      60.224999999999987
   208   1      9.1249999999999929      56.574999999999989      58.399999999999984
   209   1      7.2999999999999972      54.749999999999986      62.049999999999997
   210   1      9.1249999999999929      54.749999999999986                  63.875
   211   1      9.1249999999999929      56.574999999999989      62.049999999999997
   212   1      9.1249999999999929      58.399999999999984      41.974999999999994
   213   1      7.2999999999999972      58.399999999999984       43.79999999999999
   214   1      7.2999999999999972      60.224999999999987      45.624999999999993
   215   1      9.1249999999999929      58.399999999999984      45.624999999999993
   216   1      9.1249999999999929      60.224999999999987       43.79999999999999
   217   1      7.2999999999999972      58.399999999999984      47.449999999999996
   218   1      7.2999999999999972      60.224999999999987      49.274999999999999
   219   1      9.1249999999999929      58.399999999999984      49.274999999999999
   220   1      9.1249999999999929      60.224999999999987      47.449999999999996
   221   1      7.2999999999999972      58.399999999999984      51.099999999999987
   222   1      7.2999999999999972      60.224999999999987       52.92499999999999
   223   1      9.1249999999999929      58.399999999999984       52.92499999999999
   224   1      9.1249999999999929      60.224999999999987      51.099999999999987
   225   1      7.2999999999999972      58.399999999999984      54.749999999999986
   226   1      7.2999999999999972      60.224999999999987      56.574999999999989
   227   1      9.1249999999999929      58.399999999999984      56.574999999999989
   228   1      9.1249999999999929      60.224999999999987      54.749999999999986
   229   1      7.2999999999999972      58.399999999999984      58.399999999999984
   230   1      9.1249999999999929      58.399999999999984      60.224999999999987
   231   1      9.1249999999999929      60.224999999999987      58.399999999999984
   232   1      9.1249999999999929      62.049999999999997      45.624999999999993
   233   1      7.2999999999999972      62.049999999999997      47.449999999999996
   234   1      7.2999999999999972                  63.875      49.274999999999999
   235   1      9.1249999999999929      62.049999999999997      49.274999999999999
   236   1      9.1249999999999929                  63.875      47.449999999999996
   237   1      7.2999999999999972      62.049999999999997      51.099999999999987
   238   1      7.2999999999999972                  63.875       52.92499999999999
   239   1      9.1249999999999929      62.049999999999997       52.92499999999999
   240   1      9.1249999999999929                  63.875      51.099999999999987
   241   1      7.2999999999999972      62.049999999999997      54.749999999999986
   242   1      9.1249999999999929      62.049999999999997      56.574999999999989
   243   1      9.1249999999999929                  63.875      54.749999999999986
   244   1      9.1249999999999929      65.699999999999989      49.274999999999999
   245   1      7.2999999999999972      65.699999999999989      51.099999999999987
   246   1      9.1249999999999929      65.699999999999989       52.92499999999999
   247   1      9.1249999999999929      67.524999999999991      51.099999999999987
   248   1      12.774999999999991      27.374999999999993      51.099999999999987
   249   1      10.949999999999996      31.024999999999999      49.274999999999999
   250   1      12.774999999999991      29.199999999999992      49.274999999999999
   251   1      12.774999999999991      31.024999999999999      47.449999999999996
   252   1      10.949999999999996      29.199999999999992      51.099999999999987
   253   1      10.949999999999996      31.024999999999999       52.92499999999999
   254   1      12.774999999999991      29.199999999999992       52.92499999999999
   255   1      12.774999999999991      31.024999999999999      51.099999999999987
   256   1      12.774999999999991      31.024999999999999      54.749999999999986
   257   1      10.949999999999996      34.674999999999997      45.624999999999993
   258   1      12.774999999999991      32.849999999999994      45.624999999999993
   259   1      12.774999999999991      34.674999999999997       43.79999999999999
   260   1      10.949999999999996      32.849999999999994      47.449999999999996
   261   1      10.949999999999996      34.674999999999997      49.274999999999999
   262   1      12.774999999999991      32.849999999999994      49.274999999999999
   263   1      12.774999999999991      34.674999999999997      47.449999999999996
   264   1      10.949999999999996      32.849999999999994      51.099999999999987
   265   1      10.949999999999996      34.674999999999997       52.92499999999999
   266   1      12.774999999999991      32.849999999999994       52.92499999999999
   267   1      12.774999999999991      34.674999999999997      51.099999999999987
   268   1      10.949999999999996      32.849999999999994      54.749999999999986
   269   1      10.949999999999996      34.674999999999997      56.574999999999989
   270   1      12.774999999999991      32.849999999999994      56.574999999999989
   271   1      12.774999999999991      34.674999999999997      54.749999999999986
   272   1      12.774999999999991      34.674999999999997      58.399999999999984
   273   1      10.949999999999996      38.324999999999996      41.974999999999994
   274   1      12.774999999999991      36.499999999999993      41.974999999999994
   275   1      12.774999999999991      38.324999999999996      40.149999999999991
   276   1      10.949999999999996      36.499999999999993       43.79999999999999
   277   1      10.949999999999996      38.324999999999996      45.624999999999993
   278   1      12.774999999999991      36.499999999999993      45.624999999999993
   279   1      12.774999999999991      38.324999999999996       43.79999999999999
   280   1      10.949999999999996      36.499999999999993      47.449999999999996
   281   1      10.949999999999996      38.324999999999996      49.274999999999999
   282   1      12.774999999999991      36.499999999999993      49.274999999999999
   283   1      12.774999999999991      38.324999999999996      47.449999999999996
   284   1      10.949999999999996      36.499999999999993      51.099999999999987
   285   1      10.949999999999996      38.324999999999996       52.92499999999999
   286   1      12.774999999999991      36.499999999999993       52.92499999999999
   287   1      12.774999999999991      38.324999999999996      51.099999999999987
   288   1      10.949999999999996      36.499999999999993      54.749999999999986
   289   1      10.949999999999996      38.324999999999996      56.574999999999989
   290   1      12.774999999999991      36.499999999999993      56.574999999999989
   291   1      12.774999999999991      38.324999999999996      54.749999999999986
   292   1      10.949999999999996      36.499999999999993      58.399999999999984
   293   1      10.949999999999996      38.324999999999996      60.224999999999987
   294   1      12.774999999999991      36.499999999999993      60.224999999999987
   295   1      12.774999999999991      38.324999999999996      58.399999999999984
   296   1      12.774999999999991      38.324999999999996      62.049999999999997
   297   1      10.949999999999996      41.974999999999994      38.324999999999996
   298   1      12.774999999999991      40.149999999999991      38.324999999999996
   299   1      12.774999999999991      41.974999999999994      36.499999999999993
   300   1      10.949999999999996      40.149999999999991      40.149999999999991
   301   1      10.949999999999996      41.974999999999994      41.974999999999994
   302   1      12.774999999999991      40.149999999999991      41.974999999999994
   303   1      12.774999999999991      41.974999999999994      40.149999999999991
   304   1      10.949999999999996      40.149999999999991       43.79999999999999
   305   1      10.949999999999996      41.974999999999994      45.624999999999993
   306   1      12.774999999999991      40.149999999999991      45.624999999999993
   307   1      12.774999999999991      41.974999999999994       43.79999999999999
   308   1      10.949999999999996      40.149999999999991      47.449999999999996
   309   1      10.949999999999996      41.974999999999994      49.274999999999999
   310   1      12.774999999999991      40.149999999999991      49.274999999999999
   311   1      12.774999999999991      41.974999999999994      47.449999999999996
   312   1      10.949999999999996      40.149999999999991      51.099999999999987
   313   1      10.949999999999996      41.974999999999994       52.92499999999999
   314   1      12.774999999999991      40.149999999999991       52.92499999999999
   315   1      12.774999999999991      41.974999999999994      51.099999999999987
   316   1      10.949999999999996      40.149999999999991      54.749999999999986
   317   1      10.949999999999996      41.974999999999994      56.574999999999989
   318   1      12.774999999999991      40.149999999999991      56.574999999999989
   319   1      12.774999999999991      41.974999999999994      54.749999999999986
   320   1      10.949999999999996      40.149999999999991      58.399999999999984
   321   1      10.949999999999996      41.974999999999994      60.224999999999987
   322   1      12.774999999999991      40.149999999999991      60.224999999999987
   323   1      12.774999999999991      41.974999999999994      58.399999999999984
   324   1      10.949999999999996      40.149999999999991      62.049999999999997
   325   1      10.949999999999996      41.974999999999994                  63.875
   326   1      12.774999999999991      40.149999999999991                  63.875
   327   1      12.774999999999991      41.974999999999994      62.049999999999997
   328   1      12.774999999999991      41.974999999999994      65.699999999999989
   329   1      10.949999999999996      45.624999999999993      34.674999999999997
   330   1      12.774999999999991       43.79999999999999      34.674999999999997
   331   1      12.774999999999991      45.624999999999993      32.849999999999994
   332   1      10.949999999999996       43.79999999999999      36.499999999999993
   333   1      10.949999999999996      45.624999999999993      38.324999999999996
   334   1      12.774999999999991       43.79999999999999      38.324999999999996
   335   1      12.774999999999991      45.624999999999993      36.499999999999993
   336   1      10.949999999999996       43.79999999999999      40.149999999999991
   337   1      10.949999999999996      45.624999999999993      41.974999999999994
   338   1      12.774999999999991       43.79999999999999      41.974999999999994
   339   1      12.774999999999991      45.624999999999993      40.149999999999991
   340   1      10.949999999999996       43.79999999999999       43.79999999999999
   341   1      10.949999999999996      45.624999999999993      45.624999999999993
   342   1      12.774999999999991       43.79999999999999      45.624999999999993
   343   1      12.774999999999991      45.624999999999993       43.79999999999999
   344   1      10.949999999999996       43.79999999999999      47.449999999999996
   345   1      10.949999999999996      45.624999999999993      49.274999999999999
   346   1      12.774999999999991       43.79999999999999      49.274999999999999
   347   1      12.774999999999991      45.624999999999993      47.449999999999996
   348   1      10.949999999999996       43.79999999999999      51.099999999999987
   349   1      10.949999999999996      45.624999999999993       52.92499999999999
   350   1      12.774999999999991       43.79999999999999       52.92499999999999
   351   1      12.774999999999991      45.624999999999993      51.099999999999987
   352   1      10.949999999999996       43.79999999999999      54.749999999999986
   353   1      10.949999999999996      45.624999999999993      56.574999999999989
   354   1      12.774999999999991       43.79999999999999      56.574999999999989
   355   1      12.774999999999991      45.624999999999993      54.749999999999986
   356   1      10.949999999999996       43.79999999999999      58.399999999999984
   357   1      10.949999999999996      45.624999999999993      60.224999999999987
   358   1      12.774999999999991       43.79999999999999      60.224999999999987