model_files/CuNi/CuNi_30000/CuNi_433/CuNi_433_fcc_30337_temp.data (written by ASE) 

30337 	 atoms 
2  atom types
0.0                     114  xlo xhi
0.0                     114  ylo yhi
0.0                     114  zlo zhi


Atoms 

     1   1      1.7829999999999941      55.273000000000003      57.055999999999997
     2   1      1.7829999999999941      57.055999999999997      55.273000000000003
     3   1                       0      57.055999999999997      57.055999999999997
     4   1      1.7829999999999941      57.055999999999997      58.839000000000006
     5   1      1.7829999999999941      58.839000000000006      57.055999999999997
     6   1      5.3489999999999958      51.706999999999994      57.055999999999997
     7   1      3.5659999999999954      55.273000000000003      55.273000000000003
     8   1      5.3489999999999958      53.490000000000002      55.273000000000003
     9   1      5.3489999999999958      55.273000000000003      53.490000000000002
    10   1      3.5659999999999954      53.490000000000002      57.055999999999997
    11   1      3.5659999999999954      55.273000000000003      58.839000000000006
    12   1      5.3489999999999958      53.490000000000002      58.839000000000006
    13   1      5.3489999999999958      55.273000000000003      57.055999999999997
    14   1      5.3489999999999958      55.273000000000003      60.621999999999993
    15   1      5.3489999999999958      57.055999999999997      51.706999999999994
    16   1      3.5659999999999954      57.055999999999997      53.490000000000002
    17   1      3.5659999999999954      58.839000000000006      55.273000000000003
    18   1      5.3489999999999958      57.055999999999997      55.273000000000003
    19   1      5.3489999999999958      58.839000000000006      53.490000000000002
    20   1      3.5659999999999954      57.055999999999997      57.055999999999997
    21   1      3.5659999999999954      58.839000000000006      58.839000000000006
    22   1      5.3489999999999958      57.055999999999997      58.839000000000006
    23   1      5.3489999999999958      58.839000000000006      57.055999999999997
    24   1      3.5659999999999954      57.055999999999997      60.621999999999993
    25   1      5.3489999999999958      57.055999999999997      62.405000000000001
    26   1      5.3489999999999958      58.839000000000006      60.621999999999993
    27   1      5.3489999999999958      60.621999999999993      55.273000000000003
    28   1      3.5659999999999954      60.621999999999993      57.055999999999997
    29   1      5.3489999999999958      60.621999999999993      58.839000000000006
    30   1      5.3489999999999958      62.405000000000001      57.055999999999997
    31   1      8.9149999999999991      48.141000000000005      57.055999999999997
    32   1       7.131999999999997      51.706999999999994      55.273000000000003
    33   1      8.9149999999999991      49.923999999999999      55.273000000000003
    34   1      8.9149999999999991      51.706999999999994      53.490000000000002
    35   1       7.131999999999997      49.923999999999999      57.055999999999997
    36   1       7.131999999999997      51.706999999999994      58.839000000000006
    37   1      8.9149999999999991      49.923999999999999      58.839000000000006
    38   1      8.9149999999999991      51.706999999999994      57.055999999999997
    39   1      8.9149999999999991      51.706999999999994      60.621999999999993
    40   1       7.131999999999997      55.273000000000003      51.706999999999994
    41   1      8.9149999999999991      53.490000000000002      51.706999999999994
    42   1      8.9149999999999991      55.273000000000003      49.923999999999999
    43   1       7.131999999999997      53.490000000000002      53.490000000000002
    44   1       7.131999999999997      55.273000000000003      55.273000000000003
    45   1      8.9149999999999991      53.490000000000002      55.273000000000003
    46   1      8.9149999999999991      55.273000000000003      53.490000000000002
    47   1       7.131999999999997      53.490000000000002      57.055999999999997
    48   1       7.131999999999997      55.273000000000003      58.839000000000006
    49   1      8.9149999999999991      53.490000000000002      58.839000000000006
    50   1      8.9149999999999991      55.273000000000003      57.055999999999997
    51   1       7.131999999999997      53.490000000000002      60.621999999999993
    52   1       7.131999999999997      55.273000000000003      62.405000000000001
    53   1      8.9149999999999991      53.490000000000002      62.405000000000001
    54   1      8.9149999999999991      55.273000000000003      60.621999999999993
    55   1      8.9149999999999991      55.273000000000003      64.188000000000002
    56   1      8.9149999999999991      57.055999999999997      48.141000000000005
    57   1       7.131999999999997      57.055999999999997      49.923999999999999
    58   1       7.131999999999997      58.839000000000006      51.706999999999994
    59   1      8.9149999999999991      57.055999999999997      51.706999999999994
    60   1      8.9149999999999991      58.839000000000006      49.923999999999999
    61   1       7.131999999999997      57.055999999999997      53.490000000000002
    62   1       7.131999999999997      58.839000000000006      55.273000000000003
    63   1      8.9149999999999991      57.055999999999997      55.273000000000003
    64   1      8.9149999999999991      58.839000000000006      53.490000000000002
    65   1       7.131999999999997      57.055999999999997      57.055999999999997
    66   1       7.131999999999997      58.839000000000006      58.839000000000006
    67   1      8.9149999999999991      57.055999999999997      58.839000000000006
    68   1      8.9149999999999991      58.839000000000006      57.055999999999997
    69   1       7.131999999999997      57.055999999999997      60.621999999999993
    70   1       7.131999999999997      58.839000000000006      62.405000000000001
    71   1      8.9149999999999991      57.055999999999997      62.405000000000001
    72   1      8.9149999999999991      58.839000000000006      60.621999999999993
    73   1       7.131999999999997      57.055999999999997      64.188000000000002
    74   1      8.9149999999999991      57.055999999999997      65.970999999999989
    75   1      8.9149999999999991      58.839000000000006      64.188000000000002
    76   1      8.9149999999999991      60.621999999999993      51.706999999999994
    77   1       7.131999999999997      60.621999999999993      53.490000000000002
    78   1       7.131999999999997      62.405000000000001      55.273000000000003
    79   1      8.9149999999999991      60.621999999999993      55.273000000000003
    80   1      8.9149999999999991      62.405000000000001      53.490000000000002
    81   1       7.131999999999997      60.621999999999993      57.055999999999997
    82   1       7.131999999999997      62.405000000000001      58.839000000000006
    83   1      8.9149999999999991      60.621999999999993      58.839000000000006
    84   1      8.9149999999999991      62.405000000000001      57.055999999999997
    85   1       7.131999999999997      60.621999999999993      60.621999999999993
    86   1      8.9149999999999991      60.621999999999993      62.405000000000001
    87   1      8.9149999999999991      62.405000000000001      60.621999999999993
    88   1      8.9149999999999991      64.188000000000002      55.273000000000003
    89   1       7.131999999999997      64.188000000000002      57.055999999999997
    90   1      8.9149999999999991      64.188000000000002      58.839000000000006
    91   1      8.9149999999999991      65.970999999999989      57.055999999999997
    92   1      12.481000000000002      41.008999999999993      57.055999999999997
    93   1                  10.698      44.575000000000003      55.273000000000003
    94   1      12.481000000000002      42.792000000000002      55.273000000000003
    95   1      12.481000000000002      44.575000000000003      53.490000000000002
    96   1                  10.698      42.792000000000002      57.055999999999997
    97   1                  10.698      44.575000000000003      58.839000000000006
    98   1      12.481000000000002      42.792000000000002      58.839000000000006
    99   1      12.481000000000002      44.575000000000003      57.055999999999997
   100   1      12.481000000000002      44.575000000000003      60.621999999999993
   101   1                  10.698      48.141000000000005      51.706999999999994
   102   1      12.481000000000002      46.357999999999997      51.706999999999994
   103   1      12.481000000000002      48.141000000000005      49.923999999999999
   104   1                  10.698      46.357999999999997      53.490000000000002
   105   1                  10.698      48.141000000000005      55.273000000000003
   106   1      12.481000000000002      46.357999999999997      55.273000000000003
   107   1      12.481000000000002      48.141000000000005      53.490000000000002
   108   1                  10.698      46.357999999999997      57.055999999999997
   109   1                  10.698      48.141000000000005      58.839000000000006
   110   1      12.481000000000002      46.357999999999997      58.839000000000006
   111   1      12.481000000000002      48.141000000000005      57.055999999999997
   112   1                  10.698      46.357999999999997      60.621999999999993
   113   1                  10.698      48.141000000000005      62.405000000000001
   114   1      12.481000000000002      46.357999999999997      62.405000000000001
   115   1      12.481000000000002      48.141000000000005      60.621999999999993
   116   1      12.481000000000002      48.141000000000005      64.188000000000002
   117   1                  10.698      51.706999999999994      48.141000000000005
   118   1      12.481000000000002      49.923999999999999      48.141000000000005
   119   1      12.481000000000002      51.706999999999994      46.357999999999997
   120   1                  10.698      49.923999999999999      49.923999999999999
   121   1                  10.698      51.706999999999994      51.706999999999994
   122   1      12.481000000000002      49.923999999999999      51.706999999999994
   123   1      12.481000000000002      51.706999999999994      49.923999999999999
   124   1                  10.698      49.923999999999999      53.490000000000002
   125   1                  10.698      51.706999999999994      55.273000000000003
   126   1      12.481000000000002      49.923999999999999      55.273000000000003
   127   1      12.481000000000002      51.706999999999994      53.490000000000002
   128   1                  10.698      49.923999999999999      57.055999999999997
   129   1                  10.698      51.706999999999994      58.839000000000006
   130   1      12.481000000000002      49.923999999999999      58.839000000000006
   131   1      12.481000000000002      51.706999999999994      57.055999999999997
   132   1                  10.698      49.923999999999999      60.621999999999993
   133   1                  10.698      51.706999999999994      62.405000000000001
   134   1      12.481000000000002      49.923999999999999      62.405000000000001
   135   1      12.481000000000002      51.706999999999994      60.621999999999993
   136   1                  10.698      49.923999999999999      64.188000000000002
   137   1                  10.698      51.706999999999994      65.970999999999989
   138   1      12.481000000000002      49.923999999999999      65.970999999999989
   139   1      12.481000000000002      51.706999999999994      64.188000000000002
   140   1      12.481000000000002      51.706999999999994      67.754000000000005
   141   1                  10.698      55.273000000000003      44.575000000000003
   142   1      12.481000000000002      53.490000000000002      44.575000000000003
   143   1      12.481000000000002      55.273000000000003      42.792000000000002
   144   1                  10.698      53.490000000000002      46.357999999999997
   145   1                  10.698      55.273000000000003      48.141000000000005
   146   1      12.481000000000002      53.490000000000002      48.141000000000005
   147   1      12.481000000000002      55.273000000000003      46.357999999999997
   148   1                  10.698      53.490000000000002      49.923999999999999
   149   1                  10.698      55.273000000000003      51.706999999999994
   150   1      12.481000000000002      53.490000000000002      51.706999999999994
   151   1      12.481000000000002      55.273000000000003      49.923999999999999
   152   1                  10.698      53.490000000000002      53.490000000000002
   153   1                  10.698      55.273000000000003      55.273000000000003
   154   1      12.481000000000002      53.490000000000002      55.273000000000003
   155   1      12.481000000000002      55.273000000000003      53.490000000000002
   156   1                  10.698      53.490000000000002      57.055999999999997
   157   1                  10.698      55.273000000000003      58.839000000000006
   158   1      12.481000000000002      53.490000000000002      58.839000000000006
   159   1      12.481000000000002      55.273000000000003      57.055999999999997
   160   1                  10.698      53.490000000000002      60.621999999999993
   161   1                  10.698      55.273000000000003      62.405000000000001
   162   1      12.481000000000002      53.490000000000002      62.405000000000001
   163   1      12.481000000000002      55.273000000000003      60.621999999999993
   164   1                  10.698      53.490000000000002      64.188000000000002
   165   1                  10.698      55.273000000000003      65.970999999999989
   166   1      12.481000000000002      53.490000000000002      65.970999999999989
   167   1      12.481000000000002      55.273000000000003      64.188000000000002
   168   1                  10.698      53.490000000000002      67.754000000000005
   169   1                  10.698      55.273000000000003      69.537000000000006
   170   1      12.481000000000002      53.490000000000002      69.537000000000006
   171   1      12.481000000000002      55.273000000000003      67.754000000000005
   172   1      12.481000000000002      55.273000000000003      71.319999999999993
   173   1      12.481000000000002      57.055999999999997      41.008999999999993
   174   1                  10.698      57.055999999999997      42.792000000000002
   175   1                  10.698      58.839000000000006      44.575000000000003
   176   1      12.481000000000002      57.055999999999997      44.575000000000003
   177   1      12.481000000000002      58.839000000000006      42.792000000000002
   178   1                  10.698      57.055999999999997      46.357999999999997
   179   1                  10.698      58.839000000000006      48.141000000000005
   180   1      12.481000000000002      57.055999999999997      48.141000000000005
   181   1      12.481000000000002      58.839000000000006      46.357999999999997
   182   1                  10.698      57.055999999999997      49.923999999999999
   183   1                  10.698      58.839000000000006      51.706999999999994
   184   1      12.481000000000002      57.055999999999997      51.706999999999994
   185   1      12.481000000000002      58.839000000000006      49.923999999999999
   186   1                  10.698      57.055999999999997      53.490000000000002
   187   1                  10.698      58.839000000000006      55.273000000000003
   188   1      12.481000000000002      57.055999999999997      55.273000000000003
   189   1      12.481000000000002      58.839000000000006      53.490000000000002
   190   1                  10.698      57.055999999999997      57.055999999999997
   191   1                  10.698      58.839000000000006      58.839000000000006
   192   1      12.481000000000002      57.055999999999997      58.839000000000006
   193   1      12.481000000000002      58.839000000000006      57.055999999999997
   194   1                  10.698      57.055999999999997      60.621999999999993
   195   1                  10.698      58.839000000000006      62.405000000000001
   196   1      12.481000000000002      57.055999999999997      62.405000000000001
   197   1      12.481000000000002      58.839000000000006      60.621999999999993
   198   1                  10.698      57.055999999999997      64.188000000000002
   199   1                  10.698      58.839000000000006      65.970999999999989
   200   1      12.481000000000002      57.055999999999997      65.970999999999989
   201   1      12.481000000000002      58.839000000000006      64.188000000000002
   202   1                  10.698      57.055999999999997      67.754000000000005
   203   1                  10.698      58.839000000000006      69.537000000000006
   204   1      12.481000000000002      57.055999999999997      69.537000000000006
   205   1      12.481000000000002      58.839000000000006      67.754000000000005
   206   1                  10.698      57.055999999999997      71.319999999999993
   207   1      12.481000000000002      57.055999999999997      73.103000000000009
   208   1      12.481000000000002      58.839000000000006      71.319999999999993
   209   1      12.481000000000002      60.621999999999993      44.575000000000003
   210   1                  10.698      60.621999999999993      46.357999999999997
   211   1                  10.698      62.405000000000001      48.141000000000005
   212   1      12.481000000000002      60.621999999999993      48.141000000000005
   213   1      12.481000000000002      62.405000000000001      46.357999999999997
   214   1                  10.698      60.621999999999993      49.923999999999999
   215   1                  10.698      62.405000000000001      51.706999999999994
   216   1      12.481000000000002      60.621999999999993      51.706999999999994
   217   1      12.481000000000002      62.405000000000001      49.923999999999999
   218   1                  10.698      60.621999999999993      53.490000000000002
   219   1                  10.698      62.405000000000001      55.273000000000003
   220   1      12.481000000000002      60.621999999999993      55.273000000000003
   221   1      12.481000000000002      62.405000000000001      53.490000000000002
   222   1                  10.698      60.621999999999993      57.055999999999997
   223   1                  10.698      62.405000000000001      58.839000000000006
   224   1      12.481000000000002      60.621999999999993      58.839000000000006
   225   1      12.481000000000002      62.405000000000001      57.055999999999997
   226   1                  10.698      60.621999999999993      60.621999999999993
   227   1                  10.698      62.405000000000001      62.405000000000001
   228   1      12.481000000000002      60.621999999999993      62.405000000000001
   229   1      12.481000000000002      62.405000000000001      60.621999999999993
   230   1                  10.698      60.621999999999993      64.188000000000002
   231   1                  10.698      62.405000000000001      65.970999999999989
   232   1      12.481000000000002      60.621999999999993      65.970999999999989
   233   1      12.481000000000002      62.405000000000001      64.188000000000002
   234   1                  10.698      60.621999999999993      67.754000000000005
   235   1      12.481000000000002      60.621999999999993      69.537000000000006
   236   1      12.481000000000002      62.405000000000001      67.754000000000005
   237   1      12.481000000000002      64.188000000000002      48.141000000000005
   238   1                  10.698      64.188000000000002      49.923999999999999
   239   1                  10.698      65.970999999999989      51.706999999999994
   240   1      12.481000000000002      64.188000000000002      51.706999999999994
   241   1      12.481000000000002      65.970999999999989      49.923999999999999
   242   1                  10.698      64.188000000000002      53.490000000000002
   243   1                  10.698      65.970999999999989      55.273000000000003
   244   1      12.481000000000002      64.188000000000002      55.273000000000003
   245   1      12.481000000000002      65.970999999999989      53.490000000000002
   246   1                  10.698      64.188000000000002      57.055999999999997
   247   1                  10.698      65.970999999999989      58.839000000000006
   248   1      12.481000000000002      64.188000000000002      58.839000000000006
   249   1      12.481000000000002      65.970999999999989      57.055999999999997
   250   1                  10.698      64.188000000000002      60.621999999999993
   251   1                  10.698      65.970999999999989      62.405000000000001
   252   1      12.481000000000002      64.188000000000002      62.405000000000001
   253   1      12.481000000000002      65.970999999999989      60.621999999999993
   254   1                  10.698      64.188000000000002      64.188000000000002
   255   1      12.481000000000002      64.188000000000002      65.970999999999989
   256   1      12.481000000000002      65.970999999999989      64.188000000000002
   257   1      12.481000000000002      67.754000000000005      51.706999999999994
   258   1                  10.698      67.754000000000005      53.490000000000002
   259   1                  10.698      69.537000000000006      55.273000000000003
   260   1      12.481000000000002      67.754000000000005      55.273000000000003
   261   1      12.481000000000002      69.537000000000006      53.490000000000002
   262   1                  10.698      67.754000000000005      57.055999999999997
   263   1                  10.698      69.537000000000006      58.839000000000006
   264   1      12.481000000000002      67.754000000000005      58.839000000000006
   265   1      12.481000000000002      69.537000000000006      57.055999999999997
   266   1                  10.698      67.754000000000005      60.621999999999993
   267   1      12.481000000000002      67.754000000000005      62.405000000000001
   268   1      12.481000000000002      69.537000000000006      60.621999999999993
   269   1      12.481000000000002      71.319999999999993      55.273000000000003
   270   1                  10.698      71.319999999999993      57.055999999999997
   271   1      12.481000000000002      71.319999999999993      58.839000000000006
   272   1      12.481000000000002      73.103000000000009      57.055999999999997
   273   1      16.047000000000004      37.443000000000005      57.055999999999997
   274   1      14.264000000000003      41.008999999999993      55.273000000000003
   275   1      16.047000000000004      39.225999999999999      55.273000000000003
   276   1      16.047000000000004      41.008999999999993      53.490000000000002
   277   1      14.264000000000003      39.225999999999999      57.055999999999997
   278   1      14.264000000000003      41.008999999999993      58.839000000000006
   279   1      16.047000000000004      39.225999999999999      58.839000000000006
   280   1      16.047000000000004      41.008999999999993      57.055999999999997
   281   1      16.047000000000004      41.008999999999993      60.621999999999993
   282   1      14.264000000000003      44.575000000000003      51.706999999999994
   283   1      16.047000000000004      42.792000000000002      51.706999999999994
   284   1      16.047000000000004      44.575000000000003      49.923999999999999
   285   1      14.264000000000003      42.792000000000002      53.490000000000002
   286   1      14.264000000000003      44.575000000000003      55.273000000000003
   287   1      16.047000000000004      42.792000000000002      55.273000000000003
   288   1      16.047000000000004      44.575000000000003      53.490000000000002
   289   1      14.264000000000003      42.792000000000002      57.055999999999997
   290   1      14.264000000000003      44.575000000000003      58.839000000000006
   291   1      16.047000000000004      42.792000000000002      58.839000000000006
   292   1      16.047000000000004      44.575000000000003      57.055999999999997
   293   1      14.264000000000003      42.792000000000002      60.621999999999993
   294   1      14.264000000000003      44.575000000000003      62.405000000000001
   295   1      16.047000000000004      42.792000000000002      62.405000000000001
   296   1      16.047000000000004      44.575000000000003      60.621999999999993
   297   1      16.047000000000004      44.575000000000003      64.188000000000002
   298   1      14.264000000000003      48.141000000000005      48.141000000000005
   299   1      16.047000000000004      46.357999999999997      48.141000000000005
   300   1      16.047000000000004      48.141000000000005      46.357999999999997
   301   1      14.264000000000003      46.357999999999997      49.923999999999999
   302   1      14.264000000000003      48.141000000000005      51.706999999999994
   303   1      16.047000000000004      46.357999999999997      51.706999999999994
   304   1      16.047000000000004      48.141000000000005      49.923999999999999
   305   1      14.264000000000003      46.357999999999997      53.490000000000002
   306   1      14.264000000000003      48.141000000000005      55.273000000000003
   307   1      16.047000000000004      46.357999999999997      55.273000000000003
   308   1      16.047000000000004      48.141000000000005      53.490000000000002
   309   1      14.264000000000003      46.357999999999997      57.055999999999997
   310   1      14.264000000000003      48.141000000000005      58.839000000000006
   311   1      16.047000000000004      46.357999999999997      58.839000000000006
   312   1      16.047000000000004      48.141000000000005      57.055999999999997
   313   1      14.264000000000003      46.357999999999997      60.621999999999993
   314   1      14.264000000000003      48.141000000000005      62.405000000000001
   315   1      16.047000000000004      46.357999999999997      62.405000000000001
   316   1      16.047000000000004      48.141000000000005      60.621999999999993
   317   1      14.264000000000003      46.357999999999997      64.188000000000002
   318   1      14.264000000000003      48.141000000000005      65.970999999999989
   319   1      16.047000000000004      46.357999999999997      65.970999999999989
   320   1      16.047000000000004      48.141000000000005      64.188000000000002
   321   1      16.047000000000004      48.141000000000005      67.754000000000005
   322   1      14.264000000000003      51.706999999999994      44.575000000000003
   323   1      16.047000000000004      49.923999999999999      44.575000000000003
   324   1      16.047000000000004      51.706999999999994      42.792000000000002
   325   1      14.264000000000003      49.923999999999999      46.357999999999997
   326   1      14.264000000000003      51.706999999999994      48.141000000000005
   327   1      16.047000000000004      49.923999999999999      48.141000000000005
   328   1      16.047000000000004      51.706999999999994      46.357999999999997
   329   1      14.264000000000003      49.923999999999999      49.923999999999999
   330   1      14.264000000000003      51.706999999999994      51.706999999999994
   331   1      16.047000000000004      49.923999999999999      51.706999999999994
   332   1      16.047000000000004      51.706999999999994      49.923999999999999
   333   1      14.264000000000003      49.923999999999999      53.490000000000002
   334   1      14.264000000000003      51.706999999999994      55.273000000000003
   335   1      16.047000000000004      49.923999999999999      55.273000000000003
   336   1      16.047000000000004      51.706999999999994      53.490000000000002
   337   1      14.264000000000003      49.923999999999999      57.055999999999997
   338   1      14.264000000000003      51.706999999999994      58.839000000000006
   339   1      16.047000000000004      49.923999999999999      58.839000000000006
   340   1      16.047000000000004      51.706999999999994      57.055999999999997
   341   1      14.264000000000003      49.923999999999999      60.621999999999993
   342   1      14.264000000000003      51.706999999999994      62.405000000000001
   343   1      16.047000000000004      49.923999999999999      62.405000000000001
   344   1      16.047000000000004      51.706999999999994      60.621999999999993
   345   1      14.264000000000003      49.923999999999999      64.188000000000002
   346   1      14.264000000000003      51.706999999999994      65.970999999999989
   347   1      16.047000000000004      49.923999999999999      65.970999999999989
   348   1      16.047000000000004      51.706999999999994      64.188000000000002
   349   1      14.264000000000003      49.923999999999999      67.754000000000005
   350   1      14.264000000000003      51.706999999999994      69.537000000000006
   351   1      16.047000000000004      49.923999999999999      69.537000000000006
   352   1      16.047000000000004      51.706999999999994      67.754000000000005
   353   1      16.047000000000004      51.706999999999994      71.319999999999993
   354   1      14.264000000000003      55.273000000000003      41.008999999999993
   355   1      16.047000000000004      53.490000000000002      41.008999999999993
   356   1      16.047000000000004      55.273000000000003      39.225999999999999
   357   1      14.264000000000003      53.490000000000002      42.792000000000002
   358   1      14.264000000000003      55.273000000000003      44.575000000000003