model_files/Co/Co_3000/Co_530/data.Co_530_hcp_3049 (written by ASE) 

3049 	 atoms 
1  atom types
0.0                      30  xlo xhi
0.0                      30  ylo yhi
0.0                      30  zlo zhi


Atoms 

     1   1      1.2549999999999955      12.549999999999994      13.804999999999993
     2   1      1.2549999999999955      13.804999999999993      12.549999999999994
     3   1      1.2549999999999955      12.549999999999994      16.314999999999994
     4   1      1.2549999999999955      13.804999999999993      15.059999999999993
     5   1      1.2549999999999955      13.804999999999993      17.569999999999993
     6   1      1.2549999999999955      15.059999999999993      13.804999999999993
     7   1      1.2549999999999955      16.314999999999994      12.549999999999994
     8   1      29.999999999999993      15.059999999999993      15.059999999999993
     9   1      1.2549999999999955      15.059999999999993      16.314999999999994
    10   1      1.2549999999999955      16.314999999999994      15.059999999999993
    11   1      1.2549999999999955      16.314999999999994      17.569999999999993
    12   1      1.2549999999999955      17.569999999999993      13.804999999999993
    13   1      1.2549999999999955      17.569999999999993      16.314999999999994
    14   1      3.7649999999999935       8.784999999999993      10.039999999999994
    15   1      3.7649999999999935       8.784999999999993      12.549999999999994
    16   1      3.7649999999999935       8.784999999999993      15.059999999999993
    17   1      3.7649999999999935       8.784999999999993      17.569999999999993
    18   1      3.7649999999999935       8.784999999999993      20.079999999999991
    19   1      3.7649999999999935      10.039999999999994       8.784999999999993
    20   1      2.5099999999999945      10.039999999999994      10.039999999999994
    21   1      2.5099999999999945      11.294999999999995      11.294999999999995
    22   1      3.7649999999999935      10.039999999999994      11.294999999999995
    23   1      3.7649999999999935      11.294999999999995      10.039999999999994
    24   1      2.5099999999999945      10.039999999999994      12.549999999999994
    25   1      2.5099999999999945      11.294999999999995      13.804999999999993
    26   1      3.7649999999999935      10.039999999999994      13.804999999999993
    27   1      3.7649999999999935      11.294999999999995      12.549999999999994
    28   1      2.5099999999999945      10.039999999999994      15.059999999999993
    29   1      2.5099999999999945      11.294999999999995      16.314999999999994
    30   1      3.7649999999999935      10.039999999999994      16.314999999999994
    31   1      3.7649999999999935      11.294999999999995      15.059999999999993
    32   1      2.5099999999999945      10.039999999999994      17.569999999999993
    33   1      2.5099999999999945      11.294999999999995      18.824999999999992
    34   1      3.7649999999999935      10.039999999999994      18.824999999999992
    35   1      3.7649999999999935      11.294999999999995      17.569999999999993
    36   1      2.5099999999999945      10.039999999999994      20.079999999999991
    37   1      3.7649999999999935      10.039999999999994      21.334999999999987
    38   1      3.7649999999999935      11.294999999999995      20.079999999999991
    39   1      3.7649999999999935      12.549999999999994       8.784999999999993
    40   1      2.5099999999999945      12.549999999999994      10.039999999999994
    41   1      2.5099999999999945      13.804999999999993      11.294999999999995
    42   1      3.7649999999999935      12.549999999999994      11.294999999999995
    43   1      3.7649999999999935      13.804999999999993      10.039999999999994
    44   1      2.5099999999999945      12.549999999999994      12.549999999999994
    45   1      2.5099999999999945      13.804999999999993      13.804999999999993
    46   1      3.7649999999999935      12.549999999999994      13.804999999999993
    47   1      3.7649999999999935      13.804999999999993      12.549999999999994
    48   1      2.5099999999999945      12.549999999999994      15.059999999999993
    49   1      2.5099999999999945      13.804999999999993      16.314999999999994
    50   1      3.7649999999999935      12.549999999999994      16.314999999999994
    51   1      3.7649999999999935      13.804999999999993      15.059999999999993
    52   1      2.5099999999999945      12.549999999999994      17.569999999999993
    53   1      2.5099999999999945      13.804999999999993      18.824999999999992
    54   1      3.7649999999999935      12.549999999999994      18.824999999999992
    55   1      3.7649999999999935      13.804999999999993      17.569999999999993
    56   1      2.5099999999999945      12.549999999999994      20.079999999999991
    57   1      3.7649999999999935      12.549999999999994      21.334999999999987
    58   1      3.7649999999999935      13.804999999999993      20.079999999999991
    59   1      3.7649999999999935      15.059999999999993       8.784999999999993
    60   1      2.5099999999999945      15.059999999999993      10.039999999999994
    61   1      2.5099999999999945      16.314999999999994      11.294999999999995
    62   1      3.7649999999999935      15.059999999999993      11.294999999999995
    63   1      3.7649999999999935      16.314999999999994      10.039999999999994
    64   1      2.5099999999999945      15.059999999999993      12.549999999999994
    65   1      2.5099999999999945      16.314999999999994      13.804999999999993
    66   1      3.7649999999999935      15.059999999999993      13.804999999999993
    67   1      3.7649999999999935      16.314999999999994      12.549999999999994
    68   1      2.5099999999999945      15.059999999999993      15.059999999999993
    69   1      2.5099999999999945      16.314999999999994      16.314999999999994
    70   1      3.7649999999999935      15.059999999999993      16.314999999999994
    71   1      3.7649999999999935      16.314999999999994      15.059999999999993
    72   1      2.5099999999999945      15.059999999999993      17.569999999999993
    73   1      2.5099999999999945      16.314999999999994      18.824999999999992
    74   1      3.7649999999999935      15.059999999999993      18.824999999999992
    75   1      3.7649999999999935      16.314999999999994      17.569999999999993
    76   1      2.5099999999999945      15.059999999999993      20.079999999999991
    77   1      3.7649999999999935      15.059999999999993      21.334999999999987
    78   1      3.7649999999999935      16.314999999999994      20.079999999999991
    79   1      3.7649999999999935      17.569999999999993       8.784999999999993
    80   1      2.5099999999999945      17.569999999999993      10.039999999999994
    81   1      2.5099999999999945      18.824999999999992      11.294999999999995
    82   1      3.7649999999999935      17.569999999999993      11.294999999999995
    83   1      3.7649999999999935      18.824999999999992      10.039999999999994
    84   1      2.5099999999999945      17.569999999999993      12.549999999999994
    85   1      2.5099999999999945      18.824999999999992      13.804999999999993
    86   1      3.7649999999999935      17.569999999999993      13.804999999999993
    87   1      3.7649999999999935      18.824999999999992      12.549999999999994
    88   1      2.5099999999999945      17.569999999999993      15.059999999999993
    89   1      2.5099999999999945      18.824999999999992      16.314999999999994
    90   1      3.7649999999999935      17.569999999999993      16.314999999999994
    91   1      3.7649999999999935      18.824999999999992      15.059999999999993
    92   1      2.5099999999999945      17.569999999999993      17.569999999999993
    93   1      2.5099999999999945      18.824999999999992      18.824999999999992
    94   1      3.7649999999999935      17.569999999999993      18.824999999999992
    95   1      3.7649999999999935      18.824999999999992      17.569999999999993
    96   1      2.5099999999999945      17.569999999999993      20.079999999999991
    97   1      3.7649999999999935      17.569999999999993      21.334999999999987
    98   1      3.7649999999999935      18.824999999999992      20.079999999999991
    99   1      3.7649999999999935      20.079999999999991       8.784999999999993
   100   1      2.5099999999999945      20.079999999999991      10.039999999999994
   101   1      3.7649999999999935      20.079999999999991      11.294999999999995
   102   1      3.7649999999999935      21.334999999999987      10.039999999999994
   103   1      2.5099999999999945      20.079999999999991      12.549999999999994
   104   1      3.7649999999999935      20.079999999999991      13.804999999999993
   105   1      3.7649999999999935      21.334999999999987      12.549999999999994
   106   1      2.5099999999999945      20.079999999999991      15.059999999999993
   107   1      3.7649999999999935      20.079999999999991      16.314999999999994
   108   1      3.7649999999999935      21.334999999999987      15.059999999999993
   109   1      2.5099999999999945      20.079999999999991      17.569999999999993
   110   1      3.7649999999999935      20.079999999999991      18.824999999999992
   111   1      3.7649999999999935      21.334999999999987      17.569999999999993
   112   1      2.5099999999999945      20.079999999999991      20.079999999999991
   113   1      3.7649999999999935      20.079999999999991      21.334999999999987
   114   1      3.7649999999999935      21.334999999999987      20.079999999999991
   115   1      5.0199999999999942       6.274999999999995       6.274999999999995
   116   1       6.274999999999995      5.0199999999999942       6.274999999999995
   117   1       6.274999999999995       6.274999999999995      5.0199999999999942
   118   1      5.0199999999999942       6.274999999999995       8.784999999999993
   119   1       6.274999999999995      5.0199999999999942       8.784999999999993
   120   1       6.274999999999995       6.274999999999995      7.5299999999999931
   121   1      5.0199999999999942       6.274999999999995      11.294999999999995
   122   1       6.274999999999995      5.0199999999999942      11.294999999999995
   123   1       6.274999999999995       6.274999999999995      10.039999999999994
   124   1      5.0199999999999942       6.274999999999995      13.804999999999993
   125   1       6.274999999999995      5.0199999999999942      13.804999999999993
   126   1       6.274999999999995       6.274999999999995      12.549999999999994
   127   1      5.0199999999999942       6.274999999999995      16.314999999999994
   128   1       6.274999999999995      5.0199999999999942      16.314999999999994
   129   1       6.274999999999995       6.274999999999995      15.059999999999993
   130   1      5.0199999999999942       6.274999999999995      18.824999999999992
   131   1       6.274999999999995      5.0199999999999942      18.824999999999992
   132   1       6.274999999999995       6.274999999999995      17.569999999999993
   133   1      5.0199999999999942       6.274999999999995      21.334999999999987
   134   1       6.274999999999995      5.0199999999999942      21.334999999999987
   135   1       6.274999999999995       6.274999999999995      20.079999999999991
   136   1      5.0199999999999942       6.274999999999995      23.844999999999992
   137   1       6.274999999999995      5.0199999999999942      23.844999999999992
   138   1       6.274999999999995       6.274999999999995      22.589999999999993
   139   1       6.274999999999995       6.274999999999995      25.099999999999994
   140   1      5.0199999999999942       8.784999999999993       6.274999999999995
   141   1       6.274999999999995      7.5299999999999931       6.274999999999995
   142   1       6.274999999999995       8.784999999999993      5.0199999999999942
   143   1      5.0199999999999942      7.5299999999999931      7.5299999999999931
   144   1      5.0199999999999942       8.784999999999993       8.784999999999993
   145   1       6.274999999999995      7.5299999999999931       8.784999999999993
   146   1       6.274999999999995       8.784999999999993      7.5299999999999931
   147   1      5.0199999999999942      7.5299999999999931      10.039999999999994
   148   1      5.0199999999999942       8.784999999999993      11.294999999999995
   149   1       6.274999999999995      7.5299999999999931      11.294999999999995
   150   1       6.274999999999995       8.784999999999993      10.039999999999994
   151   1      5.0199999999999942      7.5299999999999931      12.549999999999994
   152   1      5.0199999999999942       8.784999999999993      13.804999999999993
   153   1       6.274999999999995      7.5299999999999931      13.804999999999993
   154   1       6.274999999999995       8.784999999999993      12.549999999999994
   155   1      5.0199999999999942      7.5299999999999931      15.059999999999993
   156   1      5.0199999999999942       8.784999999999993      16.314999999999994
   157   1       6.274999999999995      7.5299999999999931      16.314999999999994
   158   1       6.274999999999995       8.784999999999993      15.059999999999993
   159   1      5.0199999999999942      7.5299999999999931      17.569999999999993
   160   1      5.0199999999999942       8.784999999999993      18.824999999999992
   161   1       6.274999999999995      7.5299999999999931      18.824999999999992
   162   1       6.274999999999995       8.784999999999993      17.569999999999993
   163   1      5.0199999999999942      7.5299999999999931      20.079999999999991
   164   1      5.0199999999999942       8.784999999999993      21.334999999999987
   165   1       6.274999999999995      7.5299999999999931      21.334999999999987
   166   1       6.274999999999995       8.784999999999993      20.079999999999991
   167   1      5.0199999999999942      7.5299999999999931      22.589999999999993
   168   1      5.0199999999999942       8.784999999999993      23.844999999999992
   169   1       6.274999999999995      7.5299999999999931      23.844999999999992
   170   1       6.274999999999995       8.784999999999993      22.589999999999993
   171   1       6.274999999999995       8.784999999999993      25.099999999999994
   172   1      5.0199999999999942      11.294999999999995       6.274999999999995
   173   1       6.274999999999995      10.039999999999994       6.274999999999995
   174   1       6.274999999999995      11.294999999999995      5.0199999999999942
   175   1      5.0199999999999942      10.039999999999994      7.5299999999999931
   176   1      5.0199999999999942      11.294999999999995       8.784999999999993
   177   1       6.274999999999995      10.039999999999994       8.784999999999993
   178   1       6.274999999999995      11.294999999999995      7.5299999999999931
   179   1      5.0199999999999942      10.039999999999994      10.039999999999994
   180   1      5.0199999999999942      11.294999999999995      11.294999999999995
   181   1       6.274999999999995      10.039999999999994      11.294999999999995
   182   1       6.274999999999995      11.294999999999995      10.039999999999994
   183   1      5.0199999999999942      10.039999999999994      12.549999999999994
   184   1      5.0199999999999942      11.294999999999995      13.804999999999993
   185   1       6.274999999999995      10.039999999999994      13.804999999999993
   186   1       6.274999999999995      11.294999999999995      12.549999999999994
   187   1      5.0199999999999942      10.039999999999994      15.059999999999993
   188   1      5.0199999999999942      11.294999999999995      16.314999999999994
   189   1       6.274999999999995      10.039999999999994      16.314999999999994
   190   1       6.274999999999995      11.294999999999995      15.059999999999993
   191   1      5.0199999999999942      10.039999999999994      17.569999999999993
   192   1      5.0199999999999942      11.294999999999995      18.824999999999992
   193   1       6.274999999999995      10.039999999999994      18.824999999999992
   194   1       6.274999999999995      11.294999999999995      17.569999999999993
   195   1      5.0199999999999942      10.039999999999994      20.079999999999991
   196   1      5.0199999999999942      11.294999999999995      21.334999999999987
   197   1       6.274999999999995      10.039999999999994      21.334999999999987
   198   1       6.274999999999995      11.294999999999995      20.079999999999991
   199   1      5.0199999999999942      10.039999999999994      22.589999999999993
   200   1      5.0199999999999942      11.294999999999995      23.844999999999992
   201   1       6.274999999999995      10.039999999999994      23.844999999999992
   202   1       6.274999999999995      11.294999999999995      22.589999999999993
   203   1       6.274999999999995      11.294999999999995      25.099999999999994
   204   1      5.0199999999999942      13.804999999999993       6.274999999999995
   205   1       6.274999999999995      12.549999999999994       6.274999999999995
   206   1       6.274999999999995      13.804999999999993      5.0199999999999942
   207   1      5.0199999999999942      12.549999999999994      7.5299999999999931
   208   1      5.0199999999999942      13.804999999999993       8.784999999999993
   209   1       6.274999999999995      12.549999999999994       8.784999999999993
   210   1       6.274999999999995      13.804999999999993      7.5299999999999931
   211   1      5.0199999999999942      12.549999999999994      10.039999999999994
   212   1      5.0199999999999942      13.804999999999993      11.294999999999995
   213   1       6.274999999999995      12.549999999999994      11.294999999999995
   214   1       6.274999999999995      13.804999999999993      10.039999999999994
   215   1      5.0199999999999942      12.549999999999994      12.549999999999994
   216   1      5.0199999999999942      13.804999999999993      13.804999999999993
   217   1       6.274999999999995      12.549999999999994      13.804999999999993
   218   1       6.274999999999995      13.804999999999993      12.549999999999994
   219   1      5.0199999999999942      12.549999999999994      15.059999999999993
   220   1      5.0199999999999942      13.804999999999993      16.314999999999994
   221   1       6.274999999999995      12.549999999999994      16.314999999999994
   222   1       6.274999999999995      13.804999999999993      15.059999999999993
   223   1      5.0199999999999942      12.549999999999994      17.569999999999993
   224   1      5.0199999999999942      13.804999999999993      18.824999999999992
   225   1       6.274999999999995      12.549999999999994      18.824999999999992
   226   1       6.274999999999995      13.804999999999993      17.569999999999993
   227   1      5.0199999999999942      12.549999999999994      20.079999999999991
   228   1      5.0199999999999942      13.804999999999993      21.334999999999987
   229   1       6.274999999999995      12.549999999999994      21.334999999999987
   230   1       6.274999999999995      13.804999999999993      20.079999999999991
   231   1      5.0199999999999942      12.549999999999994      22.589999999999993
   232   1      5.0199999999999942      13.804999999999993      23.844999999999992
   233   1       6.274999999999995      12.549999999999994      23.844999999999992
   234   1       6.274999999999995      13.804999999999993      22.589999999999993
   235   1       6.274999999999995      13.804999999999993      25.099999999999994
   236   1      5.0199999999999942      16.314999999999994       6.274999999999995
   237   1       6.274999999999995      15.059999999999993       6.274999999999995
   238   1       6.274999999999995      16.314999999999994      5.0199999999999942
   239   1      5.0199999999999942      15.059999999999993      7.5299999999999931
   240   1      5.0199999999999942      16.314999999999994       8.784999999999993
   241   1       6.274999999999995      15.059999999999993       8.784999999999993
   242   1       6.274999999999995      16.314999999999994      7.5299999999999931
   243   1      5.0199999999999942      15.059999999999993      10.039999999999994
   244   1      5.0199999999999942      16.314999999999994      11.294999999999995
   245   1       6.274999999999995      15.059999999999993      11.294999999999995
   246   1       6.274999999999995      16.314999999999994      10.039999999999994
   247   1      5.0199999999999942      15.059999999999993      12.549999999999994
   248   1      5.0199999999999942      16.314999999999994      13.804999999999993
   249   1       6.274999999999995      15.059999999999993      13.804999999999993
   250   1       6.274999999999995      16.314999999999994      12.549999999999994
   251   1      5.0199999999999942      15.059999999999993      15.059999999999993
   252   1      5.0199999999999942      16.314999999999994      16.314999999999994
   253   1       6.274999999999995      15.059999999999993      16.314999999999994
   254   1       6.274999999999995      16.314999999999994      15.059999999999993
   255   1      5.0199999999999942      15.059999999999993      17.569999999999993
   256   1      5.0199999999999942      16.314999999999994      18.824999999999992
   257   1       6.274999999999995      15.059999999999993      18.824999999999992
   258   1       6.274999999999995      16.314999999999994      17.569999999999993
   259   1      5.0199999999999942      15.059999999999993      20.079999999999991
   260   1      5.0199999999999942      16.314999999999994      21.334999999999987
   261   1       6.274999999999995      15.059999999999993      21.334999999999987
   262   1       6.274999999999995      16.314999999999994      20.079999999999991
   263   1      5.0199999999999942      15.059999999999993      22.589999999999993
   264   1      5.0199999999999942      16.314999999999994      23.844999999999992
   265   1       6.274999999999995      15.059999999999993      23.844999999999992
   266   1       6.274999999999995      16.314999999999994      22.589999999999993
   267   1       6.274999999999995      16.314999999999994      25.099999999999994
   268   1      5.0199999999999942      18.824999999999992       6.274999999999995
   269   1       6.274999999999995      17.569999999999993       6.274999999999995
   270   1       6.274999999999995      18.824999999999992      5.0199999999999942
   271   1      5.0199999999999942      17.569999999999993      7.5299999999999931
   272   1      5.0199999999999942      18.824999999999992       8.784999999999993
   273   1       6.274999999999995      17.569999999999993       8.784999999999993
   274   1       6.274999999999995      18.824999999999992      7.5299999999999931
   275   1      5.0199999999999942      17.569999999999993      10.039999999999994
   276   1      5.0199999999999942      18.824999999999992      11.294999999999995
   277   1       6.274999999999995      17.569999999999993      11.294999999999995
   278   1       6.274999999999995      18.824999999999992      10.039999999999994
   279   1      5.0199999999999942      17.569999999999993      12.549999999999994
   280   1      5.0199999999999942      18.824999999999992      13.804999999999993
   281   1       6.274999999999995      17.569999999999993      13.804999999999993
   282   1       6.274999999999995      18.824999999999992      12.549999999999994
   283   1      5.0199999999999942      17.569999999999993      15.059999999999993
   284   1      5.0199999999999942      18.824999999999992      16.314999999999994
   285   1       6.274999999999995      17.569999999999993      16.314999999999994
   286   1       6.274999999999995      18.824999999999992      15.059999999999993
   287   1      5.0199999999999942      17.569999999999993      17.569999999999993
   288   1      5.0199999999999942      18.824999999999992      18.824999999999992
   289   1       6.274999999999995      17.569999999999993      18.824999999999992
   290   1       6.274999999999995      18.824999999999992      17.569999999999993
   291   1      5.0199999999999942      17.569999999999993      20.079999999999991
   292   1      5.0199999999999942      18.824999999999992      21.334999999999987
   293   1       6.274999999999995      17.569999999999993      21.334999999999987
   294   1       6.274999999999995      18.824999999999992      20.079999999999991
   295   1      5.0199999999999942      17.569999999999993      22.589999999999993
   296   1      5.0199999999999942      18.824999999999992      23.844999999999992
   297   1       6.274999999999995      17.569999999999993      23.844999999999992
   298   1       6.274999999999995      18.824999999999992      22.589999999999993
   299   1       6.274999999999995      18.824999999999992      25.099999999999994
   300   1      5.0199999999999942      21.334999999999987       6.274999999999995
   301   1       6.274999999999995      20.079999999999991       6.274999999999995
   302   1       6.274999999999995      21.334999999999987      5.0199999999999942
   303   1      5.0199999999999942      20.079999999999991      7.5299999999999931
   304   1      5.0199999999999942      21.334999999999987       8.784999999999993
   305   1       6.274999999999995      20.079999999999991       8.784999999999993
   306   1       6.274999999999995      21.334999999999987      7.5299999999999931
   307   1      5.0199999999999942      20.079999999999991      10.039999999999994
   308   1      5.0199999999999942      21.334999999999987      11.294999999999995
   309   1       6.274999999999995      20.079999999999991      11.294999999999995
   310   1       6.274999999999995      21.334999999999987      10.039999999999994
   311   1      5.0199999999999942      20.079999999999991      12.549999999999994
   312   1      5.0199999999999942      21.334999999999987      13.804999999999993
   313   1       6.274999999999995      20.079999999999991      13.804999999999993
   314   1       6.274999999999995      21.334999999999987      12.549999999999994
   315   1      5.0199999999999942      20.079999999999991      15.059999999999993
   316   1      5.0199999999999942      21.334999999999987      16.314999999999994
   317   1       6.274999999999995      20.079999999999991      16.314999999999994
   318   1       6.274999999999995      21.334999999999987      15.059999999999993
   319   1      5.0199999999999942      20.079999999999991      17.569999999999993
   320   1      5.0199999999999942      21.334999999999987      18.824999999999992
   321   1       6.274999999999995      20.079999999999991      18.824999999999992
   322   1       6.274999999999995      21.334999999999987      17.569999999999993
   323   1      5.0199999999999942      20.079999999999991      20.079999999999991
   324   1      5.0199999999999942      21.334999999999987      21.334999999999987
   325   1       6.274999999999995      20.079999999999991      21.334999999999987
   326   1       6.274999999999995      21.334999999999987      20.079999999999991
   327   1      5.0199999999999942      20.079999999999991      22.589999999999993
   328   1      5.0199999999999942      21.334999999999987      23.844999999999992
   329   1       6.274999999999995      20.079999999999991      23.844999999999992
   330   1       6.274999999999995      21.334999999999987      22.589999999999993
   331   1       6.274999999999995      21.334999999999987      25.099999999999994
   332   1      5.0199999999999942      23.844999999999992       6.274999999999995
   333   1       6.274999999999995      22.589999999999993       6.274999999999995
   334   1       6.274999999999995      23.844999999999992      5.0199999999999942
   335   1      5.0199999999999942      22.589999999999993      7.5299999999999931
   336   1      5.0199999999999942      23.844999999999992       8.784999999999993
   337   1       6.274999999999995      22.589999999999993       8.784999999999993
   338   1       6.274999999999995      23.844999999999992      7.5299999999999931
   339   1      5.0199999999999942      22.589999999999993      10.039999999999994
   340   1      5.0199999999999942      23.844999999999992      11.294999999999995
   341   1       6.274999999999995      22.589999999999993      11.294999999999995
   342   1       6.274999999999995      23.844999999999992      10.039999999999994
   343   1      5.0199999999999942      22.589999999999993      12.549999999999994
   344   1      5.0199999999999942      23.844999999999992      13.804999999999993
   345   1       6.274999999999995      22.589999999999993      13.804999999999993
   346   1       6.274999999999995      23.844999999999992      12.549999999999994
   347   1      5.0199999999999942      22.589999999999993      15.059999999999993
   348   1      5.0199999999999942      23.844999999999992      16.314999999999994
   349   1       6.274999999999995      22.589999999999993      16.314999999999994
   350   1       6.274999999999995      23.844999999999992      15.059999999999993
   351   1      5.0199999999999942      22.589999999999993      17.569999999999993
   352   1      5.0199999999999942      23.844999999999992      18.824999999999992
   353   1       6.274999999999995      22.589999999999993      18.824999999999992
   354   1       6.274999999999995      23.844999999999992      17.569999999999993
   355   1      5.0199999999999942      22.589999999999993      20.079999999999991
   356   1      5.0199999999999942      23.844999999999992      21.334999999999987
   357   1       6.274999999999995      22.589999999999993      21.334999999999987
   358   1       6.274999999999995      23.844999999999992      20.079999999999991