model_files/PtCo/PtCo_30000/PtCo_431/PtCo_431_fcc_29685_temp.data (written by ASE) 

29685 	 atoms 
2  atom types
0.0                     102  xlo xhi
0.0                     102  ylo yhi
0.0                     102  zlo zhi


Atoms 

     1   1      1.8249999999999957      45.624999999999993      51.099999999999987
     2   1      101.99999999999999      49.274999999999999      49.274999999999999
     3   1      1.8249999999999957      47.449999999999996      49.274999999999999
     4   1      1.8249999999999957      49.274999999999999      47.449999999999996
     5   1      101.99999999999999      47.449999999999996      51.099999999999987
     6   1      101.99999999999999      49.274999999999999       52.92499999999999
     7   1      1.8249999999999957      47.449999999999996       52.92499999999999
     8   1      1.8249999999999957      49.274999999999999      51.099999999999987
     9   1      1.8249999999999957      49.274999999999999      54.749999999999986
    10   1      1.8249999999999957      51.099999999999987      45.624999999999993
    11   1      101.99999999999999      51.099999999999987      47.449999999999996
    12   1      101.99999999999999       52.92499999999999      49.274999999999999
    13   1      1.8249999999999957      51.099999999999987      49.274999999999999
    14   1      1.8249999999999957       52.92499999999999      47.449999999999996
    15   1      101.99999999999999      51.099999999999987      51.099999999999987
    16   1      101.99999999999999       52.92499999999999       52.92499999999999
    17   1      1.8249999999999957      51.099999999999987       52.92499999999999
    18   1      1.8249999999999957       52.92499999999999      51.099999999999987
    19   1      101.99999999999999      51.099999999999987      54.749999999999986
    20   1      1.8249999999999957      51.099999999999987      56.574999999999989
    21   1      1.8249999999999957       52.92499999999999      54.749999999999986
    22   1      1.8249999999999957      54.749999999999986      49.274999999999999
    23   1      101.99999999999999      54.749999999999986      51.099999999999987
    24   1      1.8249999999999957      54.749999999999986       52.92499999999999
    25   1      1.8249999999999957      56.574999999999989      51.099999999999987
    26   1      5.4749999999999943      41.974999999999994      47.449999999999996
    27   1      5.4749999999999943      41.974999999999994      51.099999999999987
    28   1      5.4749999999999943      41.974999999999994      54.749999999999986
    29   1      3.6499999999999915      45.624999999999993      45.624999999999993
    30   1      5.4749999999999943       43.79999999999999      45.624999999999993
    31   1      5.4749999999999943      45.624999999999993       43.79999999999999
    32   1      3.6499999999999915       43.79999999999999      47.449999999999996
    33   1      3.6499999999999915      45.624999999999993      49.274999999999999
    34   1      5.4749999999999943       43.79999999999999      49.274999999999999
    35   1      5.4749999999999943      45.624999999999993      47.449999999999996
    36   1      3.6499999999999915       43.79999999999999      51.099999999999987
    37   1      3.6499999999999915      45.624999999999993       52.92499999999999
    38   1      5.4749999999999943       43.79999999999999       52.92499999999999
    39   1      5.4749999999999943      45.624999999999993      51.099999999999987
    40   1      3.6499999999999915       43.79999999999999      54.749999999999986
    41   1      3.6499999999999915      45.624999999999993      56.574999999999989
    42   1      5.4749999999999943       43.79999999999999      56.574999999999989
    43   1      5.4749999999999943      45.624999999999993      54.749999999999986
    44   1      5.4749999999999943      45.624999999999993      58.399999999999984
    45   1      5.4749999999999943      47.449999999999996      41.974999999999994
    46   1      3.6499999999999915      47.449999999999996       43.79999999999999
    47   1      3.6499999999999915      49.274999999999999      45.624999999999993
    48   1      5.4749999999999943      47.449999999999996      45.624999999999993
    49   1      5.4749999999999943      49.274999999999999       43.79999999999999
    50   1      3.6499999999999915      47.449999999999996      47.449999999999996
    51   1      3.6499999999999915      49.274999999999999      49.274999999999999
    52   1      5.4749999999999943      47.449999999999996      49.274999999999999
    53   1      5.4749999999999943      49.274999999999999      47.449999999999996
    54   1      3.6499999999999915      47.449999999999996      51.099999999999987
    55   1      3.6499999999999915      49.274999999999999       52.92499999999999
    56   1      5.4749999999999943      47.449999999999996       52.92499999999999
    57   1      5.4749999999999943      49.274999999999999      51.099999999999987
    58   1      3.6499999999999915      47.449999999999996      54.749999999999986
    59   1      3.6499999999999915      49.274999999999999      56.574999999999989
    60   1      5.4749999999999943      47.449999999999996      56.574999999999989
    61   1      5.4749999999999943      49.274999999999999      54.749999999999986
    62   1      3.6499999999999915      47.449999999999996      58.399999999999984
    63   1      5.4749999999999943      47.449999999999996      60.224999999999987
    64   1      5.4749999999999943      49.274999999999999      58.399999999999984
    65   1      5.4749999999999943      51.099999999999987      41.974999999999994
    66   1      3.6499999999999915      51.099999999999987       43.79999999999999
    67   1      3.6499999999999915       52.92499999999999      45.624999999999993
    68   1      5.4749999999999943      51.099999999999987      45.624999999999993
    69   1      5.4749999999999943       52.92499999999999       43.79999999999999
    70   1      3.6499999999999915      51.099999999999987      47.449999999999996
    71   1      3.6499999999999915       52.92499999999999      49.274999999999999
    72   1      5.4749999999999943      51.099999999999987      49.274999999999999
    73   1      5.4749999999999943       52.92499999999999      47.449999999999996
    74   1      3.6499999999999915      51.099999999999987      51.099999999999987
    75   1      3.6499999999999915       52.92499999999999       52.92499999999999
    76   1      5.4749999999999943      51.099999999999987       52.92499999999999
    77   1      5.4749999999999943       52.92499999999999      51.099999999999987
    78   1      3.6499999999999915      51.099999999999987      54.749999999999986
    79   1      3.6499999999999915       52.92499999999999      56.574999999999989
    80   1      5.4749999999999943      51.099999999999987      56.574999999999989
    81   1      5.4749999999999943       52.92499999999999      54.749999999999986
    82   1      3.6499999999999915      51.099999999999987      58.399999999999984
    83   1      5.4749999999999943      51.099999999999987      60.224999999999987
    84   1      5.4749999999999943       52.92499999999999      58.399999999999984
    85   1      5.4749999999999943      54.749999999999986      41.974999999999994
    86   1      3.6499999999999915      54.749999999999986       43.79999999999999
    87   1      3.6499999999999915      56.574999999999989      45.624999999999993
    88   1      5.4749999999999943      54.749999999999986      45.624999999999993
    89   1      5.4749999999999943      56.574999999999989       43.79999999999999
    90   1      3.6499999999999915      54.749999999999986      47.449999999999996
    91   1      3.6499999999999915      56.574999999999989      49.274999999999999
    92   1      5.4749999999999943      54.749999999999986      49.274999999999999
    93   1      5.4749999999999943      56.574999999999989      47.449999999999996
    94   1      3.6499999999999915      54.749999999999986      51.099999999999987
    95   1      3.6499999999999915      56.574999999999989       52.92499999999999
    96   1      5.4749999999999943      54.749999999999986       52.92499999999999
    97   1      5.4749999999999943      56.574999999999989      51.099999999999987
    98   1      3.6499999999999915      54.749999999999986      54.749999999999986
    99   1      3.6499999999999915      56.574999999999989      56.574999999999989
   100   1      5.4749999999999943      54.749999999999986      56.574999999999989
   101   1      5.4749999999999943      56.574999999999989      54.749999999999986
   102   1      3.6499999999999915      54.749999999999986      58.399999999999984
   103   1      5.4749999999999943      54.749999999999986      60.224999999999987
   104   1      5.4749999999999943      56.574999999999989      58.399999999999984
   105   1      5.4749999999999943      58.399999999999984      45.624999999999993
   106   1      3.6499999999999915      58.399999999999984      47.449999999999996
   107   1      5.4749999999999943      58.399999999999984      49.274999999999999
   108   1      5.4749999999999943      60.224999999999987      47.449999999999996
   109   1      3.6499999999999915      58.399999999999984      51.099999999999987
   110   1      5.4749999999999943      58.399999999999984       52.92499999999999
   111   1      5.4749999999999943      60.224999999999987      51.099999999999987
   112   1      3.6499999999999915      58.399999999999984      54.749999999999986
   113   1      5.4749999999999943      58.399999999999984      56.574999999999989
   114   1      5.4749999999999943      60.224999999999987      54.749999999999986
   115   1      9.1249999999999929      38.324999999999996       43.79999999999999
   116   1      7.2999999999999972      38.324999999999996      49.274999999999999
   117   1      9.1249999999999929      36.499999999999993      49.274999999999999
   118   1      9.1249999999999929      38.324999999999996      47.449999999999996
   119   1      7.2999999999999972      38.324999999999996       52.92499999999999
   120   1      9.1249999999999929      36.499999999999993       52.92499999999999
   121   1      9.1249999999999929      38.324999999999996      51.099999999999987
   122   1      9.1249999999999929      38.324999999999996      54.749999999999986
   123   1      9.1249999999999929      38.324999999999996      58.399999999999984
   124   1      7.2999999999999972      41.974999999999994      41.974999999999994
   125   1      9.1249999999999929      40.149999999999991      41.974999999999994
   126   1      9.1249999999999929      41.974999999999994      40.149999999999991
   127   1      7.2999999999999972      40.149999999999991       43.79999999999999
   128   1      7.2999999999999972      41.974999999999994      45.624999999999993
   129   1      9.1249999999999929      40.149999999999991      45.624999999999993
   130   1      9.1249999999999929      41.974999999999994       43.79999999999999
   131   1      7.2999999999999972      40.149999999999991      47.449999999999996
   132   1      7.2999999999999972      41.974999999999994      49.274999999999999
   133   1      9.1249999999999929      40.149999999999991      49.274999999999999
   134   1      9.1249999999999929      41.974999999999994      47.449999999999996
   135   1      7.2999999999999972      40.149999999999991      51.099999999999987
   136   1      7.2999999999999972      41.974999999999994       52.92499999999999
   137   1      9.1249999999999929      40.149999999999991       52.92499999999999
   138   1      9.1249999999999929      41.974999999999994      51.099999999999987
   139   1      7.2999999999999972      40.149999999999991      54.749999999999986
   140   1      7.2999999999999972      41.974999999999994      56.574999999999989
   141   1      9.1249999999999929      40.149999999999991      56.574999999999989
   142   1      9.1249999999999929      41.974999999999994      54.749999999999986
   143   1      7.2999999999999972      40.149999999999991      58.399999999999984
   144   1      7.2999999999999972      41.974999999999994      60.224999999999987
   145   1      9.1249999999999929      40.149999999999991      60.224999999999987
   146   1      9.1249999999999929      41.974999999999994      58.399999999999984
   147   1      9.1249999999999929      41.974999999999994      62.049999999999997
   148   1      9.1249999999999929       43.79999999999999      38.324999999999996
   149   1      7.2999999999999972       43.79999999999999      40.149999999999991
   150   1      7.2999999999999972      45.624999999999993      41.974999999999994
   151   1      9.1249999999999929       43.79999999999999      41.974999999999994
   152   1      9.1249999999999929      45.624999999999993      40.149999999999991
   153   1      7.2999999999999972       43.79999999999999       43.79999999999999
   154   1      7.2999999999999972      45.624999999999993      45.624999999999993
   155   1      9.1249999999999929       43.79999999999999      45.624999999999993
   156   1      9.1249999999999929      45.624999999999993       43.79999999999999
   157   1      7.2999999999999972       43.79999999999999      47.449999999999996
   158   1      7.2999999999999972      45.624999999999993      49.274999999999999
   159   1      9.1249999999999929       43.79999999999999      49.274999999999999
   160   1      9.1249999999999929      45.624999999999993      47.449999999999996
   161   1      7.2999999999999972       43.79999999999999      51.099999999999987
   162   1      7.2999999999999972      45.624999999999993       52.92499999999999
   163   1      9.1249999999999929       43.79999999999999       52.92499999999999
   164   1      9.1249999999999929      45.624999999999993      51.099999999999987
   165   1      7.2999999999999972       43.79999999999999      54.749999999999986
   166   1      7.2999999999999972      45.624999999999993      56.574999999999989
   167   1      9.1249999999999929       43.79999999999999      56.574999999999989
   168   1      9.1249999999999929      45.624999999999993      54.749999999999986
   169   1      7.2999999999999972       43.79999999999999      58.399999999999984
   170   1      7.2999999999999972      45.624999999999993      60.224999999999987
   171   1      9.1249999999999929       43.79999999999999      60.224999999999987
   172   1      9.1249999999999929      45.624999999999993      58.399999999999984
   173   1      7.2999999999999972       43.79999999999999      62.049999999999997
   174   1      9.1249999999999929       43.79999999999999                  63.875
   175   1      9.1249999999999929      45.624999999999993      62.049999999999997
   176   1      7.2999999999999972      49.274999999999999      38.324999999999996
   177   1      9.1249999999999929      47.449999999999996      38.324999999999996
   178   1      9.1249999999999929      49.274999999999999      36.499999999999993
   179   1      7.2999999999999972      47.449999999999996      40.149999999999991
   180   1      7.2999999999999972      49.274999999999999      41.974999999999994
   181   1      9.1249999999999929      47.449999999999996      41.974999999999994
   182   1      9.1249999999999929      49.274999999999999      40.149999999999991
   183   1      7.2999999999999972      47.449999999999996       43.79999999999999
   184   1      7.2999999999999972      49.274999999999999      45.624999999999993
   185   1      9.1249999999999929      47.449999999999996      45.624999999999993
   186   1      9.1249999999999929      49.274999999999999       43.79999999999999
   187   1      7.2999999999999972      47.449999999999996      47.449999999999996
   188   1      7.2999999999999972      49.274999999999999      49.274999999999999
   189   1      9.1249999999999929      47.449999999999996      49.274999999999999
   190   1      9.1249999999999929      49.274999999999999      47.449999999999996
   191   1      7.2999999999999972      47.449999999999996      51.099999999999987
   192   1      7.2999999999999972      49.274999999999999       52.92499999999999
   193   1      9.1249999999999929      47.449999999999996       52.92499999999999
   194   1      9.1249999999999929      49.274999999999999      51.099999999999987
   195   1      7.2999999999999972      47.449999999999996      54.749999999999986
   196   1      7.2999999999999972      49.274999999999999      56.574999999999989
   197   1      9.1249999999999929      47.449999999999996      56.574999999999989
   198   1      9.1249999999999929      49.274999999999999      54.749999999999986
   199   1      7.2999999999999972      47.449999999999996      58.399999999999984
   200   1      7.2999999999999972      49.274999999999999      60.224999999999987
   201   1      9.1249999999999929      47.449999999999996      60.224999999999987
   202   1      9.1249999999999929      49.274999999999999      58.399999999999984
   203   1      7.2999999999999972      47.449999999999996      62.049999999999997
   204   1      7.2999999999999972      49.274999999999999                  63.875
   205   1      9.1249999999999929      47.449999999999996                  63.875
   206   1      9.1249999999999929      49.274999999999999      62.049999999999997
   207   1      9.1249999999999929      49.274999999999999      65.699999999999989
   208   1      7.2999999999999972       52.92499999999999      38.324999999999996
   209   1      9.1249999999999929      51.099999999999987      38.324999999999996
   210   1      9.1249999999999929       52.92499999999999      36.499999999999993
   211   1      7.2999999999999972      51.099999999999987      40.149999999999991
   212   1      7.2999999999999972       52.92499999999999      41.974999999999994
   213   1      9.1249999999999929      51.099999999999987      41.974999999999994
   214   1      9.1249999999999929       52.92499999999999      40.149999999999991
   215   1      7.2999999999999972      51.099999999999987       43.79999999999999
   216   1      7.2999999999999972       52.92499999999999      45.624999999999993
   217   1      9.1249999999999929      51.099999999999987      45.624999999999993
   218   1      9.1249999999999929       52.92499999999999       43.79999999999999
   219   1      7.2999999999999972      51.099999999999987      47.449999999999996
   220   1      7.2999999999999972       52.92499999999999      49.274999999999999
   221   1      9.1249999999999929      51.099999999999987      49.274999999999999
   222   1      9.1249999999999929       52.92499999999999      47.449999999999996
   223   1      7.2999999999999972      51.099999999999987      51.099999999999987
   224   1      7.2999999999999972       52.92499999999999       52.92499999999999
   225   1      9.1249999999999929      51.099999999999987       52.92499999999999
   226   1      9.1249999999999929       52.92499999999999      51.099999999999987
   227   1      7.2999999999999972      51.099999999999987      54.749999999999986
   228   1      7.2999999999999972       52.92499999999999      56.574999999999989
   229   1      9.1249999999999929      51.099999999999987      56.574999999999989
   230   1      9.1249999999999929       52.92499999999999      54.749999999999986
   231   1      7.2999999999999972      51.099999999999987      58.399999999999984
   232   1      7.2999999999999972       52.92499999999999      60.224999999999987
   233   1      9.1249999999999929      51.099999999999987      60.224999999999987
   234   1      9.1249999999999929       52.92499999999999      58.399999999999984
   235   1      7.2999999999999972      51.099999999999987      62.049999999999997
   236   1      7.2999999999999972       52.92499999999999                  63.875
   237   1      9.1249999999999929      51.099999999999987                  63.875
   238   1      9.1249999999999929       52.92499999999999      62.049999999999997
   239   1      9.1249999999999929       52.92499999999999      65.699999999999989
   240   1      9.1249999999999929      54.749999999999986      38.324999999999996
   241   1      7.2999999999999972      54.749999999999986      40.149999999999991
   242   1      7.2999999999999972      56.574999999999989      41.974999999999994
   243   1      9.1249999999999929      54.749999999999986      41.974999999999994
   244   1      9.1249999999999929      56.574999999999989      40.149999999999991
   245   1      7.2999999999999972      54.749999999999986       43.79999999999999
   246   1      7.2999999999999972      56.574999999999989      45.624999999999993
   247   1      9.1249999999999929      54.749999999999986      45.624999999999993
   248   1      9.1249999999999929      56.574999999999989       43.79999999999999
   249   1      7.2999999999999972      54.749999999999986      47.449999999999996
   250   1      7.2999999999999972      56.574999999999989      49.274999999999999
   251   1      9.1249999999999929      54.749999999999986      49.274999999999999
   252   1      9.1249999999999929      56.574999999999989      47.449999999999996
   253   1      7.2999999999999972      54.749999999999986      51.099999999999987
   254   1      7.2999999999999972      56.574999999999989       52.92499999999999
   255   1      9.1249999999999929      54.749999999999986       52.92499999999999
   256   1      9.1249999999999929      56.574999999999989      51.099999999999987
   257   1      7.2999999999999972      54.749999999999986      54.749999999999986
   258   1      7.2999999999999972      56.574999999999989      56.574999999999989
   259   1      9.1249999999999929      54.749999999999986      56.574999999999989
   260   1      9.1249999999999929      56.574999999999989      54.749999999999986
   261   1      7.2999999999999972      54.749999999999986      58.399999999999984
   262   1      7.2999999999999972      56.574999999999989      60.224999999999987
   263   1      9.1249999999999929      54.749999999999986      60.224999999999987
   264   1      9.1249999999999929      56.574999999999989      58.399999999999984
   265   1      7.2999999999999972      54.749999999999986      62.049999999999997
   266   1      9.1249999999999929      54.749999999999986                  63.875
   267   1      9.1249999999999929      56.574999999999989      62.049999999999997
   268   1      9.1249999999999929      58.399999999999984      38.324999999999996
   269   1      7.2999999999999972      58.399999999999984      40.149999999999991
   270   1      7.2999999999999972      60.224999999999987      41.974999999999994
   271   1      9.1249999999999929      58.399999999999984      41.974999999999994
   272   1      9.1249999999999929      60.224999999999987      40.149999999999991
   273   1      7.2999999999999972      58.399999999999984       43.79999999999999
   274   1      7.2999999999999972      60.224999999999987      45.624999999999993
   275   1      9.1249999999999929      58.399999999999984      45.624999999999993
   276   1      9.1249999999999929      60.224999999999987       43.79999999999999
   277   1      7.2999999999999972      58.399999999999984      47.449999999999996
   278   1      7.2999999999999972      60.224999999999987      49.274999999999999
   279   1      9.1249999999999929      58.399999999999984      49.274999999999999
   280   1      9.1249999999999929      60.224999999999987      47.449999999999996
   281   1      7.2999999999999972      58.399999999999984      51.099999999999987
   282   1      7.2999999999999972      60.224999999999987       52.92499999999999
   283   1      9.1249999999999929      58.399999999999984       52.92499999999999
   284   1      9.1249999999999929      60.224999999999987      51.099999999999987
   285   1      7.2999999999999972      58.399999999999984      54.749999999999986
   286   1      7.2999999999999972      60.224999999999987      56.574999999999989
   287   1      9.1249999999999929      58.399999999999984      56.574999999999989
   288   1      9.1249999999999929      60.224999999999987      54.749999999999986
   289   1      7.2999999999999972      58.399999999999984      58.399999999999984
   290   1      7.2999999999999972      60.224999999999987      60.224999999999987
   291   1      9.1249999999999929      58.399999999999984      60.224999999999987
   292   1      9.1249999999999929      60.224999999999987      58.399999999999984
   293   1      7.2999999999999972      58.399999999999984      62.049999999999997
   294   1      9.1249999999999929      58.399999999999984                  63.875
   295   1      9.1249999999999929      60.224999999999987      62.049999999999997
   296   1      9.1249999999999929      62.049999999999997      41.974999999999994
   297   1      7.2999999999999972      62.049999999999997       43.79999999999999
   298   1      9.1249999999999929      62.049999999999997      45.624999999999993
   299   1      9.1249999999999929                  63.875       43.79999999999999
   300   1      7.2999999999999972      62.049999999999997      47.449999999999996
   301   1      7.2999999999999972                  63.875      49.274999999999999
   302   1      9.1249999999999929      62.049999999999997      49.274999999999999
   303   1      9.1249999999999929                  63.875      47.449999999999996
   304   1      7.2999999999999972      62.049999999999997      51.099999999999987
   305   1      7.2999999999999972                  63.875       52.92499999999999
   306   1      9.1249999999999929      62.049999999999997       52.92499999999999
   307   1      9.1249999999999929                  63.875      51.099999999999987
   308   1      7.2999999999999972      62.049999999999997      54.749999999999986
   309   1      9.1249999999999929      62.049999999999997      56.574999999999989
   310   1      9.1249999999999929                  63.875      54.749999999999986
   311   1      7.2999999999999972      62.049999999999997      58.399999999999984
   312   1      9.1249999999999929      62.049999999999997      60.224999999999987
   313   1      9.1249999999999929                  63.875      58.399999999999984
   314   1      9.1249999999999929      65.699999999999989      49.274999999999999
   315   1      9.1249999999999929      65.699999999999989       52.92499999999999
   316   1      12.774999999999991      31.024999999999999      51.099999999999987
   317   1      12.774999999999991      34.674999999999997      40.149999999999991
   318   1      10.949999999999996      34.674999999999997      45.624999999999993
   319   1      12.774999999999991      32.849999999999994      45.624999999999993
   320   1      12.774999999999991      34.674999999999997       43.79999999999999
   321   1      10.949999999999996      34.674999999999997      49.274999999999999
   322   1      12.774999999999991      32.849999999999994      49.274999999999999
   323   1      12.774999999999991      34.674999999999997      47.449999999999996
   324   1      10.949999999999996      32.849999999999994      51.099999999999987
   325   1      10.949999999999996      34.674999999999997       52.92499999999999
   326   1      12.774999999999991      32.849999999999994       52.92499999999999
   327   1      12.774999999999991      34.674999999999997      51.099999999999987
   328   1      10.949999999999996      34.674999999999997      56.574999999999989
   329   1      12.774999999999991      32.849999999999994      56.574999999999989
   330   1      12.774999999999991      34.674999999999997      54.749999999999986
   331   1      12.774999999999991      34.674999999999997      58.399999999999984
   332   1      12.774999999999991      34.674999999999997      62.049999999999997
   333   1      10.949999999999996      38.324999999999996      38.324999999999996
   334   1      12.774999999999991      36.499999999999993      38.324999999999996
   335   1      12.774999999999991      38.324999999999996      36.499999999999993
   336   1      10.949999999999996      36.499999999999993      40.149999999999991
   337   1      10.949999999999996      38.324999999999996      41.974999999999994
   338   1      12.774999999999991      36.499999999999993      41.974999999999994
   339   1      12.774999999999991      38.324999999999996      40.149999999999991
   340   1      10.949999999999996      36.499999999999993       43.79999999999999
   341   1      10.949999999999996      38.324999999999996      45.624999999999993
   342   1      12.774999999999991      36.499999999999993      45.624999999999993
   343   1      12.774999999999991      38.324999999999996       43.79999999999999
   344   1      10.949999999999996      36.499999999999993      47.449999999999996
   345   1      10.949999999999996      38.324999999999996      49.274999999999999
   346   1      12.774999999999991      36.499999999999993      49.274999999999999
   347   1      12.774999999999991      38.324999999999996      47.449999999999996
   348   1      10.949999999999996      36.499999999999993      51.099999999999987
   349   1      10.949999999999996      38.324999999999996       52.92499999999999
   350   1      12.774999999999991      36.499999999999993       52.92499999999999
   351   1      12.774999999999991      38.324999999999996      51.099999999999987
   352   1      10.949999999999996      36.499999999999993      54.749999999999986
   353   1      10.949999999999996      38.324999999999996      56.574999999999989
   354   1      12.774999999999991      36.499999999999993      56.574999999999989
   355   1      12.774999999999991      38.324999999999996      54.749999999999986
   356   1      10.949999999999996      36.499999999999993      58.399999999999984
   357   1      10.949999999999996      38.324999999999996      60.224999999999987
   358   1      12.774999999999991      36.499999999999993      60.224999999999987