model_files/CuFeNi/CuFeNi_30000/CuFeNi_430/CuFeNi_430_fcc_29909_temp.data (written by ASE) 

29909 	 atoms 
3  atom types
0.0                     100  xlo xhi
0.0                     100  ylo yhi
0.0                     100  zlo zhi


Atoms 

     1   1      1.7899999999999991      48.330000000000005      50.120000000000012
     2   1      1.7899999999999991      50.120000000000012      48.330000000000005
     3   1                       0      50.120000000000012      50.120000000000012
     4   1      1.7899999999999991      50.120000000000012      51.910000000000004
     5   1      1.7899999999999991      51.910000000000004      50.120000000000012
     6   1      3.5799999999999983                   44.75                   44.75
     7   1      5.3700000000000045      42.960000000000001                   44.75
     8   1      5.3700000000000045                   44.75      42.960000000000001
     9   1      3.5799999999999983                   44.75      48.330000000000005
    10   1      5.3700000000000045      42.960000000000001      48.330000000000005
    11   1      5.3700000000000045                   44.75      46.540000000000006
    12   1      3.5799999999999983                   44.75      51.910000000000004
    13   1      5.3700000000000045      42.960000000000001      51.910000000000004
    14   1      5.3700000000000045                   44.75      50.120000000000012
    15   1      3.5799999999999983                   44.75      55.490000000000009
    16   1      5.3700000000000045      42.960000000000001      55.490000000000009
    17   1      5.3700000000000045                   44.75      53.700000000000003
    18   1      5.3700000000000045                   44.75      57.280000000000001
    19   1      3.5799999999999983      48.330000000000005                   44.75
    20   1      5.3700000000000045      46.540000000000006                   44.75
    21   1      5.3700000000000045      48.330000000000005      42.960000000000001
    22   1      3.5799999999999983      46.540000000000006      46.540000000000006
    23   1      3.5799999999999983      48.330000000000005      48.330000000000005
    24   1      5.3700000000000045      46.540000000000006      48.330000000000005
    25   1      5.3700000000000045      48.330000000000005      46.540000000000006
    26   1      3.5799999999999983      46.540000000000006      50.120000000000012
    27   1      3.5799999999999983      48.330000000000005      51.910000000000004
    28   1      5.3700000000000045      46.540000000000006      51.910000000000004
    29   1      5.3700000000000045      48.330000000000005      50.120000000000012
    30   1      3.5799999999999983      46.540000000000006      53.700000000000003
    31   1      3.5799999999999983      48.330000000000005      55.490000000000009
    32   1      5.3700000000000045      46.540000000000006      55.490000000000009
    33   1      5.3700000000000045      48.330000000000005      53.700000000000003
    34   1      5.3700000000000045      48.330000000000005      57.280000000000001
    35   1      3.5799999999999983      51.910000000000004                   44.75
    36   1      5.3700000000000045      50.120000000000012                   44.75
    37   1      5.3700000000000045      51.910000000000004      42.960000000000001
    38   1      3.5799999999999983      50.120000000000012      46.540000000000006
    39   1      3.5799999999999983      51.910000000000004      48.330000000000005
    40   1      5.3700000000000045      50.120000000000012      48.330000000000005
    41   1      5.3700000000000045      51.910000000000004      46.540000000000006
    42   1      3.5799999999999983      50.120000000000012      50.120000000000012
    43   1      3.5799999999999983      51.910000000000004      51.910000000000004
    44   1      5.3700000000000045      50.120000000000012      51.910000000000004
    45   1      5.3700000000000045      51.910000000000004      50.120000000000012
    46   1      3.5799999999999983      50.120000000000012      53.700000000000003
    47   1      3.5799999999999983      51.910000000000004      55.490000000000009
    48   1      5.3700000000000045      50.120000000000012      55.490000000000009
    49   1      5.3700000000000045      51.910000000000004      53.700000000000003
    50   1      5.3700000000000045      51.910000000000004      57.280000000000001
    51   1      3.5799999999999983      55.490000000000009                   44.75
    52   1      5.3700000000000045      53.700000000000003                   44.75
    53   1      5.3700000000000045      55.490000000000009      42.960000000000001
    54   1      3.5799999999999983      53.700000000000003      46.540000000000006
    55   1      3.5799999999999983      55.490000000000009      48.330000000000005
    56   1      5.3700000000000045      53.700000000000003      48.330000000000005
    57   1      5.3700000000000045      55.490000000000009      46.540000000000006
    58   1      3.5799999999999983      53.700000000000003      50.120000000000012
    59   1      3.5799999999999983      55.490000000000009      51.910000000000004
    60   1      5.3700000000000045      53.700000000000003      51.910000000000004
    61   1      5.3700000000000045      55.490000000000009      50.120000000000012
    62   1      3.5799999999999983      53.700000000000003      53.700000000000003
    63   1      3.5799999999999983      55.490000000000009      55.490000000000009
    64   1      5.3700000000000045      53.700000000000003      55.490000000000009
    65   1      5.3700000000000045      55.490000000000009      53.700000000000003
    66   1      5.3700000000000045      55.490000000000009      57.280000000000001
    67   1      5.3700000000000045      57.280000000000001                   44.75
    68   1      5.3700000000000045      57.280000000000001      48.330000000000005
    69   1      5.3700000000000045      57.280000000000001      51.910000000000004
    70   1      5.3700000000000045      57.280000000000001      55.490000000000009
    71   1      8.9500000000000028      37.590000000000003      39.380000000000003
    72   1      8.9500000000000028      37.590000000000003      42.960000000000001
    73   1      8.9500000000000028      37.590000000000003      46.540000000000006
    74   1      8.9500000000000028      37.590000000000003      50.120000000000012
    75   1      8.9500000000000028      37.590000000000003      53.700000000000003
    76   1      8.9500000000000028      37.590000000000003      57.280000000000001
    77   1      8.9500000000000028      37.590000000000003      60.859999999999999
    78   1      8.9500000000000028      39.380000000000003      37.590000000000003
    79   1      7.1600000000000037      41.170000000000002      41.170000000000002
    80   1      8.9500000000000028      39.380000000000003      41.170000000000002
    81   1      8.9500000000000028      41.170000000000002      39.380000000000003
    82   1      7.1600000000000037      41.170000000000002                   44.75
    83   1      8.9500000000000028      39.380000000000003                   44.75
    84   1      8.9500000000000028      41.170000000000002      42.960000000000001
    85   1      7.1600000000000037      41.170000000000002      48.330000000000005
    86   1      8.9500000000000028      39.380000000000003      48.330000000000005
    87   1      8.9500000000000028      41.170000000000002      46.540000000000006
    88   1      7.1600000000000037      41.170000000000002      51.910000000000004
    89   1      8.9500000000000028      39.380000000000003      51.910000000000004
    90   1      8.9500000000000028      41.170000000000002      50.120000000000012
    91   1      7.1600000000000037      41.170000000000002      55.490000000000009
    92   1      8.9500000000000028      39.380000000000003      55.490000000000009
    93   1      8.9500000000000028      41.170000000000002      53.700000000000003
    94   1      7.1600000000000037      41.170000000000002                   59.07
    95   1      8.9500000000000028      39.380000000000003                   59.07
    96   1      8.9500000000000028      41.170000000000002      57.280000000000001
    97   1      8.9500000000000028      39.380000000000003      62.650000000000006
    98   1      8.9500000000000028      41.170000000000002      60.859999999999999
    99   1      8.9500000000000028      42.960000000000001      37.590000000000003
   100   1      7.1600000000000037                   44.75      41.170000000000002
   101   1      8.9500000000000028      42.960000000000001      41.170000000000002
   102   1      8.9500000000000028                   44.75      39.380000000000003
   103   1      7.1600000000000037      42.960000000000001      42.960000000000001
   104   1      7.1600000000000037                   44.75                   44.75
   105   1      8.9500000000000028      42.960000000000001                   44.75
   106   1      8.9500000000000028                   44.75      42.960000000000001
   107   1      7.1600000000000037      42.960000000000001      46.540000000000006
   108   1      7.1600000000000037                   44.75      48.330000000000005
   109   1      8.9500000000000028      42.960000000000001      48.330000000000005
   110   1      8.9500000000000028                   44.75      46.540000000000006
   111   1      7.1600000000000037      42.960000000000001      50.120000000000012
   112   1      7.1600000000000037                   44.75      51.910000000000004
   113   1      8.9500000000000028      42.960000000000001      51.910000000000004
   114   1      8.9500000000000028                   44.75      50.120000000000012
   115   1      7.1600000000000037      42.960000000000001      53.700000000000003
   116   1      7.1600000000000037                   44.75      55.490000000000009
   117   1      8.9500000000000028      42.960000000000001      55.490000000000009
   118   1      8.9500000000000028                   44.75      53.700000000000003
   119   1      7.1600000000000037      42.960000000000001      57.280000000000001
   120   1      7.1600000000000037                   44.75                   59.07
   121   1      8.9500000000000028      42.960000000000001                   59.07
   122   1      8.9500000000000028                   44.75      57.280000000000001
   123   1      8.9500000000000028      42.960000000000001      62.650000000000006
   124   1      8.9500000000000028                   44.75      60.859999999999999
   125   1      8.9500000000000028      46.540000000000006      37.590000000000003
   126   1      7.1600000000000037      48.330000000000005      41.170000000000002
   127   1      8.9500000000000028      46.540000000000006      41.170000000000002
   128   1      8.9500000000000028      48.330000000000005      39.380000000000003
   129   1      7.1600000000000037      46.540000000000006      42.960000000000001
   130   1      7.1600000000000037      48.330000000000005                   44.75
   131   1      8.9500000000000028      46.540000000000006                   44.75
   132   1      8.9500000000000028      48.330000000000005      42.960000000000001
   133   1      7.1600000000000037      46.540000000000006      46.540000000000006
   134   1      7.1600000000000037      48.330000000000005      48.330000000000005
   135   1      8.9500000000000028      46.540000000000006      48.330000000000005
   136   1      8.9500000000000028      48.330000000000005      46.540000000000006
   137   1      7.1600000000000037      46.540000000000006      50.120000000000012
   138   1      7.1600000000000037      48.330000000000005      51.910000000000004
   139   1      8.9500000000000028      46.540000000000006      51.910000000000004
   140   1      8.9500000000000028      48.330000000000005      50.120000000000012
   141   1      7.1600000000000037      46.540000000000006      53.700000000000003
   142   1      7.1600000000000037      48.330000000000005      55.490000000000009
   143   1      8.9500000000000028      46.540000000000006      55.490000000000009
   144   1      8.9500000000000028      48.330000000000005      53.700000000000003
   145   1      7.1600000000000037      46.540000000000006      57.280000000000001
   146   1      7.1600000000000037      48.330000000000005                   59.07
   147   1      8.9500000000000028      46.540000000000006                   59.07
   148   1      8.9500000000000028      48.330000000000005      57.280000000000001
   149   1      8.9500000000000028      46.540000000000006      62.650000000000006
   150   1      8.9500000000000028      48.330000000000005      60.859999999999999
   151   1      8.9500000000000028      50.120000000000012      37.590000000000003
   152   1      7.1600000000000037      51.910000000000004      41.170000000000002
   153   1      8.9500000000000028      50.120000000000012      41.170000000000002
   154   1      8.9500000000000028      51.910000000000004      39.380000000000003
   155   1      7.1600000000000037      50.120000000000012      42.960000000000001
   156   1      7.1600000000000037      51.910000000000004                   44.75
   157   1      8.9500000000000028      50.120000000000012                   44.75
   158   1      8.9500000000000028      51.910000000000004      42.960000000000001
   159   1      7.1600000000000037      50.120000000000012      46.540000000000006
   160   1      7.1600000000000037      51.910000000000004      48.330000000000005
   161   1      8.9500000000000028      50.120000000000012      48.330000000000005
   162   1      8.9500000000000028      51.910000000000004      46.540000000000006
   163   1      7.1600000000000037      50.120000000000012      50.120000000000012
   164   1      7.1600000000000037      51.910000000000004      51.910000000000004
   165   1      8.9500000000000028      50.120000000000012      51.910000000000004
   166   1      8.9500000000000028      51.910000000000004      50.120000000000012
   167   1      7.1600000000000037      50.120000000000012      53.700000000000003
   168   1      7.1600000000000037      51.910000000000004      55.490000000000009
   169   1      8.9500000000000028      50.120000000000012      55.490000000000009
   170   1      8.9500000000000028      51.910000000000004      53.700000000000003
   171   1      7.1600000000000037      50.120000000000012      57.280000000000001
   172   1      7.1600000000000037      51.910000000000004                   59.07
   173   1      8.9500000000000028      50.120000000000012                   59.07
   174   1      8.9500000000000028      51.910000000000004      57.280000000000001
   175   1      8.9500000000000028      50.120000000000012      62.650000000000006
   176   1      8.9500000000000028      51.910000000000004      60.859999999999999
   177   1      8.9500000000000028      53.700000000000003      37.590000000000003
   178   1      7.1600000000000037      55.490000000000009      41.170000000000002
   179   1      8.9500000000000028      53.700000000000003      41.170000000000002
   180   1      8.9500000000000028      55.490000000000009      39.380000000000003
   181   1      7.1600000000000037      53.700000000000003      42.960000000000001
   182   1      7.1600000000000037      55.490000000000009                   44.75
   183   1      8.9500000000000028      53.700000000000003                   44.75
   184   1      8.9500000000000028      55.490000000000009      42.960000000000001
   185   1      7.1600000000000037      53.700000000000003      46.540000000000006
   186   1      7.1600000000000037      55.490000000000009      48.330000000000005
   187   1      8.9500000000000028      53.700000000000003      48.330000000000005
   188   1      8.9500000000000028      55.490000000000009      46.540000000000006
   189   1      7.1600000000000037      53.700000000000003      50.120000000000012
   190   1      7.1600000000000037      55.490000000000009      51.910000000000004
   191   1      8.9500000000000028      53.700000000000003      51.910000000000004
   192   1      8.9500000000000028      55.490000000000009      50.120000000000012
   193   1      7.1600000000000037      53.700000000000003      53.700000000000003
   194   1      7.1600000000000037      55.490000000000009      55.490000000000009
   195   1      8.9500000000000028      53.700000000000003      55.490000000000009
   196   1      8.9500000000000028      55.490000000000009      53.700000000000003
   197   1      7.1600000000000037      53.700000000000003      57.280000000000001
   198   1      7.1600000000000037      55.490000000000009                   59.07
   199   1      8.9500000000000028      53.700000000000003                   59.07
   200   1      8.9500000000000028      55.490000000000009      57.280000000000001
   201   1      8.9500000000000028      53.700000000000003      62.650000000000006
   202   1      8.9500000000000028      55.490000000000009      60.859999999999999
   203   1      8.9500000000000028      57.280000000000001      37.590000000000003
   204   1      7.1600000000000037                   59.07      41.170000000000002
   205   1      8.9500000000000028      57.280000000000001      41.170000000000002
   206   1      8.9500000000000028                   59.07      39.380000000000003
   207   1      7.1600000000000037      57.280000000000001      42.960000000000001
   208   1      7.1600000000000037                   59.07                   44.75
   209   1      8.9500000000000028      57.280000000000001                   44.75
   210   1      8.9500000000000028                   59.07      42.960000000000001
   211   1      7.1600000000000037      57.280000000000001      46.540000000000006
   212   1      7.1600000000000037                   59.07      48.330000000000005
   213   1      8.9500000000000028      57.280000000000001      48.330000000000005
   214   1      8.9500000000000028                   59.07      46.540000000000006
   215   1      7.1600000000000037      57.280000000000001      50.120000000000012
   216   1      7.1600000000000037                   59.07      51.910000000000004
   217   1      8.9500000000000028      57.280000000000001      51.910000000000004
   218   1      8.9500000000000028                   59.07      50.120000000000012
   219   1      7.1600000000000037      57.280000000000001      53.700000000000003
   220   1      7.1600000000000037                   59.07      55.490000000000009
   221   1      8.9500000000000028      57.280000000000001      55.490000000000009
   222   1      8.9500000000000028                   59.07      53.700000000000003
   223   1      7.1600000000000037      57.280000000000001      57.280000000000001
   224   1      7.1600000000000037                   59.07                   59.07
   225   1      8.9500000000000028      57.280000000000001                   59.07
   226   1      8.9500000000000028                   59.07      57.280000000000001
   227   1      8.9500000000000028      57.280000000000001      62.650000000000006
   228   1      8.9500000000000028                   59.07      60.859999999999999
   229   1      8.9500000000000028      60.859999999999999      37.590000000000003
   230   1      8.9500000000000028      60.859999999999999      41.170000000000002
   231   1      8.9500000000000028      62.650000000000006      39.380000000000003
   232   1      8.9500000000000028      60.859999999999999                   44.75
   233   1      8.9500000000000028      62.650000000000006      42.960000000000001
   234   1      8.9500000000000028      60.859999999999999      48.330000000000005
   235   1      8.9500000000000028      62.650000000000006      46.540000000000006
   236   1      8.9500000000000028      60.859999999999999      51.910000000000004
   237   1      8.9500000000000028      62.650000000000006      50.120000000000012
   238   1      8.9500000000000028      60.859999999999999      55.490000000000009
   239   1      8.9500000000000028      62.650000000000006      53.700000000000003
   240   1      8.9500000000000028      60.859999999999999                   59.07
   241   1      8.9500000000000028      62.650000000000006      57.280000000000001
   242   1      8.9500000000000028      60.859999999999999      62.650000000000006
   243   1      8.9500000000000028      62.650000000000006      60.859999999999999
   244   1      12.530000000000003      34.009999999999998      35.800000000000004
   245   1      12.530000000000003      34.009999999999998      39.380000000000003
   246   1      12.530000000000003      34.009999999999998      42.960000000000001
   247   1      12.530000000000003      34.009999999999998      46.540000000000006
   248   1      12.530000000000003      34.009999999999998      50.120000000000012
   249   1      12.530000000000003      34.009999999999998      53.700000000000003
   250   1      12.530000000000003      34.009999999999998      57.280000000000001
   251   1      12.530000000000003      34.009999999999998      60.859999999999999
   252   1      12.530000000000003      34.009999999999998      64.439999999999998
   253   1      12.530000000000003      35.800000000000004      34.009999999999998
   254   1      10.740000000000002      35.800000000000004      35.800000000000004
   255   1      10.740000000000002      37.590000000000003      37.590000000000003
   256   1      12.530000000000003      35.800000000000004      37.590000000000003
   257   1      12.530000000000003      37.590000000000003      35.800000000000004
   258   1      10.740000000000002      35.800000000000004      39.380000000000003
   259   1      10.740000000000002      37.590000000000003      41.170000000000002
   260   1      12.530000000000003      35.800000000000004      41.170000000000002
   261   1      12.530000000000003      37.590000000000003      39.380000000000003
   262   1      10.740000000000002      35.800000000000004      42.960000000000001
   263   1      10.740000000000002      37.590000000000003                   44.75
   264   1      12.530000000000003      35.800000000000004                   44.75
   265   1      12.530000000000003      37.590000000000003      42.960000000000001
   266   1      10.740000000000002      35.800000000000004      46.540000000000006
   267   1      10.740000000000002      37.590000000000003      48.330000000000005
   268   1      12.530000000000003      35.800000000000004      48.330000000000005
   269   1      12.530000000000003      37.590000000000003      46.540000000000006
   270   1      10.740000000000002      35.800000000000004      50.120000000000012
   271   1      10.740000000000002      37.590000000000003      51.910000000000004
   272   1      12.530000000000003      35.800000000000004      51.910000000000004
   273   1      12.530000000000003      37.590000000000003      50.120000000000012
   274   1      10.740000000000002      35.800000000000004      53.700000000000003
   275   1      10.740000000000002      37.590000000000003      55.490000000000009
   276   1      12.530000000000003      35.800000000000004      55.490000000000009
   277   1      12.530000000000003      37.590000000000003      53.700000000000003
   278   1      10.740000000000002      35.800000000000004      57.280000000000001
   279   1      10.740000000000002      37.590000000000003                   59.07
   280   1      12.530000000000003      35.800000000000004                   59.07
   281   1      12.530000000000003      37.590000000000003      57.280000000000001
   282   1      10.740000000000002      35.800000000000004      60.859999999999999
   283   1      10.740000000000002      37.590000000000003      62.650000000000006
   284   1      12.530000000000003      35.800000000000004      62.650000000000006
   285   1      12.530000000000003      37.590000000000003      60.859999999999999
   286   1      10.740000000000002      35.800000000000004      64.439999999999998
   287   1      12.530000000000003      35.800000000000004      66.230000000000004
   288   1      12.530000000000003      37.590000000000003      64.439999999999998
   289   1      12.530000000000003      39.380000000000003      34.009999999999998
   290   1      10.740000000000002      39.380000000000003      35.800000000000004
   291   1      10.740000000000002      41.170000000000002      37.590000000000003
   292   1      12.530000000000003      39.380000000000003      37.590000000000003
   293   1      12.530000000000003      41.170000000000002      35.800000000000004
   294   1      10.740000000000002      39.380000000000003      39.380000000000003
   295   1      10.740000000000002      41.170000000000002      41.170000000000002
   296   1      12.530000000000003      39.380000000000003      41.170000000000002
   297   1      12.530000000000003      41.170000000000002      39.380000000000003
   298   1      10.740000000000002      39.380000000000003      42.960000000000001
   299   1      10.740000000000002      41.170000000000002                   44.75
   300   1      12.530000000000003      39.380000000000003                   44.75
   301   1      12.530000000000003      41.170000000000002      42.960000000000001
   302   1      10.740000000000002      39.380000000000003      46.540000000000006
   303   1      10.740000000000002      41.170000000000002      48.330000000000005
   304   1      12.530000000000003      39.380000000000003      48.330000000000005
   305   1      12.530000000000003      41.170000000000002      46.540000000000006
   306   1      10.740000000000002      39.380000000000003      50.120000000000012
   307   1      10.740000000000002      41.170000000000002      51.910000000000004
   308   1      12.530000000000003      39.380000000000003      51.910000000000004
   309   1      12.530000000000003      41.170000000000002      50.120000000000012
   310   1      10.740000000000002      39.380000000000003      53.700000000000003
   311   1      10.740000000000002      41.170000000000002      55.490000000000009
   312   1      12.530000000000003      39.380000000000003      55.490000000000009
   313   1      12.530000000000003      41.170000000000002      53.700000000000003
   314   1      10.740000000000002      39.380000000000003      57.280000000000001
   315   1      10.740000000000002      41.170000000000002                   59.07
   316   1      12.530000000000003      39.380000000000003                   59.07
   317   1      12.530000000000003      41.170000000000002      57.280000000000001
   318   1      10.740000000000002      39.380000000000003      60.859999999999999
   319   1      10.740000000000002      41.170000000000002      62.650000000000006
   320   1      12.530000000000003      39.380000000000003      62.650000000000006
   321   1      12.530000000000003      41.170000000000002      60.859999999999999
   322   1      10.740000000000002      39.380000000000003      64.439999999999998
   323   1      12.530000000000003      39.380000000000003      66.230000000000004
   324   1      12.530000000000003      41.170000000000002      64.439999999999998
   325   1      12.530000000000003      42.960000000000001      34.009999999999998
   326   1      10.740000000000002      42.960000000000001      35.800000000000004
   327   1      10.740000000000002                   44.75      37.590000000000003
   328   1      12.530000000000003      42.960000000000001      37.590000000000003
   329   1      12.530000000000003                   44.75      35.800000000000004
   330   1      10.740000000000002      42.960000000000001      39.380000000000003
   331   1      10.740000000000002                   44.75      41.170000000000002
   332   1      12.530000000000003      42.960000000000001      41.170000000000002
   333   1      12.530000000000003                   44.75      39.380000000000003
   334   1      10.740000000000002      42.960000000000001      42.960000000000001
   335   1      10.740000000000002                   44.75                   44.75
   336   1      12.530000000000003      42.960000000000001                   44.75
   337   1      12.530000000000003                   44.75      42.960000000000001
   338   1      10.740000000000002      42.960000000000001      46.540000000000006
   339   1      10.740000000000002                   44.75      48.330000000000005
   340   1      12.530000000000003      42.960000000000001      48.330000000000005
   341   1      12.530000000000003                   44.75      46.540000000000006
   342   1      10.740000000000002      42.960000000000001      50.120000000000012
   343   1      10.740000000000002                   44.75      51.910000000000004
   344   1      12.530000000000003      42.960000000000001      51.910000000000004
   345   1      12.530000000000003                   44.75      50.120000000000012
   346   1      10.740000000000002      42.960000000000001      53.700000000000003
   347   1      10.740000000000002                   44.75      55.490000000000009
   348   1      12.530000000000003      42.960000000000001      55.490000000000009
   349   1      12.530000000000003                   44.75      53.700000000000003
   350   1      10.740000000000002      42.960000000000001      57.280000000000001
   351   1      10.740000000000002                   44.75                   59.07
   352   1      12.530000000000003      42.960000000000001                   59.07
   353   1      12.530000000000003                   44.75      57.280000000000001
   354   1      10.740000000000002      42.960000000000001      60.859999999999999
   355   1      10.740000000000002                   44.75      62.650000000000006
   356   1      12.530000000000003      42.960000000000001      62.650000000000006
   357   1      12.530000000000003                   44.75      60.859999999999999
   358   1      10.740000000000002      42.960000000000001      64.439999999999998