LAMMPS data file via write_data, version 30 Nov 2020, timestep = 0

30163 atoms
5 atom types

0 123 xlo xhi
0 123 ylo yhi
0 123 zlo zhi

Masses

1 58.7
2 55.8
3 52
4 59
5 63

Atoms # atomic

1 3 1.785000000000004 58.905 60.690000000000005 0 0 0
2 2 1.785000000000004 60.690000000000005 58.905 0 0 0
3 3 7.105427357601002e-15 60.690000000000005 60.690000000000005 0 0 0
6 3 5.355000000000005 55.33500000000001 60.690000000000005 0 0 0
7 3 3.570000000000008 58.905 58.905 0 0 0
8 1 5.355000000000005 57.12000000000001 58.905 0 0 0
9 4 5.355000000000005 58.905 57.12000000000001 0 0 0
10 2 3.570000000000008 57.12000000000001 60.690000000000005 0 0 0
13 1 5.355000000000005 58.905 60.690000000000005 0 0 0
15 4 5.355000000000005 60.690000000000005 55.33500000000001 0 0 0
16 1 3.570000000000008 60.690000000000005 57.12000000000001 0 0 0
18 2 5.355000000000005 60.690000000000005 58.905 0 0 0
20 4 3.570000000000008 60.690000000000005 60.690000000000005 0 0 0
31 3 8.925000000000004 51.76500000000001 60.690000000000005 0 0 0
32 3 7.140000000000008 55.33500000000001 58.905 0 0 0
33 1 8.925000000000004 53.550000000000004 58.905 0 0 0
34 1 8.925000000000004 55.33500000000001 57.12000000000001 0 0 0
35 3 7.140000000000008 53.550000000000004 60.690000000000005 0 0 0
38 3 8.925000000000004 55.33500000000001 60.690000000000005 0 0 0
40 3 7.140000000000008 58.905 55.33500000000001 0 0 0
41 1 8.925000000000004 57.12000000000001 55.33500000000001 0 0 0
42 4 8.925000000000004 58.905 53.550000000000004 0 0 0
43 3 7.140000000000008 57.12000000000001 57.12000000000001 0 0 0
44 4 7.140000000000008 58.905 58.905 0 0 0
45 3 8.925000000000004 57.12000000000001 58.905 0 0 0
46 2 8.925000000000004 58.905 57.12000000000001 0 0 0
47 4 7.140000000000008 57.12000000000001 60.690000000000005 0 0 0
50 2 8.925000000000004 58.905 60.690000000000005 0 0 0
56 2 8.925000000000004 60.690000000000005 51.76500000000001 0 0 0
57 1 7.140000000000008 60.690000000000005 53.550000000000004 0 0 0
59 1 8.925000000000004 60.690000000000005 55.33500000000001 0 0 0
61 3 7.140000000000008 60.690000000000005 57.12000000000001 0 0 0
63 4 8.925000000000004 60.690000000000005 58.905 0 0 0
65 2 7.140000000000008 60.690000000000005 60.690000000000005 0 0 0
92 5 12.495000000000006 48.19500000000001 60.690000000000005 0 0 0
93 1 10.71000000000001 51.76500000000001 58.905 0 0 0
94 3 12.495000000000006 49.98000000000001 58.905 0 0 0
95 4 12.495000000000006 51.76500000000001 57.12000000000001 0 0 0
96 5 10.71000000000001 49.98000000000001 60.690000000000005 0 0 0
99 4 12.495000000000006 51.76500000000001 60.690000000000005 0 0 0
101 1 10.71000000000001 55.33500000000001 55.33500000000001 0 0 0
102 2 12.495000000000006 53.550000000000004 55.33500000000001 0 0 0
103 5 12.495000000000006 55.33500000000001 53.550000000000004 0 0 0
104 2 10.71000000000001 53.550000000000004 57.12000000000001 0 0 0
105 4 10.71000000000001 55.33500000000001 58.905 0 0 0
106 3 12.495000000000006 53.550000000000004 58.905 0 0 0
107 5 12.495000000000006 55.33500000000001 57.12000000000001 0 0 0
108 3 10.71000000000001 53.550000000000004 60.690000000000005 0 0 0
111 5 12.495000000000006 55.33500000000001 60.690000000000005 0 0 0
117 3 10.71000000000001 58.905 51.76500000000001 0 0 0
118 3 12.495000000000006 57.12000000000001 51.76500000000001 0 0 0
119 4 12.495000000000006 58.905 49.98000000000001 0 0 0
120 5 10.71000000000001 57.12000000000001 53.550000000000004 0 0 0
121 1 10.71000000000001 58.905 55.33500000000001 0 0 0
122 5 12.495000000000006 57.12000000000001 55.33500000000001 0 0 0
123 4 12.495000000000006 58.905 53.550000000000004 0 0 0
124 1 10.71000000000001 57.12000000000001 57.12000000000001 0 0 0
125 2 10.71000000000001 58.905 58.905 0 0 0
126 5 12.495000000000006 57.12000000000001 58.905 0 0 0
127 4 12.495000000000006 58.905 57.12000000000001 0 0 0
128 2 10.71000000000001 57.12000000000001 60.690000000000005 0 0 0
131 5 12.495000000000006 58.905 60.690000000000005 0 0 0
141 3 12.495000000000006 60.690000000000005 48.19500000000001 0 0 0
142 1 10.71000000000001 60.690000000000005 49.98000000000001 0 0 0
144 3 12.495000000000006 60.690000000000005 51.76500000000001 0 0 0
146 2 10.71000000000001 60.690000000000005 53.550000000000004 0 0 0
148 2 12.495000000000006 60.690000000000005 55.33500000000001 0 0 0
150 5 10.71000000000001 60.690000000000005 57.12000000000001 0 0 0
152 3 12.495000000000006 60.690000000000005 58.905 0 0 0
154 4 10.71000000000001 60.690000000000005 60.690000000000005 0 0 0
205 1 16.06500000000001 44.62500000000001 60.690000000000005 0 0 0
206 4 14.280000000000003 48.19500000000001 58.905 0 0 0
207 4 16.06500000000001 46.410000000000004 58.905 0 0 0
208 4 16.06500000000001 48.19500000000001 57.12000000000001 0 0 0
209 2 14.280000000000003 46.410000000000004 60.690000000000005 0 0 0
212 1 16.06500000000001 48.19500000000001 60.690000000000005 0 0 0
214 4 14.280000000000003 51.76500000000001 55.33500000000001 0 0 0
215 1 16.06500000000001 49.98000000000001 55.33500000000001 0 0 0
216 5 16.06500000000001 51.76500000000001 53.550000000000004 0 0 0
217 3 14.280000000000003 49.98000000000001 57.12000000000001 0 0 0
218 2 14.280000000000003 51.76500000000001 58.905 0 0 0
219 5 16.06500000000001 49.98000000000001 58.905 0 0 0
220 5 16.06500000000001 51.76500000000001 57.12000000000001 0 0 0
221 5 14.280000000000003 49.98000000000001 60.690000000000005 0 0 0
224 4 16.06500000000001 51.76500000000001 60.690000000000005 0 0 0
230 2 14.280000000000003 55.33500000000001 51.76500000000001 0 0 0
231 3 16.06500000000001 53.550000000000004 51.76500000000001 0 0 0
232 2 16.06500000000001 55.33500000000001 49.98000000000001 0 0 0
233 2 14.280000000000003 53.550000000000004 53.550000000000004 0 0 0
234 5 14.280000000000003 55.33500000000001 55.33500000000001 0 0 0
235 1 16.06500000000001 53.550000000000004 55.33500000000001 0 0 0
236 4 16.06500000000001 55.33500000000001 53.550000000000004 0 0 0
237 3 14.280000000000003 53.550000000000004 57.12000000000001 0 0 0
238 3 14.280000000000003 55.33500000000001 58.905 0 0 0
239 4 16.06500000000001 53.550000000000004 58.905 0 0 0
240 1 16.06500000000001 55.33500000000001 57.12000000000001 0 0 0
241 4 14.280000000000003 53.550000000000004 60.690000000000005 0 0 0
244 4 16.06500000000001 55.33500000000001 60.690000000000005 0 0 0
254 5 14.280000000000003 58.905 48.19500000000001 0 0 0
255 5 16.06500000000001 57.12000000000001 48.19500000000001 0 0 0
256 3 16.06500000000001 58.905 46.410000000000004 0 0 0
257 3 14.280000000000003 57.12000000000001 49.98000000000001 0 0 0
258 5 14.280000000000003 58.905 51.76500000000001 0 0 0
259 4 16.06500000000001 57.12000000000001 51.76500000000001 0 0 0
260 4 16.06500000000001 58.905 49.98000000000001 0 0 0
261 5 14.280000000000003 57.12000000000001 53.550000000000004 0 0 0
262 3 14.280000000000003 58.905 55.33500000000001 0 0 0
263 4 16.06500000000001 57.12000000000001 55.33500000000001 0 0 0
264 4 16.06500000000001 58.905 53.550000000000004 0 0 0
265 1 14.280000000000003 57.12000000000001 57.12000000000001 0 0 0
266 5 14.280000000000003 58.905 58.905 0 0 0
267 3 16.06500000000001 57.12000000000001 58.905 0 0 0
268 1 16.06500000000001 58.905 57.12000000000001 0 0 0
269 1 14.280000000000003 57.12000000000001 60.690000000000005 0 0 0
272 4 16.06500000000001 58.905 60.690000000000005 0 0 0
286 1 16.06500000000001 60.690000000000005 44.62500000000001 0 0 0
287 1 14.280000000000003 60.690000000000005 46.410000000000004 0 0 0
289 2 16.06500000000001 60.690000000000005 48.19500000000001 0 0 0
291 3 14.280000000000003 60.690000000000005 49.98000000000001 0 0 0
293 5 16.06500000000001 60.690000000000005 51.76500000000001 0 0 0
295 4 14.280000000000003 60.690000000000005 53.550000000000004 0 0 0
297 5 16.06500000000001 60.690000000000005 55.33500000000001 0 0 0
299 4 14.280000000000003 60.690000000000005 57.12000000000001 0 0 0
301 2 16.06500000000001 60.690000000000005 58.905 0 0 0
303 4 14.280000000000003 60.690000000000005 60.690000000000005 0 0 0
386 4 19.63500000000001 41.055 60.690000000000005 0 0 0
387 4 17.85000000000001 44.62500000000001 58.905 0 0 0
388 1 19.63500000000001 42.84000000000001 58.905 0 0 0
389 5 19.63500000000001 44.62500000000001 57.12000000000001 0 0 0
390 5 17.85000000000001 42.84000000000001 60.690000000000005 0 0 0
393 4 19.63500000000001 44.62500000000001 60.690000000000005 0 0 0
395 3 19.63500000000001 48.19500000000001 49.98000000000001 0 0 0
396 5 17.85000000000001 48.19500000000001 55.33500000000001 0 0 0
397 3 19.63500000000001 46.410000000000004 55.33500000000001 0 0 0
398 2 19.63500000000001 48.19500000000001 53.550000000000004 0 0 0
399 2 17.85000000000001 46.410000000000004 57.12000000000001 0 0 0
400 4 17.85000000000001 48.19500000000001 58.905 0 0 0
401 3 19.63500000000001 46.410000000000004 58.905 0 0 0
402 4 19.63500000000001 48.19500000000001 57.12000000000001 0 0 0
403 2 17.85000000000001 46.410000000000004 60.690000000000005 0 0 0
406 3 19.63500000000001 48.19500000000001 60.690000000000005 0 0 0
413 3 19.63500000000001 49.98000000000001 48.19500000000001 0 0 0
414 1 17.85000000000001 49.98000000000001 49.98000000000001 0 0 0
415 5 17.85000000000001 51.76500000000001 51.76500000000001 0 0 0
416 1 19.63500000000001 49.98000000000001 51.76500000000001 0 0 0
417 4 19.63500000000001 51.76500000000001 49.98000000000001 0 0 0
418 5 17.85000000000001 49.98000000000001 53.550000000000004 0 0 0
419 5 17.85000000000001 51.76500000000001 55.33500000000001 0 0 0
420 3 19.63500000000001 49.98000000000001 55.33500000000001 0 0 0
421 2 19.63500000000001 51.76500000000001 53.550000000000004 0 0 0
422 4 17.85000000000001 49.98000000000001 57.12000000000001 0 0 0
423 3 17.85000000000001 51.76500000000001 58.905 0 0 0
424 4 19.63500000000001 49.98000000000001 58.905 0 0 0
425 2 19.63500000000001 51.76500000000001 57.12000000000001 0 0 0
426 1 17.85000000000001 49.98000000000001 60.690000000000005 0 0 0
429 2 19.63500000000001 51.76500000000001 60.690000000000005 0 0 0
441 2 17.85000000000001 55.33500000000001 48.19500000000001 0 0 0
442 3 19.63500000000001 53.550000000000004 48.19500000000001 0 0 0
443 3 19.63500000000001 55.33500000000001 46.410000000000004 0 0 0
444 4 17.85000000000001 53.550000000000004 49.98000000000001 0 0 0
445 2 17.85000000000001 55.33500000000001 51.76500000000001 0 0 0
446 2 19.63500000000001 53.550000000000004 51.76500000000001 0 0 0
447 3 19.63500000000001 55.33500000000001 49.98000000000001 0 0 0
448 5 17.85000000000001 53.550000000000004 53.550000000000004 0 0 0
449 4 17.85000000000001 55.33500000000001 55.33500000000001 0 0 0
450 4 19.63500000000001 53.550000000000004 55.33500000000001 0 0 0
451 5 19.63500000000001 55.33500000000001 53.550000000000004 0 0 0
452 5 17.85000000000001 53.550000000000004 57.12000000000001 0 0 0
453 4 17.85000000000001 55.33500000000001 58.905 0 0 0
454 3 19.63500000000001 53.550000000000004 58.905 0 0 0
455 5 19.63500000000001 55.33500000000001 57.12000000000001 0 0 0
456 2 17.85000000000001 53.550000000000004 60.690000000000005 0 0 0
459 1 19.63500000000001 55.33500000000001 60.690000000000005 0 0 0
473 1 17.85000000000001 58.905 44.62500000000001 0 0 0
474 4 19.63500000000001 57.12000000000001 44.62500000000001 0 0 0
475 4 19.63500000000001 58.905 42.84000000000001 0 0 0
476 3 17.85000000000001 57.12000000000001 46.410000000000004 0 0 0
477 3 17.85000000000001 58.905 48.19500000000001 0 0 0
478 5 19.63500000000001 57.12000000000001 48.19500000000001 0 0 0
479 2 19.63500000000001 58.905 46.410000000000004 0 0 0
480 3 17.85000000000001 57.12000000000001 49.98000000000001 0 0 0
481 1 17.85000000000001 58.905 51.76500000000001 0 0 0
482 5 19.63500000000001 57.12000000000001 51.76500000000001 0 0 0
483 5 19.63500000000001 58.905 49.98000000000001 0 0 0
484 3 17.85000000000001 57.12000000000001 53.550000000000004 0 0 0
485 2 17.85000000000001 58.905 55.33500000000001 0 0 0
486 5 19.63500000000001 57.12000000000001 55.33500000000001 0 0 0
487 3 19.63500000000001 58.905 53.550000000000004 0 0 0
488 3 17.85000000000001 57.12000000000001 57.12000000000001 0 0 0
489 3 17.85000000000001 58.905 58.905 0 0 0
490 5 19.63500000000001 57.12000000000001 58.905 0 0 0
491 5 19.63500000000001 58.905 57.12000000000001 0 0 0
492 2 17.85000000000001 57.12000000000001 60.690000000000005 0 0 0
495 4 19.63500000000001 58.905 60.690000000000005 0 0 0
513 4 19.63500000000001 60.690000000000005 41.055 0 0 0
514 4 17.85000000000001 60.690000000000005 42.84000000000001 0 0 0
516 2 19.63500000000001 60.690000000000005 44.62500000000001 0 0 0
518 5 17.85000000000001 60.690000000000005 46.410000000000004 0 0 0
520 4 19.63500000000001 60.690000000000005 48.19500000000001 0 0 0
522 2 17.85000000000001 60.690000000000005 49.98000000000001 0 0 0
524 2 19.63500000000001 60.690000000000005 51.76500000000001 0 0 0
526 5 17.85000000000001 60.690000000000005 53.550000000000004 0 0 0
528 2 19.63500000000001 60.690000000000005 55.33500000000001 0 0 0
530 4 17.85000000000001 60.690000000000005 57.12000000000001 0 0 0
532 5 19.63500000000001 60.690000000000005 58.905 0 0 0
534 3 17.85000000000001 60.690000000000005 60.690000000000005 0 0 0
663 2 23.205000000000005 37.48500000000001 60.690000000000005 0 0 0
664 4 21.420000000000005 41.055 58.905 0 0 0
665 4 23.205000000000005 39.27000000000001 58.905 0 0 0
666 2 23.205000000000005 41.055 57.12000000000001 0 0 0
667 4 21.420000000000005 39.27000000000001 60.690000000000005 0 0 0
670 3 23.205000000000005 41.055 60.690000000000005 0 0 0
672 1 23.205000000000005 44.62500000000001 49.98000000000001 0 0 0
673 2 21.420000000000005 44.62500000000001 55.33500000000001 0 0 0
674 5 23.205000000000005 42.84000000000001 55.33500000000001 0 0 0
675 5 23.205000000000005 44.62500000000001 53.550000000000004 0 0 0
676 4 21.420000000000005 42.84000000000001 57.12000000000001 0 0 0
677 2 21.420000000000005 44.62500000000001 58.905 0 0 0
678 2 23.205000000000005 42.84000000000001 58.905 0 0 0
679 3 23.205000000000005 44.62500000000001 57.12000000000001 0 0 0
680 1 21.420000000000005 42.84000000000001 60.690000000000005 0 0 0
683 1 23.205000000000005 44.62500000000001 60.690000000000005 0 0 0
690 3 21.420000000000005 48.19500000000001 48.19500000000001 0 0 0
691 1 23.205000000000005 46.410000000000004 48.19500000000001 0 0 0
692 3 23.205000000000005 48.19500000000001 46.410000000000004 0 0 0
693 3 21.420000000000005 46.410000000000004 49.98000000000001 0 0 0
694 3 21.420000000000005 48.19500000000001 51.76500000000001 0 0 0
695 3 23.205000000000005 46.410000000000004 51.76500000000001 0 0 0
696 4 23.205000000000005 48.19500000000001 49.98000000000001 0 0 0
697 5 21.420000000000005 46.410000000000004 53.550000000000004 0 0 0
698 2 21.420000000000005 48.19500000000001 55.33500000000001 0 0 0
699 1 23.205000000000005 46.410000000000004 55.33500000000001 0 0 0
700 3 23.205000000000005 48.19500000000001 53.550000000000004 0 0 0
701 3 21.420000000000005 46.410000000000004 57.12000000000001 0 0 0
702 5 21.420000000000005 48.19500000000001 58.905 0 0 0
703 3 23.205000000000005 46.410000000000004 58.905 0 0 0
704 3 23.205000000000005 48.19500000000001 57.12000000000001 0 0 0
705 4 21.420000000000005 46.410000000000004 60.690000000000005 0 0 0
708 1 23.205000000000005 48.19500000000001 60.690000000000005 0 0 0
722 4 23.205000000000005 49.98000000000001 44.62500000000001 0 0 0
723 4 21.420000000000005 49.98000000000001 46.410000000000004 0 0 0
724 3 21.420000000000005 51.76500000000001 48.19500000000001 0 0 0
725 1 23.205000000000005 49.98000000000001 48.19500000000001 0 0 0
726 5 23.205000000000005 51.76500000000001 46.410000000000004 0 0 0
727 4 21.420000000000005 49.98000000000001 49.98000000000001 0 0 0
728 5 21.420000000000005 51.76500000000001 51.76500000000001 0 0 0
729 4 23.205000000000005 49.98000000000001 51.76500000000001 0 0 0
730 1 23.205000000000005 51.76500000000001 49.98000000000001 0 0 0
731 5 21.420000000000005 49.98000000000001 53.550000000000004 0 0 0
732 5 21.420000000000005 51.76500000000001 55.33500000000001 0 0 0
733 2 23.205000000000005 49.98000000000001 55.33500000000001 0 0 0
734 4 23.205000000000005 51.76500000000001 53.550000000000004 0 0 0
735 1 21.420000000000005 49.98000000000001 57.12000000000001 0 0 0
736 3 21.420000000000005 51.76500000000001 58.905 0 0 0
737 3 23.205000000000005 49.98000000000001 58.905 0 0 0
738 3 23.205000000000005 51.76500000000001 57.12000000000001 0 0 0
739 3 21.420000000000005 49.98000000000001 60.690000000000005 0 0 0
742 3 23.205000000000005 51.76500000000001 60.690000000000005 0 0 0
758 4 21.420000000000005 55.33500000000001 44.62500000000001 0 0 0
759 3 23.205000000000005 53.550000000000004 44.62500000000001 0 0 0
760 1 23.205000000000005 55.33500000000001 42.84000000000001 0 0 0
761 5 21.420000000000005 53.550000000000004 46.410000000000004 0 0 0
762 3 21.420000000000005 55.33500000000001 48.19500000000001 0 0 0
763 2 23.205000000000005 53.550000000000004 48.19500000000001 0 0 0
764 1 23.205000000000005 55.33500000000001 46.410000000000004 0 0 0
765 2 21.420000000000005 53.550000000000004 49.98000000000001 0 0 0
766 5 21.420000000000005 55.33500000000001 51.76500000000001 0 0 0
767 4 23.205000000000005 53.550000000000004 51.76500000000001 0 0 0
768 5 23.205000000000005 55.33500000000001 49.98000000000001 0 0 0
769 1 21.420000000000005 53.550000000000004 53.550000000000004 0 0 0
770 2 21.420000000000005 55.33500000000001 55.33500000000001 0 0 0
771 5 23.205000000000005 53.550000000000004 55.33500000000001 0 0 0
772 4 23.205000000000005 55.33500000000001 53.550000000000004 0 0 0
773 4 21.420000000000005 53.550000000000004 57.12000000000001 0 0 0
774 4 21.420000000000005 55.33500000000001 58.905 0 0 0
775 5 23.205000000000005 53.550000000000004 58.905 0 0 0
776 3 23.205000000000005 55.33500000000001 57.12000000000001 0 0 0
777 1 21.420000000000005 53.550000000000004 60.690000000000005 0 0 0
780 4 23.205000000000005 55.33500000000001 60.690000000000005 0 0 0
798 1 21.420000000000005 58.905 41.055 0 0 0
799 2 23.205000000000005 57.12000000000001 41.055 0 0 0
800 3 23.205000000000005 58.905 39.27000000000001 0 0 0
801 1 21.420000000000005 57.12000000000001 42.84000000000001 0 0 0
802 5 21.420000000000005 58.905 44.62500000000001 0 0 0
803 3 23.205000000000005 57.12000000000001 44.62500000000001 0 0 0
804 3 23.205000000000005 58.905 42.84000000000001 0 0 0
805 5 21.420000000000005 57.12000000000001 46.410000000000004 0 0 0
806 4 21.420000000000005 58.905 48.19500000000001 0 0 0
807 3 23.205000000000005 57.12000000000001 48.19500000000001 0 0 0
808 5 23.205000000000005 58.905 46.410000000000004 0 0 0
809 2 21.420000000000005 57.12000000000001 49.98000000000001 0 0 0
810 1 21.420000000000005 58.905 51.76500000000001 0 0 0
811 3 23.205000000000005 57.12000000000001 51.76500000000001 0 0 0
812 2 23.205000000000005 58.905 49.98000000000001 0 0 0
813 3 21.420000000000005 57.12000000000001 53.550000000000004 0 0 0
814 3 21.420000000000005 58.905 55.33500000000001 0 0 0
815 3 23.205000000000005 57.12000000000001 55.33500000000001 0 0 0
816 5 23.205000000000005 58.905 53.550000000000004 0 0 0
817 2 21.420000000000005 57.12000000000001 57.12000000000001 0 0 0
818 5 21.420000000000005 58.905 58.905 0 0 0
819 2 23.205000000000005 57.12000000000001 58.905 0 0 0
820 3 23.205000000000005 58.905 57.12000000000001 0 0 0
821 4 21.420000000000005 57.12000000000001 60.690000000000005 0 0 0
824 4 23.205000000000005 58.905 60.690000000000005 0 0 0
846 1 23.205000000000005 60.690000000000005 37.48500000000001 0 0 0
847 5 21.420000000000005 60.690000000000005 39.27000000000001 0 0 0
849 3 23.205000000000005 60.690000000000005 41.055 0 0 0
851 2 21.420000000000005 60.690000000000005 42.84000000000001 0 0 0
853 5 23.205000000000005 60.690000000000005 44.62500000000001 0 0 0
855 4 21.420000000000005 60.690000000000005 46.410000000000004 0 0 0
857 2 23.205000000000005 60.690000000000005 48.19500000000001 0 0 0
859 3 21.420000000000005 60.690000000000005 49.98000000000001 0 0 0
861 1 23.205000000000005 60.690000000000005 51.76500000000001 0 0 0
863 2 21.420000000000005 60.690000000000005 53.550000000000004 0 0 0
865 5 23.205000000000005 60.690000000000005 55.33500000000001 0 0 0
867 1 21.420000000000005 60.690000000000005 57.12000000000001 0 0 0
869 4 23.205000000000005 60.690000000000005 58.905 0 0 0
871 3 21.420000000000005 60.690000000000005 60.690000000000005 0 0 0
1056 2 26.77500000000001 33.915000000000006 60.690000000000005 0 0 0
1057 4 24.990000000000013 37.48500000000001 58.905 0 0 0
1058 4 26.77500000000001 35.7 58.905 0 0 0
1059 5 26.77500000000001 37.48500000000001 57.12000000000001 0 0 0
1060 2 24.990000000000013 35.7 60.690000000000005 0 0 0
1063 2 26.77500000000001 37.48500000000001 60.690000000000005 0 0 0
1065 1 26.77500000000001 41.055 49.98000000000001 0 0 0
1066 4 24.990000000000013 41.055 55.33500000000001 0 0 0
1067 5 26.77500000000001 39.27000000000001 55.33500000000001 0 0 0
1068 4 26.77500000000001 41.055 53.550000000000004 0 0 0
1069 3 24.990000000000013 39.27000000000001 57.12000000000001 0 0 0
1070 3 24.990000000000013 41.055 58.905 0 0 0
1071 4 26.77500000000001 39.27000000000001 58.905 0 0 0
1072 5 26.77500000000001 41.055 57.12000000000001 0 0 0
1073 5 24.990000000000013 39.27000000000001 60.690000000000005 0 0 0
1076 5 26.77500000000001 41.055 60.690000000000005 0 0 0
1083 1 24.990000000000013 44.62500000000001 48.19500000000001 0 0 0
1084 3 26.77500000000001 42.84000000000001 48.19500000000001 0 0 0
1085 2 26.77500000000001 44.62500000000001 46.410000000000004 0 0 0
1086 5 24.990000000000013 42.84000000000001 49.98000000000001 0 0 0
1087 1 24.990000000000013 44.62500000000001 51.76500000000001 0 0 0
1088 4 26.77500000000001 42.84000000000001 51.76500000000001 0 0 0
1089 2 26.77500000000001 44.62500000000001 49.98000000000001 0 0 0
1090 1 24.990000000000013 42.84000000000001 53.550000000000004 0 0 0
1091 4 24.990000000000013 44.62500000000001 55.33500000000001 0 0 0
1092 5 26.77500000000001 42.84000000000001 55.33500000000001 0 0 0
1093 4 26.77500000000001 44.62500000000001 53.550000000000004 0 0 0
1094 1 24.990000000000013 42.84000000000001 57.12000000000001 0 0 0
1095 2 24.990000000000013 44.62500000000001 58.905 0 0 0
1096 4 26.77500000000001 42.84000000000001 58.905 0 0 0
1097 3 26.77500000000001 44.62500000000001 57.12000000000001 0 0 0
1098 5 24.990000000000013 42.84000000000001 60.690000000000005 0 0 0
1101 2 26.77500000000001 44.62500000000001 60.690000000000005 0 0 0
1115 1 24.990000000000013 48.19500000000001 44.62500000000001 0 0 0
1116 3 26.77500000000001 46.410000000000004 44.62500000000001 0 0 0
1117 1 26.77500000000001 48.19500000000001 42.84000000000001 0 0 0
1118 2 24.990000000000013 46.410000000000004 46.410000000000004 0 0 0
1119 5 24.990000000000013 48.19500000000001 48.19500000000001 0 0 0
1120 5 26.77500000000001 46.410000000000004 48.19500000000001 0 0 0
1121 5 26.77500000000001 48.19500000000001 46.410000000000004 0 0 0
1122 4 24.990000000000013 46.410000000000004 49.98000000000001 0 0 0
1123 4 24.990000000000013 48.19500000000001 51.76500000000001 0 0 0
1124 3 26.77500000000001 46.410000000000004 51.76500000000001 0 0 0
1125 1 26.77500000000001 48.19500000000001 49.98000000000001 0 0 0
1126 2 24.990000000000013 46.410000000000004 53.550000000000004 0 0 0
1127 3 24.990000000000013 48.19500000000001 55.33500000000001 0 0 0
1128 3 26.77500000000001 46.410000000000004 55.33500000000001 0 0 0
1129 1 26.77500000000001 48.19500000000001 53.550000000000004 0 0 0
1130 3 24.990000000000013 46.410000000000004 57.12000000000001 0 0 0
1131 2 24.990000000000013 48.19500000000001 58.905 0 0 0
1132 3 26.77500000000001 46.410000000000004 58.905 0 0 0
1133 4 26.77500000000001 48.19500000000001 57.12000000000001 0 0 0
1134 4 24.990000000000013 46.410000000000004 60.690000000000005 0 0 0
1137 2 26.77500000000001 48.19500000000001 60.690000000000005 0 0 0
1155 3 26.77500000000001 49.98000000000001 41.055 0 0 0
1156 1 24.990000000000013 49.98000000000001 42.84000000000001 0 0 0
1157 4 24.990000000000013 51.76500000000001 44.62500000000001 0 0 0
1158 2 26.77500000000001 49.98000000000001 44.62500000000001 0 0 0
1159 3 26.77500000000001 51.76500000000001 42.84000000000001 0 0 0
1160 2 24.990000000000013 49.98000000000001 46.410000000000004 0 0 0
1161 4 24.990000000000013 51.76500000000001 48.19500000000001 0 0 0
1162 4 26.77500000000001 49.98000000000001 48.19500000000001 0 0 0
1163 3 26.77500000000001 51.76500000000001 46.410000000000004 0 0 0
1164 4 24.990000000000013 49.98000000000001 49.98000000000001 0 0 0
1165 5 24.990000000000013 51.76500000000001 51.76500000000001 0 0 0
1166 3 26.77500000000001 49.98000000000001 51.76500000000001 0 0 0
1167 2 26.77500000000001 51.76500000000001 49.98000000000001 0 0 0
1168 2 24.990000000000013 49.98000000000001 53.550000000000004 0 0 0
1169 2 24.990000000000013 51.76500000000001 55.33500000000001 0 0 0
1170 1 26.77500000000001 49.98000000000001 55.33500000000001 0 0 0
1171 5 26.77500000000001 51.76500000000001 53.550000000000004 0 0 0
1172 3 24.990000000000013 49.98000000000001 57.12000000000001 0 0 0
1173 5 24.990000000000013 51.76500000000001 58.905 0 0 0
1174 3 26.77500000000001 49.98000000000001 58.905 0 0 0
1175 4 26.77500000000001 51.76500000000001 57.12000000000001 0 0 0
1176 2 24.990000000000013 49.98000000000001 60.690000000000005 0 0 0
1179 1 26.77500000000001 51.76500000000001 60.690000000000005 0 0 0
1199 3 24.990000000000013 55.33500000000001 41.055 0 0 0
1200 5 26.77500000000001 53.550000000000004 41.055 0 0 0
1201 4 26.77500000000001 55.33500000000001 39.27000000000001 0 0 0
1202 3 24.990000000000013 53.550000000000004 42.84000000000001 0 0 0
1203 4 24.990000000000013 55.33500000000001 44.62500000000001 0 0 0
1204 5 26.77500000000001 53.550000000000004 44.62500000000001 0 0 0
1205 2 26.77500000000001 55.33500000000001 42.84000000000001 0 0 0
1206 4 24.990000000000013 53.550000000000004 46.410000000000004 0 0 0
1207 5 24.990000000000013 55.33500000000001 48.19500000000001 0 0 0
1208 5 26.77500000000001 53.550000000000004 48.19500000000001 0 0 0
1209 4 26.77500000000001 55.33500000000001 46.410000000000004 0 0 0
1210 5 24.990000000000013 53.550000000000004 49.98000000000001 0 0 0
1211 1 24.990000000000013 55.33500000000001 51.76500000000001 0 0 0
1212 1 26.77500000000001 53.550000000000004 51.76500000000001 0 0 0
1213 5 26.77500000000001 55.33500000000001 49.98000000000001 0 0 0
1214 2 24.990000000000013 53.550000000000004 53.550000000000004 0 0 0
1215 1 24.990000000000013 55.33500000000001 55.33500000000001 0 0 0
1216 2 26.77500000000001 53.550000000000004 55.33500000000001 0 0 0
1217 4 26.77500000000001 55.33500000000001 53.550000000000004 0 0 0
1218 1 24.990000000000013 53.550000000000004 57.12000000000001 0 0 0
1219 3 24.990000000000013 55.33500000000001 58.905 0 0 0
1220 5 26.77500000000001 53.550000000000004 58.905 0 0 0
1221 5 26.77500000000001 55.33500000000001 57.12000000000001 0 0 0
1222 3 24.990000000000013 53.550000000000004 60.690000000000005 0 0 0
1225 1 26.77500000000001 55.33500000000001 60.690000000000005 0 0 0
1247 1 24.990000000000013 58.905 37.48500000000001 0 0 0
1248 4 26.77500000000001 57.12000000000001 37.48500000000001 0 0 0
1249 4 26.77500000000001 58.905 35.7 0 0 0
1250 4 24.990000000000013 57.12000000000001 39.27000000000001 0 0 0
1251 2 24.990000000000013 58.905 41.055 0 0 0
1252 4 26.77500000000001 57.12000000000001 41.055 0 0 0
1253 4 26.77500000000001 58.905 39.27000000000001 0 0 0
1254 2 24.990000000000013 57.12000000000001 42.84000000000001 0 0 0
1255 3 24.990000000000013 58.905 44.62500000000001 0 0 0
1256 2 26.77500000000001 57.12000000000001 44.62500000000001 0 0 0
1257 4 26.77500000000001 58.905 42.84000000000001 0 0 0
1258 2 24.990000000000013 57.12000000000001 46.410000000000004 0 0 0
1259 5 24.990000000000013 58.905 48.19500000000001 0 0 0
1260 3 26.77500000000001 57.12000000000001 48.19500000000001 0 0 0
1261 2 26.77500000000001 58.905 46.410000000000004 0 0 0
1262 1 24.990000000000013 57.12000000000001 49.98000000000001 0 0 0
1263 4 24.990000000000013 58.905 51.76500000000001 0 0 0
1264 3 26.77500000000001 57.12000000000001 51.76500000000001 0 0 0
1265 4 26.77500000000001 58.905 49.98000000000001 0 0 0
1266 2 24.990000000000013 57.12000000000001 53.550000000000004 0 0 0
1267 3 24.990000000000013 58.905 55.33500000000001 0 0 0
1268 5 26.77500000000001 57.12000000000001 55.33500000000001 0 0 0
1269 1 26.77500000000001 58.905 53.550000000000004 0 0 0
1270 3 24.990000000000013 57.12000000000001 57.12000000000001 0 0 0
1271 3 24.990000000000013 58.905 58.905 0 0 0
1272 2 26.77500000000001 57.12000000000001 58.905 0 0 0
1273 2 26.77500000000001 58.905 57.12000000000001 0 0 0
1274 3 24.990000000000013 57.12000000000001 60.690000000000005 0 0 0
1277 3 26.77500000000001 58.905 60.690000000000005 0 0 0
1303 2 26.77500000000001 60.690000000000005 33.915000000000006 0 0 0
1304 4 24.990000000000013 60.690000000000005 35.7 0 0 0
1306 3 26.77500000000001 60.690000000000005 37.48500000000001 0 0 0
1308 2 24.990000000000013 60.690000000000005 39.27000000000001 0 0 0
1310 5 26.77500000000001 60.690000000000005 41.055 0 0 0
1312 3 24.990000000000013 60.690000000000005 42.84000000000001 0 0 0
1314 2 26.77500000000001 60.690000000000005 44.62500000000001 0 0 0
1316 4 24.990000000000013 60.690000000000005 46.410000000000004 0 0 0
1318 1 26.77500000000001 60.690000000000005 48.19500000000001 0 0 0
1320 4 24.990000000000013 60.690000000000005 49.98000000000001 0 0 0
1322 4 26.77500000000001 60.690000000000005 51.76500000000001 0 0 0
1324 3 24.990000000000013 60.690000000000005 53.550000000000004 0 0 0
1326 3 26.77500000000001 60.690000000000005 55.33500000000001 0 0 0
1328 5 24.990000000000013 60.690000000000005 57.12000000000001 0 0 0
1330 2 26.77500000000001 60.690000000000005 58.905 0 0 0
1332 1 24.990000000000013 60.690000000000005 60.690000000000005 0 0 0
1581 1 30.345000000000002 30.345000000000002 60.690000000000005 0 0 0
1582 5 28.560000000000006 33.915000000000006 58.905 0 0 0
1583 5 30.345000000000002 32.13000000000001 58.905 0 0 0