model_files/NiFeCrCoCu/NiFeCrCoCu_30000/NiFeCrCoCu_332/NiFeCrCoCu_332_fcc_30163_temp.data (written by ASE) 

30163 	 atoms 
5  atom types
0.0                     123  xlo xhi
0.0                     123  ylo yhi
0.0                     123  zlo zhi


Atoms 

     1   1      1.7850000000000039      58.905000000000001      60.690000000000005
     2   1      1.7850000000000039      60.690000000000005      58.905000000000001
     3   1  7.1054273576010019e-15      60.690000000000005      60.690000000000005
     4   1      1.7850000000000039      60.690000000000005      62.475000000000001
     5   1      1.7850000000000039      62.475000000000001      60.690000000000005
     6   1      5.3550000000000049      55.335000000000008      60.690000000000005
     7   1      3.5700000000000078      58.905000000000001      58.905000000000001
     8   1      5.3550000000000049      57.120000000000012      58.905000000000001
     9   1      5.3550000000000049      58.905000000000001      57.120000000000012
    10   1      3.5700000000000078      57.120000000000012      60.690000000000005
    11   1      3.5700000000000078      58.905000000000001      62.475000000000001
    12   1      5.3550000000000049      57.120000000000012      62.475000000000001
    13   1      5.3550000000000049      58.905000000000001      60.690000000000005
    14   1      5.3550000000000049      58.905000000000001      64.260000000000019
    15   1      5.3550000000000049      60.690000000000005      55.335000000000008
    16   1      3.5700000000000078      60.690000000000005      57.120000000000012
    17   1      3.5700000000000078      62.475000000000001      58.905000000000001
    18   1      5.3550000000000049      60.690000000000005      58.905000000000001
    19   1      5.3550000000000049      62.475000000000001      57.120000000000012
    20   1      3.5700000000000078      60.690000000000005      60.690000000000005
    21   1      3.5700000000000078      62.475000000000001      62.475000000000001
    22   1      5.3550000000000049      60.690000000000005      62.475000000000001
    23   1      5.3550000000000049      62.475000000000001      60.690000000000005
    24   1      3.5700000000000078      60.690000000000005      64.260000000000019
    25   1      5.3550000000000049      60.690000000000005      66.045000000000002
    26   1      5.3550000000000049      62.475000000000001      64.260000000000019
    27   1      5.3550000000000049      64.260000000000019      58.905000000000001
    28   1      3.5700000000000078      64.260000000000019      60.690000000000005
    29   1      5.3550000000000049      64.260000000000019      62.475000000000001
    30   1      5.3550000000000049      66.045000000000002      60.690000000000005
    31   1      8.9250000000000043      51.765000000000008      60.690000000000005
    32   1      7.1400000000000077      55.335000000000008      58.905000000000001
    33   1      8.9250000000000043      53.550000000000004      58.905000000000001
    34   1      8.9250000000000043      55.335000000000008      57.120000000000012
    35   1      7.1400000000000077      53.550000000000004      60.690000000000005
    36   1      7.1400000000000077      55.335000000000008      62.475000000000001
    37   1      8.9250000000000043      53.550000000000004      62.475000000000001
    38   1      8.9250000000000043      55.335000000000008      60.690000000000005
    39   1      8.9250000000000043      55.335000000000008      64.260000000000019
    40   1      7.1400000000000077      58.905000000000001      55.335000000000008
    41   1      8.9250000000000043      57.120000000000012      55.335000000000008
    42   1      8.9250000000000043      58.905000000000001      53.550000000000004
    43   1      7.1400000000000077      57.120000000000012      57.120000000000012
    44   1      7.1400000000000077      58.905000000000001      58.905000000000001
    45   1      8.9250000000000043      57.120000000000012      58.905000000000001
    46   1      8.9250000000000043      58.905000000000001      57.120000000000012
    47   1      7.1400000000000077      57.120000000000012      60.690000000000005
    48   1      7.1400000000000077      58.905000000000001      62.475000000000001
    49   1      8.9250000000000043      57.120000000000012      62.475000000000001
    50   1      8.9250000000000043      58.905000000000001      60.690000000000005
    51   1      7.1400000000000077      57.120000000000012      64.260000000000019
    52   1      7.1400000000000077      58.905000000000001      66.045000000000002
    53   1      8.9250000000000043      57.120000000000012      66.045000000000002
    54   1      8.9250000000000043      58.905000000000001      64.260000000000019
    55   1      8.9250000000000043      58.905000000000001      67.830000000000013
    56   1      8.9250000000000043      60.690000000000005      51.765000000000008
    57   1      7.1400000000000077      60.690000000000005      53.550000000000004
    58   1      7.1400000000000077      62.475000000000001      55.335000000000008
    59   1      8.9250000000000043      60.690000000000005      55.335000000000008
    60   1      8.9250000000000043      62.475000000000001      53.550000000000004
    61   1      7.1400000000000077      60.690000000000005      57.120000000000012
    62   1      7.1400000000000077      62.475000000000001      58.905000000000001
    63   1      8.9250000000000043      60.690000000000005      58.905000000000001
    64   1      8.9250000000000043      62.475000000000001      57.120000000000012
    65   1      7.1400000000000077      60.690000000000005      60.690000000000005
    66   1      7.1400000000000077      62.475000000000001      62.475000000000001
    67   1      8.9250000000000043      60.690000000000005      62.475000000000001
    68   1      8.9250000000000043      62.475000000000001      60.690000000000005
    69   1      7.1400000000000077      60.690000000000005      64.260000000000019
    70   1      7.1400000000000077      62.475000000000001      66.045000000000002
    71   1      8.9250000000000043      60.690000000000005      66.045000000000002
    72   1      8.9250000000000043      62.475000000000001      64.260000000000019
    73   1      7.1400000000000077      60.690000000000005      67.830000000000013
    74   1      8.9250000000000043      60.690000000000005      69.615000000000009
    75   1      8.9250000000000043      62.475000000000001      67.830000000000013
    76   1      8.9250000000000043      64.260000000000019      55.335000000000008
    77   1      7.1400000000000077      64.260000000000019      57.120000000000012
    78   1      7.1400000000000077      66.045000000000002      58.905000000000001
    79   1      8.9250000000000043      64.260000000000019      58.905000000000001
    80   1      8.9250000000000043      66.045000000000002      57.120000000000012
    81   1      7.1400000000000077      64.260000000000019      60.690000000000005
    82   1      7.1400000000000077      66.045000000000002      62.475000000000001
    83   1      8.9250000000000043      64.260000000000019      62.475000000000001
    84   1      8.9250000000000043      66.045000000000002      60.690000000000005
    85   1      7.1400000000000077      64.260000000000019      64.260000000000019
    86   1      8.9250000000000043      64.260000000000019      66.045000000000002
    87   1      8.9250000000000043      66.045000000000002      64.260000000000019
    88   1      8.9250000000000043      67.830000000000013      58.905000000000001
    89   1      7.1400000000000077      67.830000000000013      60.690000000000005
    90   1      8.9250000000000043      67.830000000000013      62.475000000000001
    91   1      8.9250000000000043      69.615000000000009      60.690000000000005
    92   1      12.495000000000006      48.195000000000007      60.690000000000005
    93   1       10.71000000000001      51.765000000000008      58.905000000000001
    94   1      12.495000000000006      49.980000000000011      58.905000000000001
    95   1      12.495000000000006      51.765000000000008      57.120000000000012
    96   1       10.71000000000001      49.980000000000011      60.690000000000005
    97   1       10.71000000000001      51.765000000000008      62.475000000000001
    98   1      12.495000000000006      49.980000000000011      62.475000000000001
    99   1      12.495000000000006      51.765000000000008      60.690000000000005
   100   1      12.495000000000006      51.765000000000008      64.260000000000019
   101   1       10.71000000000001      55.335000000000008      55.335000000000008
   102   1      12.495000000000006      53.550000000000004      55.335000000000008
   103   1      12.495000000000006      55.335000000000008      53.550000000000004
   104   1       10.71000000000001      53.550000000000004      57.120000000000012
   105   1       10.71000000000001      55.335000000000008      58.905000000000001
   106   1      12.495000000000006      53.550000000000004      58.905000000000001
   107   1      12.495000000000006      55.335000000000008      57.120000000000012
   108   1       10.71000000000001      53.550000000000004      60.690000000000005
   109   1       10.71000000000001      55.335000000000008      62.475000000000001
   110   1      12.495000000000006      53.550000000000004      62.475000000000001
   111   1      12.495000000000006      55.335000000000008      60.690000000000005
   112   1       10.71000000000001      53.550000000000004      64.260000000000019
   113   1       10.71000000000001      55.335000000000008      66.045000000000002
   114   1      12.495000000000006      53.550000000000004      66.045000000000002
   115   1      12.495000000000006      55.335000000000008      64.260000000000019
   116   1      12.495000000000006      55.335000000000008      67.830000000000013
   117   1       10.71000000000001      58.905000000000001      51.765000000000008
   118   1      12.495000000000006      57.120000000000012      51.765000000000008
   119   1      12.495000000000006      58.905000000000001      49.980000000000011
   120   1       10.71000000000001      57.120000000000012      53.550000000000004
   121   1       10.71000000000001      58.905000000000001      55.335000000000008
   122   1      12.495000000000006      57.120000000000012      55.335000000000008
   123   1      12.495000000000006      58.905000000000001      53.550000000000004
   124   1       10.71000000000001      57.120000000000012      57.120000000000012
   125   1       10.71000000000001      58.905000000000001      58.905000000000001
   126   1      12.495000000000006      57.120000000000012      58.905000000000001
   127   1      12.495000000000006      58.905000000000001      57.120000000000012
   128   1       10.71000000000001      57.120000000000012      60.690000000000005
   129   1       10.71000000000001      58.905000000000001      62.475000000000001
   130   1      12.495000000000006      57.120000000000012      62.475000000000001
   131   1      12.495000000000006      58.905000000000001      60.690000000000005
   132   1       10.71000000000001      57.120000000000012      64.260000000000019
   133   1       10.71000000000001      58.905000000000001      66.045000000000002
   134   1      12.495000000000006      57.120000000000012      66.045000000000002
   135   1      12.495000000000006      58.905000000000001      64.260000000000019
   136   1       10.71000000000001      57.120000000000012      67.830000000000013
   137   1       10.71000000000001      58.905000000000001      69.615000000000009
   138   1      12.495000000000006      57.120000000000012      69.615000000000009
   139   1      12.495000000000006      58.905000000000001      67.830000000000013
   140   1      12.495000000000006      58.905000000000001      71.400000000000006
   141   1      12.495000000000006      60.690000000000005      48.195000000000007
   142   1       10.71000000000001      60.690000000000005      49.980000000000011
   143   1       10.71000000000001      62.475000000000001      51.765000000000008
   144   1      12.495000000000006      60.690000000000005      51.765000000000008
   145   1      12.495000000000006      62.475000000000001      49.980000000000011
   146   1       10.71000000000001      60.690000000000005      53.550000000000004
   147   1       10.71000000000001      62.475000000000001      55.335000000000008
   148   1      12.495000000000006      60.690000000000005      55.335000000000008
   149   1      12.495000000000006      62.475000000000001      53.550000000000004
   150   1       10.71000000000001      60.690000000000005      57.120000000000012
   151   1       10.71000000000001      62.475000000000001      58.905000000000001
   152   1      12.495000000000006      60.690000000000005      58.905000000000001
   153   1      12.495000000000006      62.475000000000001      57.120000000000012
   154   1       10.71000000000001      60.690000000000005      60.690000000000005
   155   1       10.71000000000001      62.475000000000001      62.475000000000001
   156   1      12.495000000000006      60.690000000000005      62.475000000000001
   157   1      12.495000000000006      62.475000000000001      60.690000000000005
   158   1       10.71000000000001      60.690000000000005      64.260000000000019
   159   1       10.71000000000001      62.475000000000001      66.045000000000002
   160   1      12.495000000000006      60.690000000000005      66.045000000000002
   161   1      12.495000000000006      62.475000000000001      64.260000000000019
   162   1       10.71000000000001      60.690000000000005      67.830000000000013
   163   1       10.71000000000001      62.475000000000001      69.615000000000009
   164   1      12.495000000000006      60.690000000000005      69.615000000000009
   165   1      12.495000000000006      62.475000000000001      67.830000000000013
   166   1       10.71000000000001      60.690000000000005      71.400000000000006
   167   1      12.495000000000006      60.690000000000005      73.185000000000016
   168   1      12.495000000000006      62.475000000000001      71.400000000000006
   169   1      12.495000000000006      64.260000000000019      51.765000000000008
   170   1       10.71000000000001      64.260000000000019      53.550000000000004
   171   1       10.71000000000001      66.045000000000002      55.335000000000008
   172   1      12.495000000000006      64.260000000000019      55.335000000000008
   173   1      12.495000000000006      66.045000000000002      53.550000000000004
   174   1       10.71000000000001      64.260000000000019      57.120000000000012
   175   1       10.71000000000001      66.045000000000002      58.905000000000001
   176   1      12.495000000000006      64.260000000000019      58.905000000000001
   177   1      12.495000000000006      66.045000000000002      57.120000000000012
   178   1       10.71000000000001      64.260000000000019      60.690000000000005
   179   1       10.71000000000001      66.045000000000002      62.475000000000001
   180   1      12.495000000000006      64.260000000000019      62.475000000000001
   181   1      12.495000000000006      66.045000000000002      60.690000000000005
   182   1       10.71000000000001      64.260000000000019      64.260000000000019
   183   1       10.71000000000001      66.045000000000002      66.045000000000002
   184   1      12.495000000000006      64.260000000000019      66.045000000000002
   185   1      12.495000000000006      66.045000000000002      64.260000000000019
   186   1       10.71000000000001      64.260000000000019      67.830000000000013
   187   1      12.495000000000006      64.260000000000019      69.615000000000009
   188   1      12.495000000000006      66.045000000000002      67.830000000000013
   189   1      12.495000000000006      67.830000000000013      55.335000000000008
   190   1       10.71000000000001      67.830000000000013      57.120000000000012
   191   1       10.71000000000001      69.615000000000009      58.905000000000001
   192   1      12.495000000000006      67.830000000000013      58.905000000000001
   193   1      12.495000000000006      69.615000000000009      57.120000000000012
   194   1       10.71000000000001      67.830000000000013      60.690000000000005
   195   1       10.71000000000001      69.615000000000009      62.475000000000001
   196   1      12.495000000000006      67.830000000000013      62.475000000000001
   197   1      12.495000000000006      69.615000000000009      60.690000000000005
   198   1       10.71000000000001      67.830000000000013      64.260000000000019
   199   1      12.495000000000006      67.830000000000013      66.045000000000002
   200   1      12.495000000000006      69.615000000000009      64.260000000000019
   201   1      12.495000000000006      71.400000000000006      58.905000000000001
   202   1       10.71000000000001      71.400000000000006      60.690000000000005
   203   1      12.495000000000006      71.400000000000006      62.475000000000001
   204   1      12.495000000000006      73.185000000000016      60.690000000000005
   205   1      16.065000000000008      44.625000000000007      60.690000000000005
   206   1      14.280000000000003      48.195000000000007      58.905000000000001
   207   1      16.065000000000008      46.410000000000004      58.905000000000001
   208   1      16.065000000000008      48.195000000000007      57.120000000000012
   209   1      14.280000000000003      46.410000000000004      60.690000000000005
   210   1      14.280000000000003      48.195000000000007      62.475000000000001
   211   1      16.065000000000008      46.410000000000004      62.475000000000001
   212   1      16.065000000000008      48.195000000000007      60.690000000000005
   213   1      16.065000000000008      48.195000000000007      64.260000000000019
   214   1      14.280000000000003      51.765000000000008      55.335000000000008
   215   1      16.065000000000008      49.980000000000011      55.335000000000008
   216   1      16.065000000000008      51.765000000000008      53.550000000000004
   217   1      14.280000000000003      49.980000000000011      57.120000000000012
   218   1      14.280000000000003      51.765000000000008      58.905000000000001
   219   1      16.065000000000008      49.980000000000011      58.905000000000001
   220   1      16.065000000000008      51.765000000000008      57.120000000000012
   221   1      14.280000000000003      49.980000000000011      60.690000000000005
   222   1      14.280000000000003      51.765000000000008      62.475000000000001
   223   1      16.065000000000008      49.980000000000011      62.475000000000001
   224   1      16.065000000000008      51.765000000000008      60.690000000000005
   225   1      14.280000000000003      49.980000000000011      64.260000000000019
   226   1      14.280000000000003      51.765000000000008      66.045000000000002
   227   1      16.065000000000008      49.980000000000011      66.045000000000002
   228   1      16.065000000000008      51.765000000000008      64.260000000000019
   229   1      16.065000000000008      51.765000000000008      67.830000000000013
   230   1      14.280000000000003      55.335000000000008      51.765000000000008
   231   1      16.065000000000008      53.550000000000004      51.765000000000008
   232   1      16.065000000000008      55.335000000000008      49.980000000000011
   233   1      14.280000000000003      53.550000000000004      53.550000000000004
   234   1      14.280000000000003      55.335000000000008      55.335000000000008
   235   1      16.065000000000008      53.550000000000004      55.335000000000008
   236   1      16.065000000000008      55.335000000000008      53.550000000000004
   237   1      14.280000000000003      53.550000000000004      57.120000000000012
   238   1      14.280000000000003      55.335000000000008      58.905000000000001
   239   1      16.065000000000008      53.550000000000004      58.905000000000001
   240   1      16.065000000000008      55.335000000000008      57.120000000000012
   241   1      14.280000000000003      53.550000000000004      60.690000000000005
   242   1      14.280000000000003      55.335000000000008      62.475000000000001
   243   1      16.065000000000008      53.550000000000004      62.475000000000001
   244   1      16.065000000000008      55.335000000000008      60.690000000000005
   245   1      14.280000000000003      53.550000000000004      64.260000000000019
   246   1      14.280000000000003      55.335000000000008      66.045000000000002
   247   1      16.065000000000008      53.550000000000004      66.045000000000002
   248   1      16.065000000000008      55.335000000000008      64.260000000000019
   249   1      14.280000000000003      53.550000000000004      67.830000000000013
   250   1      14.280000000000003      55.335000000000008      69.615000000000009
   251   1      16.065000000000008      53.550000000000004      69.615000000000009
   252   1      16.065000000000008      55.335000000000008      67.830000000000013
   253   1      16.065000000000008      55.335000000000008      71.400000000000006
   254   1      14.280000000000003      58.905000000000001      48.195000000000007
   255   1      16.065000000000008      57.120000000000012      48.195000000000007
   256   1      16.065000000000008      58.905000000000001      46.410000000000004
   257   1      14.280000000000003      57.120000000000012      49.980000000000011
   258   1      14.280000000000003      58.905000000000001      51.765000000000008
   259   1      16.065000000000008      57.120000000000012      51.765000000000008
   260   1      16.065000000000008      58.905000000000001      49.980000000000011
   261   1      14.280000000000003      57.120000000000012      53.550000000000004
   262   1      14.280000000000003      58.905000000000001      55.335000000000008
   263   1      16.065000000000008      57.120000000000012      55.335000000000008
   264   1      16.065000000000008      58.905000000000001      53.550000000000004
   265   1      14.280000000000003      57.120000000000012      57.120000000000012
   266   1      14.280000000000003      58.905000000000001      58.905000000000001
   267   1      16.065000000000008      57.120000000000012      58.905000000000001
   268   1      16.065000000000008      58.905000000000001      57.120000000000012
   269   1      14.280000000000003      57.120000000000012      60.690000000000005
   270   1      14.280000000000003      58.905000000000001      62.475000000000001
   271   1      16.065000000000008      57.120000000000012      62.475000000000001
   272   1      16.065000000000008      58.905000000000001      60.690000000000005
   273   1      14.280000000000003      57.120000000000012      64.260000000000019
   274   1      14.280000000000003      58.905000000000001      66.045000000000002
   275   1      16.065000000000008      57.120000000000012      66.045000000000002
   276   1      16.065000000000008      58.905000000000001      64.260000000000019
   277   1      14.280000000000003      57.120000000000012      67.830000000000013
   278   1      14.280000000000003      58.905000000000001      69.615000000000009
   279   1      16.065000000000008      57.120000000000012      69.615000000000009
   280   1      16.065000000000008      58.905000000000001      67.830000000000013
   281   1      14.280000000000003      57.120000000000012      71.400000000000006
   282   1      14.280000000000003      58.905000000000001      73.185000000000016
   283   1      16.065000000000008      57.120000000000012      73.185000000000016
   284   1      16.065000000000008      58.905000000000001      71.400000000000006
   285   1      16.065000000000008      58.905000000000001      74.970000000000013
   286   1      16.065000000000008      60.690000000000005      44.625000000000007
   287   1      14.280000000000003      60.690000000000005      46.410000000000004
   288   1      14.280000000000003      62.475000000000001      48.195000000000007
   289   1      16.065000000000008      60.690000000000005      48.195000000000007
   290   1      16.065000000000008      62.475000000000001      46.410000000000004
   291   1      14.280000000000003      60.690000000000005      49.980000000000011
   292   1      14.280000000000003      62.475000000000001      51.765000000000008
   293   1      16.065000000000008      60.690000000000005      51.765000000000008
   294   1      16.065000000000008      62.475000000000001      49.980000000000011
   295   1      14.280000000000003      60.690000000000005      53.550000000000004
   296   1      14.280000000000003      62.475000000000001      55.335000000000008
   297   1      16.065000000000008      60.690000000000005      55.335000000000008
   298   1      16.065000000000008      62.475000000000001      53.550000000000004
   299   1      14.280000000000003      60.690000000000005      57.120000000000012
   300   1      14.280000000000003      62.475000000000001      58.905000000000001
   301   1      16.065000000000008      60.690000000000005      58.905000000000001
   302   1      16.065000000000008      62.475000000000001      57.120000000000012
   303   1      14.280000000000003      60.690000000000005      60.690000000000005
   304   1      14.280000000000003      62.475000000000001      62.475000000000001
   305   1      16.065000000000008      60.690000000000005      62.475000000000001
   306   1      16.065000000000008      62.475000000000001      60.690000000000005
   307   1      14.280000000000003      60.690000000000005      64.260000000000019
   308   1      14.280000000000003      62.475000000000001      66.045000000000002
   309   1      16.065000000000008      60.690000000000005      66.045000000000002
   310   1      16.065000000000008      62.475000000000001      64.260000000000019
   311   1      14.280000000000003      60.690000000000005      67.830000000000013
   312   1      14.280000000000003      62.475000000000001      69.615000000000009
   313   1      16.065000000000008      60.690000000000005      69.615000000000009
   314   1      16.065000000000008      62.475000000000001      67.830000000000013
   315   1      14.280000000000003      60.690000000000005      71.400000000000006
   316   1      14.280000000000003      62.475000000000001      73.185000000000016
   317   1      16.065000000000008      60.690000000000005      73.185000000000016
   318   1      16.065000000000008      62.475000000000001      71.400000000000006
   319   1      14.280000000000003      60.690000000000005      74.970000000000013
   320   1      16.065000000000008      60.690000000000005      76.754999999999995
   321   1      16.065000000000008      62.475000000000001      74.970000000000013
   322   1      16.065000000000008      64.260000000000019      48.195000000000007
   323   1      14.280000000000003      64.260000000000019      49.980000000000011
   324   1      14.280000000000003      66.045000000000002      51.765000000000008
   325   1      16.065000000000008      64.260000000000019      51.765000000000008
   326   1      16.065000000000008      66.045000000000002      49.980000000000011
   327   1      14.280000000000003      64.260000000000019      53.550000000000004
   328   1      14.280000000000003      66.045000000000002      55.335000000000008
   329   1      16.065000000000008      64.260000000000019      55.335000000000008
   330   1      16.065000000000008      66.045000000000002      53.550000000000004
   331   1      14.280000000000003      64.260000000000019      57.120000000000012
   332   1      14.280000000000003      66.045000000000002      58.905000000000001
   333   1      16.065000000000008      64.260000000000019      58.905000000000001
   334   1      16.065000000000008      66.045000000000002      57.120000000000012
   335   1      14.280000000000003      64.260000000000019      60.690000000000005
   336   1      14.280000000000003      66.045000000000002      62.475000000000001
   337   1      16.065000000000008      64.260000000000019      62.475000000000001
   338   1      16.065000000000008      66.045000000000002      60.690000000000005
   339   1      14.280000000000003      64.260000000000019      64.260000000000019
   340   1      14.280000000000003      66.045000000000002      66.045000000000002
   341   1      16.065000000000008      64.260000000000019      66.045000000000002
   342   1      16.065000000000008      66.045000000000002      64.260000000000019
   343   1      14.280000000000003      64.260000000000019      67.830000000000013
   344   1      14.280000000000003      66.045000000000002      69.615000000000009
   345   1      16.065000000000008      64.260000000000019      69.615000000000009
   346   1      16.065000000000008      66.045000000000002      67.830000000000013
   347   1      14.280000000000003      64.260000000000019      71.400000000000006
   348   1      16.065000000000008      64.260000000000019      73.185000000000016
   349   1      16.065000000000008      66.045000000000002      71.400000000000006
   350   1      16.065000000000008      67.830000000000013      51.765000000000008
   351   1      14.280000000000003      67.830000000000013      53.550000000000004
   352   1      14.280000000000003      69.615000000000009      55.335000000000008
   353   1      16.065000000000008      67.830000000000013      55.335000000000008
   354   1      16.065000000000008      69.615000000000009      53.550000000000004
   355   1      14.280000000000003      67.830000000000013      57.120000000000012
   356   1      14.280000000000003      69.615000000000009      58.905000000000001
   357   1      16.065000000000008      67.830000000000013      58.905000000000001
   358   1      16.065000000000008      69.615000000000009      57.120000000000012