model_files/NiCoCrFeMn/NiCoCrFeMn_30000/NiCoCrFeMn_321/NiCoCrFeMn_321_fcc_29817_temp.data (written by ASE) 

29817 	 atoms 
5  atom types
0.0                     100  xlo xhi
0.0                     100  ylo yhi
0.0                     100  zlo zhi


Atoms 

     1   1      1.7974999999999994                 44.9375      50.330000000000005
     2   1                       0      48.532500000000006      48.532500000000006
     3   1      1.7974999999999994      46.735000000000007      48.532500000000006
     4   1      1.7974999999999994      48.532500000000006      46.735000000000007
     5   1                       0      48.532500000000006      52.127500000000005
     6   1      1.7974999999999994      46.735000000000007      52.127500000000005
     7   1      1.7974999999999994      48.532500000000006      50.330000000000005
     8   1      1.7974999999999994      48.532500000000006      53.924999999999997
     9   1      1.7974999999999994      50.330000000000005                 44.9375
    10   1                       0      52.127500000000005      48.532500000000006
    11   1      1.7974999999999994      50.330000000000005      48.532500000000006
    12   1      1.7974999999999994      52.127500000000005      46.735000000000007
    13   1                       0      50.330000000000005      50.330000000000005
    14   1                       0      52.127500000000005      52.127500000000005
    15   1      1.7974999999999994      50.330000000000005      52.127500000000005
    16   1      1.7974999999999994      52.127500000000005      50.330000000000005
    17   1      1.7974999999999994      50.330000000000005      55.722500000000011
    18   1      1.7974999999999994      52.127500000000005      53.924999999999997
    19   1      1.7974999999999994      53.924999999999997      48.532500000000006
    20   1      1.7974999999999994      53.924999999999997      52.127500000000005
    21   1      1.7974999999999994      55.722500000000011      50.330000000000005
    22   1      5.3925000000000054      41.342500000000001      46.735000000000007
    23   1      5.3925000000000054      41.342500000000001      50.330000000000005
    24   1      5.3925000000000054      41.342500000000001      53.924999999999997
    25   1      3.5949999999999989                 44.9375                 44.9375
    26   1      5.3925000000000054      43.140000000000001                 44.9375
    27   1      5.3925000000000054                 44.9375      43.140000000000001
    28   1      3.5949999999999989                 44.9375      48.532500000000006
    29   1      5.3925000000000054      43.140000000000001      48.532500000000006
    30   1      5.3925000000000054                 44.9375      46.735000000000007
    31   1      3.5949999999999989      43.140000000000001      50.330000000000005
    32   1      3.5949999999999989                 44.9375      52.127500000000005
    33   1      5.3925000000000054      43.140000000000001      52.127500000000005
    34   1      5.3925000000000054                 44.9375      50.330000000000005
    35   1      3.5949999999999989                 44.9375      55.722500000000011
    36   1      5.3925000000000054      43.140000000000001      55.722500000000011
    37   1      5.3925000000000054                 44.9375      53.924999999999997
    38   1      5.3925000000000054                 44.9375      57.520000000000003
    39   1      5.3925000000000054      46.735000000000007      41.342500000000001
    40   1      3.5949999999999989      48.532500000000006                 44.9375
    41   1      5.3925000000000054      46.735000000000007                 44.9375
    42   1      5.3925000000000054      48.532500000000006      43.140000000000001
    43   1      3.5949999999999989      46.735000000000007      46.735000000000007
    44   1      3.5949999999999989      48.532500000000006      48.532500000000006
    45   1      5.3925000000000054      46.735000000000007      48.532500000000006
    46   1      5.3925000000000054      48.532500000000006      46.735000000000007
    47   1      3.5949999999999989      46.735000000000007      50.330000000000005
    48   1      3.5949999999999989      48.532500000000006      52.127500000000005
    49   1      5.3925000000000054      46.735000000000007      52.127500000000005
    50   1      5.3925000000000054      48.532500000000006      50.330000000000005
    51   1      3.5949999999999989      46.735000000000007      53.924999999999997
    52   1      3.5949999999999989      48.532500000000006      55.722500000000011
    53   1      5.3925000000000054      46.735000000000007      55.722500000000011
    54   1      5.3925000000000054      48.532500000000006      53.924999999999997
    55   1      5.3925000000000054      46.735000000000007      59.317500000000003
    56   1      5.3925000000000054      48.532500000000006      57.520000000000003
    57   1      5.3925000000000054      50.330000000000005      41.342500000000001
    58   1      3.5949999999999989      50.330000000000005      43.140000000000001
    59   1      3.5949999999999989      52.127500000000005                 44.9375
    60   1      5.3925000000000054      50.330000000000005                 44.9375
    61   1      5.3925000000000054      52.127500000000005      43.140000000000001
    62   1      3.5949999999999989      50.330000000000005      46.735000000000007
    63   1      3.5949999999999989      52.127500000000005      48.532500000000006
    64   1      5.3925000000000054      50.330000000000005      48.532500000000006
    65   1      5.3925000000000054      52.127500000000005      46.735000000000007
    66   1      3.5949999999999989      50.330000000000005      50.330000000000005
    67   1      3.5949999999999989      52.127500000000005      52.127500000000005
    68   1      5.3925000000000054      50.330000000000005      52.127500000000005
    69   1      5.3925000000000054      52.127500000000005      50.330000000000005
    70   1      3.5949999999999989      50.330000000000005      53.924999999999997
    71   1      3.5949999999999989      52.127500000000005      55.722500000000011
    72   1      5.3925000000000054      50.330000000000005      55.722500000000011
    73   1      5.3925000000000054      52.127500000000005      53.924999999999997
    74   1      3.5949999999999989      50.330000000000005      57.520000000000003
    75   1      5.3925000000000054      50.330000000000005      59.317500000000003
    76   1      5.3925000000000054      52.127500000000005      57.520000000000003
    77   1      5.3925000000000054      53.924999999999997      41.342500000000001
    78   1      3.5949999999999989      55.722500000000011                 44.9375
    79   1      5.3925000000000054      53.924999999999997                 44.9375
    80   1      5.3925000000000054      55.722500000000011      43.140000000000001
    81   1      3.5949999999999989      53.924999999999997      46.735000000000007
    82   1      3.5949999999999989      55.722500000000011      48.532500000000006
    83   1      5.3925000000000054      53.924999999999997      48.532500000000006
    84   1      5.3925000000000054      55.722500000000011      46.735000000000007
    85   1      3.5949999999999989      53.924999999999997      50.330000000000005
    86   1      3.5949999999999989      55.722500000000011      52.127500000000005
    87   1      5.3925000000000054      53.924999999999997      52.127500000000005
    88   1      5.3925000000000054      55.722500000000011      50.330000000000005
    89   1      3.5949999999999989      53.924999999999997      53.924999999999997
    90   1      3.5949999999999989      55.722500000000011      55.722500000000011
    91   1      5.3925000000000054      53.924999999999997      55.722500000000011
    92   1      5.3925000000000054      55.722500000000011      53.924999999999997
    93   1      5.3925000000000054      53.924999999999997      59.317500000000003
    94   1      5.3925000000000054      55.722500000000011      57.520000000000003
    95   1      5.3925000000000054      57.520000000000003                 44.9375
    96   1      5.3925000000000054      57.520000000000003      48.532500000000006
    97   1      5.3925000000000054      59.317500000000003      46.735000000000007
    98   1      3.5949999999999989      57.520000000000003      50.330000000000005
    99   1      5.3925000000000054      57.520000000000003      52.127500000000005
   100   1      5.3925000000000054      59.317500000000003      50.330000000000005
   101   1      5.3925000000000054      57.520000000000003      55.722500000000011
   102   1      5.3925000000000054      59.317500000000003      53.924999999999997
   103   1      8.9875000000000043      34.152500000000003      50.330000000000005
   104   1      8.9875000000000043      37.747500000000002      43.140000000000001
   105   1      7.1900000000000048      37.747500000000002      48.532500000000006
   106   1      8.9875000000000043      35.950000000000003      48.532500000000006
   107   1      8.9875000000000043      37.747500000000002      46.735000000000007
   108   1      7.1900000000000048      37.747500000000002      52.127500000000005
   109   1      8.9875000000000043      35.950000000000003      52.127500000000005
   110   1      8.9875000000000043      37.747500000000002      50.330000000000005
   111   1      8.9875000000000043      37.747500000000002      53.924999999999997
   112   1      8.9875000000000043      37.747500000000002      57.520000000000003
   113   1      7.1900000000000048      41.342500000000001      41.342500000000001
   114   1      8.9875000000000043      39.545000000000002      41.342500000000001
   115   1      8.9875000000000043      41.342500000000001      39.545000000000002
   116   1      7.1900000000000048      41.342500000000001                 44.9375
   117   1      8.9875000000000043      39.545000000000002                 44.9375
   118   1      8.9875000000000043      41.342500000000001      43.140000000000001
   119   1      7.1900000000000048      39.545000000000002      46.735000000000007
   120   1      7.1900000000000048      41.342500000000001      48.532500000000006
   121   1      8.9875000000000043      39.545000000000002      48.532500000000006
   122   1      8.9875000000000043      41.342500000000001      46.735000000000007
   123   1      7.1900000000000048      39.545000000000002      50.330000000000005
   124   1      7.1900000000000048      41.342500000000001      52.127500000000005
   125   1      8.9875000000000043      39.545000000000002      52.127500000000005
   126   1      8.9875000000000043      41.342500000000001      50.330000000000005
   127   1      7.1900000000000048      39.545000000000002      53.924999999999997
   128   1      7.1900000000000048      41.342500000000001      55.722500000000011
   129   1      8.9875000000000043      39.545000000000002      55.722500000000011
   130   1      8.9875000000000043      41.342500000000001      53.924999999999997
   131   1      7.1900000000000048      41.342500000000001      59.317500000000003
   132   1      8.9875000000000043      39.545000000000002      59.317500000000003
   133   1      8.9875000000000043      41.342500000000001      57.520000000000003
   134   1      8.9875000000000043      41.342500000000001      61.115000000000009
   135   1      8.9875000000000043      43.140000000000001      37.747500000000002
   136   1      7.1900000000000048                 44.9375      41.342500000000001
   137   1      8.9875000000000043      43.140000000000001      41.342500000000001
   138   1      8.9875000000000043                 44.9375      39.545000000000002
   139   1      7.1900000000000048      43.140000000000001      43.140000000000001
   140   1      7.1900000000000048                 44.9375                 44.9375
   141   1      8.9875000000000043      43.140000000000001                 44.9375
   142   1      8.9875000000000043                 44.9375      43.140000000000001
   143   1      7.1900000000000048      43.140000000000001      46.735000000000007
   144   1      7.1900000000000048                 44.9375      48.532500000000006
   145   1      8.9875000000000043      43.140000000000001      48.532500000000006
   146   1      8.9875000000000043                 44.9375      46.735000000000007
   147   1      7.1900000000000048      43.140000000000001      50.330000000000005
   148   1      7.1900000000000048                 44.9375      52.127500000000005
   149   1      8.9875000000000043      43.140000000000001      52.127500000000005
   150   1      8.9875000000000043                 44.9375      50.330000000000005
   151   1      7.1900000000000048      43.140000000000001      53.924999999999997
   152   1      7.1900000000000048                 44.9375      55.722500000000011
   153   1      8.9875000000000043      43.140000000000001      55.722500000000011
   154   1      8.9875000000000043                 44.9375      53.924999999999997
   155   1      7.1900000000000048      43.140000000000001      57.520000000000003
   156   1      7.1900000000000048                 44.9375      59.317500000000003
   157   1      8.9875000000000043      43.140000000000001      59.317500000000003
   158   1      8.9875000000000043                 44.9375      57.520000000000003
   159   1      8.9875000000000043      43.140000000000001      62.912500000000001
   160   1      8.9875000000000043                 44.9375      61.115000000000009
   161   1      7.1900000000000048      48.532500000000006      37.747500000000002
   162   1      8.9875000000000043      46.735000000000007      37.747500000000002
   163   1      8.9875000000000043      48.532500000000006      35.950000000000003
   164   1      7.1900000000000048      46.735000000000007      39.545000000000002
   165   1      7.1900000000000048      48.532500000000006      41.342500000000001
   166   1      8.9875000000000043      46.735000000000007      41.342500000000001
   167   1      8.9875000000000043      48.532500000000006      39.545000000000002
   168   1      7.1900000000000048      46.735000000000007      43.140000000000001
   169   1      7.1900000000000048      48.532500000000006                 44.9375
   170   1      8.9875000000000043      46.735000000000007                 44.9375
   171   1      8.9875000000000043      48.532500000000006      43.140000000000001
   172   1      7.1900000000000048      46.735000000000007      46.735000000000007
   173   1      7.1900000000000048      48.532500000000006      48.532500000000006
   174   1      8.9875000000000043      46.735000000000007      48.532500000000006
   175   1      8.9875000000000043      48.532500000000006      46.735000000000007
   176   1      7.1900000000000048      46.735000000000007      50.330000000000005
   177   1      7.1900000000000048      48.532500000000006      52.127500000000005
   178   1      8.9875000000000043      46.735000000000007      52.127500000000005
   179   1      8.9875000000000043      48.532500000000006      50.330000000000005
   180   1      7.1900000000000048      46.735000000000007      53.924999999999997
   181   1      7.1900000000000048      48.532500000000006      55.722500000000011
   182   1      8.9875000000000043      46.735000000000007      55.722500000000011
   183   1      8.9875000000000043      48.532500000000006      53.924999999999997
   184   1      7.1900000000000048      46.735000000000007      57.520000000000003
   185   1      7.1900000000000048      48.532500000000006      59.317500000000003
   186   1      8.9875000000000043      46.735000000000007      59.317500000000003
   187   1      8.9875000000000043      48.532500000000006      57.520000000000003
   188   1      7.1900000000000048      46.735000000000007      61.115000000000009
   189   1      7.1900000000000048      48.532500000000006      62.912500000000001
   190   1      8.9875000000000043      46.735000000000007      62.912500000000001
   191   1      8.9875000000000043      48.532500000000006      61.115000000000009
   192   1      8.9875000000000043      48.532500000000006      64.710000000000008
   193   1      8.9875000000000043      50.330000000000005      34.152500000000003
   194   1      7.1900000000000048      52.127500000000005      37.747500000000002
   195   1      8.9875000000000043      50.330000000000005      37.747500000000002
   196   1      8.9875000000000043      52.127500000000005      35.950000000000003
   197   1      7.1900000000000048      50.330000000000005      39.545000000000002
   198   1      7.1900000000000048      52.127500000000005      41.342500000000001
   199   1      8.9875000000000043      50.330000000000005      41.342500000000001
   200   1      8.9875000000000043      52.127500000000005      39.545000000000002
   201   1      7.1900000000000048      50.330000000000005      43.140000000000001
   202   1      7.1900000000000048      52.127500000000005                 44.9375
   203   1      8.9875000000000043      50.330000000000005                 44.9375
   204   1      8.9875000000000043      52.127500000000005      43.140000000000001
   205   1      7.1900000000000048      50.330000000000005      46.735000000000007
   206   1      7.1900000000000048      52.127500000000005      48.532500000000006
   207   1      8.9875000000000043      50.330000000000005      48.532500000000006
   208   1      8.9875000000000043      52.127500000000005      46.735000000000007
   209   1      7.1900000000000048      50.330000000000005      50.330000000000005
   210   1      7.1900000000000048      52.127500000000005      52.127500000000005
   211   1      8.9875000000000043      50.330000000000005      52.127500000000005
   212   1      8.9875000000000043      52.127500000000005      50.330000000000005
   213   1      7.1900000000000048      50.330000000000005      53.924999999999997
   214   1      7.1900000000000048      52.127500000000005      55.722500000000011
   215   1      8.9875000000000043      50.330000000000005      55.722500000000011
   216   1      8.9875000000000043      52.127500000000005      53.924999999999997
   217   1      7.1900000000000048      50.330000000000005      57.520000000000003
   218   1      7.1900000000000048      52.127500000000005      59.317500000000003
   219   1      8.9875000000000043      50.330000000000005      59.317500000000003
   220   1      8.9875000000000043      52.127500000000005      57.520000000000003
   221   1      7.1900000000000048      50.330000000000005      61.115000000000009
   222   1      7.1900000000000048      52.127500000000005      62.912500000000001
   223   1      8.9875000000000043      50.330000000000005      62.912500000000001
   224   1      8.9875000000000043      52.127500000000005      61.115000000000009
   225   1      8.9875000000000043      50.330000000000005      66.507500000000007
   226   1      8.9875000000000043      52.127500000000005      64.710000000000008
   227   1      8.9875000000000043      53.924999999999997      37.747500000000002
   228   1      7.1900000000000048      53.924999999999997      39.545000000000002
   229   1      7.1900000000000048      55.722500000000011      41.342500000000001
   230   1      8.9875000000000043      53.924999999999997      41.342500000000001
   231   1      8.9875000000000043      55.722500000000011      39.545000000000002
   232   1      7.1900000000000048      53.924999999999997      43.140000000000001
   233   1      7.1900000000000048      55.722500000000011                 44.9375
   234   1      8.9875000000000043      53.924999999999997                 44.9375
   235   1      8.9875000000000043      55.722500000000011      43.140000000000001
   236   1      7.1900000000000048      53.924999999999997      46.735000000000007
   237   1      7.1900000000000048      55.722500000000011      48.532500000000006
   238   1      8.9875000000000043      53.924999999999997      48.532500000000006
   239   1      8.9875000000000043      55.722500000000011      46.735000000000007
   240   1      7.1900000000000048      53.924999999999997      50.330000000000005
   241   1      7.1900000000000048      55.722500000000011      52.127500000000005
   242   1      8.9875000000000043      53.924999999999997      52.127500000000005
   243   1      8.9875000000000043      55.722500000000011      50.330000000000005
   244   1      7.1900000000000048      53.924999999999997      53.924999999999997
   245   1      7.1900000000000048      55.722500000000011      55.722500000000011
   246   1      8.9875000000000043      53.924999999999997      55.722500000000011
   247   1      8.9875000000000043      55.722500000000011      53.924999999999997
   248   1      7.1900000000000048      53.924999999999997      57.520000000000003
   249   1      7.1900000000000048      55.722500000000011      59.317500000000003
   250   1      8.9875000000000043      53.924999999999997      59.317500000000003
   251   1      8.9875000000000043      55.722500000000011      57.520000000000003
   252   1      7.1900000000000048      53.924999999999997      61.115000000000009
   253   1      8.9875000000000043      53.924999999999997      62.912500000000001
   254   1      8.9875000000000043      55.722500000000011      61.115000000000009
   255   1      8.9875000000000043      57.520000000000003      37.747500000000002
   256   1      7.1900000000000048      59.317500000000003      41.342500000000001
   257   1      8.9875000000000043      57.520000000000003      41.342500000000001
   258   1      8.9875000000000043      59.317500000000003      39.545000000000002
   259   1      7.1900000000000048      57.520000000000003      43.140000000000001
   260   1      7.1900000000000048      59.317500000000003                 44.9375
   261   1      8.9875000000000043      57.520000000000003                 44.9375
   262   1      8.9875000000000043      59.317500000000003      43.140000000000001
   263   1      7.1900000000000048      57.520000000000003      46.735000000000007
   264   1      7.1900000000000048      59.317500000000003      48.532500000000006
   265   1      8.9875000000000043      57.520000000000003      48.532500000000006
   266   1      8.9875000000000043      59.317500000000003      46.735000000000007
   267   1      7.1900000000000048      57.520000000000003      50.330000000000005
   268   1      7.1900000000000048      59.317500000000003      52.127500000000005
   269   1      8.9875000000000043      57.520000000000003      52.127500000000005
   270   1      8.9875000000000043      59.317500000000003      50.330000000000005
   271   1      7.1900000000000048      57.520000000000003      53.924999999999997
   272   1      7.1900000000000048      59.317500000000003      55.722500000000011
   273   1      8.9875000000000043      57.520000000000003      55.722500000000011
   274   1      8.9875000000000043      59.317500000000003      53.924999999999997
   275   1      7.1900000000000048      57.520000000000003      57.520000000000003
   276   1      7.1900000000000048      59.317500000000003      59.317500000000003
   277   1      8.9875000000000043      57.520000000000003      59.317500000000003
   278   1      8.9875000000000043      59.317500000000003      57.520000000000003
   279   1      8.9875000000000043      57.520000000000003      62.912500000000001
   280   1      8.9875000000000043      59.317500000000003      61.115000000000009
   281   1      8.9875000000000043      61.115000000000009      41.342500000000001
   282   1      8.9875000000000043      61.115000000000009                 44.9375
   283   1      8.9875000000000043      62.912500000000001      43.140000000000001
   284   1      7.1900000000000048      61.115000000000009      46.735000000000007
   285   1      7.1900000000000048      62.912500000000001      48.532500000000006
   286   1      8.9875000000000043      61.115000000000009      48.532500000000006
   287   1      8.9875000000000043      62.912500000000001      46.735000000000007
   288   1      7.1900000000000048      61.115000000000009      50.330000000000005
   289   1      7.1900000000000048      62.912500000000001      52.127500000000005
   290   1      8.9875000000000043      61.115000000000009      52.127500000000005
   291   1      8.9875000000000043      62.912500000000001      50.330000000000005
   292   1      7.1900000000000048      61.115000000000009      53.924999999999997
   293   1      8.9875000000000043      61.115000000000009      55.722500000000011
   294   1      8.9875000000000043      62.912500000000001      53.924999999999997
   295   1      8.9875000000000043      61.115000000000009      59.317500000000003
   296   1      8.9875000000000043      62.912500000000001      57.520000000000003
   297   1      8.9875000000000043      64.710000000000008      48.532500000000006
   298   1      8.9875000000000043      64.710000000000008      52.127500000000005
   299   1      8.9875000000000043      66.507500000000007      50.330000000000005
   300   1      12.582500000000001      30.557500000000005      46.735000000000007
   301   1      12.582500000000001      30.557500000000005      50.330000000000005
   302   1      12.582500000000001      30.557500000000005      53.924999999999997
   303   1      12.582500000000001      34.152500000000003      39.545000000000002
   304   1      10.785000000000004      34.152500000000003                 44.9375
   305   1      12.582500000000001      32.355000000000004                 44.9375
   306   1      12.582500000000001      34.152500000000003      43.140000000000001
   307   1      10.785000000000004      34.152500000000003      48.532500000000006
   308   1      12.582500000000001      32.355000000000004      48.532500000000006
   309   1      12.582500000000001      34.152500000000003      46.735000000000007
   310   1      10.785000000000004      32.355000000000004      50.330000000000005
   311   1      10.785000000000004      34.152500000000003      52.127500000000005
   312   1      12.582500000000001      32.355000000000004      52.127500000000005
   313   1      12.582500000000001      34.152500000000003      50.330000000000005
   314   1      10.785000000000004      34.152500000000003      55.722500000000011
   315   1      12.582500000000001      32.355000000000004      55.722500000000011
   316   1      12.582500000000001      34.152500000000003      53.924999999999997
   317   1      12.582500000000001      34.152500000000003      57.520000000000003
   318   1      12.582500000000001      34.152500000000003      61.115000000000009
   319   1      10.785000000000004      37.747500000000002      37.747500000000002
   320   1      12.582500000000001      35.950000000000003      37.747500000000002
   321   1      12.582500000000001      37.747500000000002      35.950000000000003
   322   1      10.785000000000004      37.747500000000002      41.342500000000001
   323   1      12.582500000000001      35.950000000000003      41.342500000000001
   324   1      12.582500000000001      37.747500000000002      39.545000000000002
   325   1      10.785000000000004      35.950000000000003      43.140000000000001
   326   1      10.785000000000004      37.747500000000002                 44.9375
   327   1      12.582500000000001      35.950000000000003                 44.9375
   328   1      12.582500000000001      37.747500000000002      43.140000000000001
   329   1      10.785000000000004      35.950000000000003      46.735000000000007
   330   1      10.785000000000004      37.747500000000002      48.532500000000006
   331   1      12.582500000000001      35.950000000000003      48.532500000000006
   332   1      12.582500000000001      37.747500000000002      46.735000000000007
   333   1      10.785000000000004      35.950000000000003      50.330000000000005
   334   1      10.785000000000004      37.747500000000002      52.127500000000005
   335   1      12.582500000000001      35.950000000000003      52.127500000000005
   336   1      12.582500000000001      37.747500000000002      50.330000000000005
   337   1      10.785000000000004      35.950000000000003      53.924999999999997
   338   1      10.785000000000004      37.747500000000002      55.722500000000011
   339   1      12.582500000000001      35.950000000000003      55.722500000000011
   340   1      12.582500000000001      37.747500000000002      53.924999999999997
   341   1      10.785000000000004      35.950000000000003      57.520000000000003
   342   1      10.785000000000004      37.747500000000002      59.317500000000003
   343   1      12.582500000000001      35.950000000000003      59.317500000000003
   344   1      12.582500000000001      37.747500000000002      57.520000000000003
   345   1      10.785000000000004      37.747500000000002      62.912500000000001
   346   1      12.582500000000001      35.950000000000003      62.912500000000001
   347   1      12.582500000000001      37.747500000000002      61.115000000000009
   348   1      12.582500000000001      37.747500000000002      64.710000000000008
   349   1      12.582500000000001      39.545000000000002      34.152500000000003
   350   1      10.785000000000004      41.342500000000001      37.747500000000002
   351   1      12.582500000000001      39.545000000000002      37.747500000000002
   352   1      12.582500000000001      41.342500000000001      35.950000000000003
   353   1      10.785000000000004      39.545000000000002      39.545000000000002
   354   1      10.785000000000004      41.342500000000001      41.342500000000001
   355   1      12.582500000000001      39.545000000000002      41.342500000000001
   356   1      12.582500000000001      41.342500000000001      39.545000000000002
   357   1      10.785000000000004      39.545000000000002      43.140000000000001
   358   1      10.785000000000004      41.342500000000001                 44.9375