model_files/Fe/Fe_30000/Fe_110/data.Fe_110_bcc_31263 (written by ASE) 

31263 	 atoms 
1  atom types
0.0                      86  xlo xhi
0.0                      86  ylo yhi
0.0                      86  zlo zhi


Atoms 

     1   1      85.999999999999986      41.614999999999995      41.614999999999995
     2   1      1.4349999999999952      40.179999999999993      41.614999999999995
     3   1      1.4349999999999952      41.614999999999995      40.179999999999993
     4   1      85.999999999999986      41.614999999999995      44.484999999999992
     5   1      1.4349999999999952      40.179999999999993      44.484999999999992
     6   1      1.4349999999999952      41.614999999999995       43.04999999999999
     7   1      1.4349999999999952      41.614999999999995      45.919999999999987
     8   1      85.999999999999986      44.484999999999992      41.614999999999995
     9   1      1.4349999999999952       43.04999999999999      41.614999999999995
    10   1      1.4349999999999952      44.484999999999992      40.179999999999993
    11   1      85.999999999999986       43.04999999999999       43.04999999999999
    12   1      85.999999999999986      44.484999999999992      44.484999999999992
    13   1      1.4349999999999952       43.04999999999999      44.484999999999992
    14   1      1.4349999999999952      44.484999999999992       43.04999999999999
    15   1      1.4349999999999952      44.484999999999992      45.919999999999987
    16   1      1.4349999999999952      45.919999999999987      41.614999999999995
    17   1      1.4349999999999952      45.919999999999987      44.484999999999992
    18   1      2.8699999999999974       38.74499999999999       38.74499999999999
    19   1      4.3049999999999926      37.309999999999988       38.74499999999999
    20   1      4.3049999999999926       38.74499999999999      37.309999999999988
    21   1      2.8699999999999974       38.74499999999999      41.614999999999995
    22   1      4.3049999999999926      37.309999999999988      41.614999999999995
    23   1      4.3049999999999926       38.74499999999999      40.179999999999993
    24   1      2.8699999999999974       38.74499999999999      44.484999999999992
    25   1      4.3049999999999926      37.309999999999988      44.484999999999992
    26   1      4.3049999999999926       38.74499999999999       43.04999999999999
    27   1      2.8699999999999974       38.74499999999999      47.354999999999983
    28   1      4.3049999999999926      37.309999999999988      47.354999999999983
    29   1      4.3049999999999926       38.74499999999999      45.919999999999987
    30   1      4.3049999999999926       38.74499999999999      48.789999999999992
    31   1      2.8699999999999974      41.614999999999995       38.74499999999999
    32   1      4.3049999999999926      40.179999999999993       38.74499999999999
    33   1      4.3049999999999926      41.614999999999995      37.309999999999988
    34   1      2.8699999999999974      40.179999999999993      40.179999999999993
    35   1      2.8699999999999974      41.614999999999995      41.614999999999995
    36   1      4.3049999999999926      40.179999999999993      41.614999999999995
    37   1      4.3049999999999926      41.614999999999995      40.179999999999993
    38   1      2.8699999999999974      40.179999999999993       43.04999999999999
    39   1      2.8699999999999974      41.614999999999995      44.484999999999992
    40   1      4.3049999999999926      40.179999999999993      44.484999999999992
    41   1      4.3049999999999926      41.614999999999995       43.04999999999999
    42   1      2.8699999999999974      40.179999999999993      45.919999999999987
    43   1      2.8699999999999974      41.614999999999995      47.354999999999983
    44   1      4.3049999999999926      40.179999999999993      47.354999999999983
    45   1      4.3049999999999926      41.614999999999995      45.919999999999987
    46   1      4.3049999999999926      41.614999999999995      48.789999999999992
    47   1      2.8699999999999974      44.484999999999992       38.74499999999999
    48   1      4.3049999999999926       43.04999999999999       38.74499999999999
    49   1      4.3049999999999926      44.484999999999992      37.309999999999988
    50   1      2.8699999999999974       43.04999999999999      40.179999999999993
    51   1      2.8699999999999974      44.484999999999992      41.614999999999995
    52   1      4.3049999999999926       43.04999999999999      41.614999999999995
    53   1      4.3049999999999926      44.484999999999992      40.179999999999993
    54   1      2.8699999999999974       43.04999999999999       43.04999999999999
    55   1      2.8699999999999974      44.484999999999992      44.484999999999992
    56   1      4.3049999999999926       43.04999999999999      44.484999999999992
    57   1      4.3049999999999926      44.484999999999992       43.04999999999999
    58   1      2.8699999999999974       43.04999999999999      45.919999999999987
    59   1      2.8699999999999974      44.484999999999992      47.354999999999983
    60   1      4.3049999999999926       43.04999999999999      47.354999999999983
    61   1      4.3049999999999926      44.484999999999992      45.919999999999987
    62   1      4.3049999999999926      44.484999999999992      48.789999999999992
    63   1      2.8699999999999974      47.354999999999983       38.74499999999999
    64   1      4.3049999999999926      45.919999999999987       38.74499999999999
    65   1      4.3049999999999926      47.354999999999983      37.309999999999988
    66   1      2.8699999999999974      45.919999999999987      40.179999999999993
    67   1      2.8699999999999974      47.354999999999983      41.614999999999995
    68   1      4.3049999999999926      45.919999999999987      41.614999999999995
    69   1      4.3049999999999926      47.354999999999983      40.179999999999993
    70   1      2.8699999999999974      45.919999999999987       43.04999999999999
    71   1      2.8699999999999974      47.354999999999983      44.484999999999992
    72   1      4.3049999999999926      45.919999999999987      44.484999999999992
    73   1      4.3049999999999926      47.354999999999983       43.04999999999999
    74   1      2.8699999999999974      45.919999999999987      45.919999999999987
    75   1      2.8699999999999974      47.354999999999983      47.354999999999983
    76   1      4.3049999999999926      45.919999999999987      47.354999999999983
    77   1      4.3049999999999926      47.354999999999983      45.919999999999987
    78   1      4.3049999999999926      47.354999999999983      48.789999999999992
    79   1      4.3049999999999926      48.789999999999992       38.74499999999999
    80   1      4.3049999999999926      48.789999999999992      41.614999999999995
    81   1      4.3049999999999926      48.789999999999992      44.484999999999992
    82   1      4.3049999999999926      48.789999999999992      47.354999999999983
    83   1      5.7399999999999949      35.874999999999993      35.874999999999993
    84   1      7.1749999999999972      34.439999999999991      35.874999999999993
    85   1      7.1749999999999972      35.874999999999993      34.439999999999991
    86   1      5.7399999999999949      35.874999999999993       38.74499999999999
    87   1      7.1749999999999972      34.439999999999991       38.74499999999999
    88   1      7.1749999999999972      35.874999999999993      37.309999999999988
    89   1      5.7399999999999949      35.874999999999993      41.614999999999995
    90   1      7.1749999999999972      34.439999999999991      41.614999999999995
    91   1      7.1749999999999972      35.874999999999993      40.179999999999993
    92   1      5.7399999999999949      35.874999999999993      44.484999999999992
    93   1      7.1749999999999972      34.439999999999991      44.484999999999992
    94   1      7.1749999999999972      35.874999999999993       43.04999999999999
    95   1      5.7399999999999949      35.874999999999993      47.354999999999983
    96   1      7.1749999999999972      34.439999999999991      47.354999999999983
    97   1      7.1749999999999972      35.874999999999993      45.919999999999987
    98   1      5.7399999999999949      35.874999999999993      50.224999999999994
    99   1      7.1749999999999972      34.439999999999991      50.224999999999994
   100   1      7.1749999999999972      35.874999999999993      48.789999999999992
   101   1      7.1749999999999972      35.874999999999993      51.659999999999989
   102   1      5.7399999999999949       38.74499999999999      35.874999999999993
   103   1      7.1749999999999972      37.309999999999988      35.874999999999993
   104   1      7.1749999999999972       38.74499999999999      34.439999999999991
   105   1      5.7399999999999949      37.309999999999988      37.309999999999988
   106   1      5.7399999999999949       38.74499999999999       38.74499999999999
   107   1      7.1749999999999972      37.309999999999988       38.74499999999999
   108   1      7.1749999999999972       38.74499999999999      37.309999999999988
   109   1      5.7399999999999949      37.309999999999988      40.179999999999993
   110   1      5.7399999999999949       38.74499999999999      41.614999999999995
   111   1      7.1749999999999972      37.309999999999988      41.614999999999995
   112   1      7.1749999999999972       38.74499999999999      40.179999999999993
   113   1      5.7399999999999949      37.309999999999988       43.04999999999999
   114   1      5.7399999999999949       38.74499999999999      44.484999999999992
   115   1      7.1749999999999972      37.309999999999988      44.484999999999992
   116   1      7.1749999999999972       38.74499999999999       43.04999999999999
   117   1      5.7399999999999949      37.309999999999988      45.919999999999987
   118   1      5.7399999999999949       38.74499999999999      47.354999999999983
   119   1      7.1749999999999972      37.309999999999988      47.354999999999983
   120   1      7.1749999999999972       38.74499999999999      45.919999999999987
   121   1      5.7399999999999949      37.309999999999988      48.789999999999992
   122   1      5.7399999999999949       38.74499999999999      50.224999999999994
   123   1      7.1749999999999972      37.309999999999988      50.224999999999994
   124   1      7.1749999999999972       38.74499999999999      48.789999999999992
   125   1      7.1749999999999972       38.74499999999999      51.659999999999989
   126   1      5.7399999999999949      41.614999999999995      35.874999999999993
   127   1      7.1749999999999972      40.179999999999993      35.874999999999993
   128   1      7.1749999999999972      41.614999999999995      34.439999999999991
   129   1      5.7399999999999949      40.179999999999993      37.309999999999988
   130   1      5.7399999999999949      41.614999999999995       38.74499999999999
   131   1      7.1749999999999972      40.179999999999993       38.74499999999999
   132   1      7.1749999999999972      41.614999999999995      37.309999999999988
   133   1      5.7399999999999949      40.179999999999993      40.179999999999993
   134   1      5.7399999999999949      41.614999999999995      41.614999999999995
   135   1      7.1749999999999972      40.179999999999993      41.614999999999995
   136   1      7.1749999999999972      41.614999999999995      40.179999999999993
   137   1      5.7399999999999949      40.179999999999993       43.04999999999999
   138   1      5.7399999999999949      41.614999999999995      44.484999999999992
   139   1      7.1749999999999972      40.179999999999993      44.484999999999992
   140   1      7.1749999999999972      41.614999999999995       43.04999999999999
   141   1      5.7399999999999949      40.179999999999993      45.919999999999987
   142   1      5.7399999999999949      41.614999999999995      47.354999999999983
   143   1      7.1749999999999972      40.179999999999993      47.354999999999983
   144   1      7.1749999999999972      41.614999999999995      45.919999999999987
   145   1      5.7399999999999949      40.179999999999993      48.789999999999992
   146   1      5.7399999999999949      41.614999999999995      50.224999999999994
   147   1      7.1749999999999972      40.179999999999993      50.224999999999994
   148   1      7.1749999999999972      41.614999999999995      48.789999999999992
   149   1      7.1749999999999972      41.614999999999995      51.659999999999989
   150   1      5.7399999999999949      44.484999999999992      35.874999999999993
   151   1      7.1749999999999972       43.04999999999999      35.874999999999993
   152   1      7.1749999999999972      44.484999999999992      34.439999999999991
   153   1      5.7399999999999949       43.04999999999999      37.309999999999988
   154   1      5.7399999999999949      44.484999999999992       38.74499999999999
   155   1      7.1749999999999972       43.04999999999999       38.74499999999999
   156   1      7.1749999999999972      44.484999999999992      37.309999999999988
   157   1      5.7399999999999949       43.04999999999999      40.179999999999993
   158   1      5.7399999999999949      44.484999999999992      41.614999999999995
   159   1      7.1749999999999972       43.04999999999999      41.614999999999995
   160   1      7.1749999999999972      44.484999999999992      40.179999999999993
   161   1      5.7399999999999949       43.04999999999999       43.04999999999999
   162   1      5.7399999999999949      44.484999999999992      44.484999999999992
   163   1      7.1749999999999972       43.04999999999999      44.484999999999992
   164   1      7.1749999999999972      44.484999999999992       43.04999999999999
   165   1      5.7399999999999949       43.04999999999999      45.919999999999987
   166   1      5.7399999999999949      44.484999999999992      47.354999999999983
   167   1      7.1749999999999972       43.04999999999999      47.354999999999983
   168   1      7.1749999999999972      44.484999999999992      45.919999999999987
   169   1      5.7399999999999949       43.04999999999999      48.789999999999992
   170   1      5.7399999999999949      44.484999999999992      50.224999999999994
   171   1      7.1749999999999972       43.04999999999999      50.224999999999994
   172   1      7.1749999999999972      44.484999999999992      48.789999999999992
   173   1      7.1749999999999972      44.484999999999992      51.659999999999989
   174   1      5.7399999999999949      47.354999999999983      35.874999999999993
   175   1      7.1749999999999972      45.919999999999987      35.874999999999993
   176   1      7.1749999999999972      47.354999999999983      34.439999999999991
   177   1      5.7399999999999949      45.919999999999987      37.309999999999988
   178   1      5.7399999999999949      47.354999999999983       38.74499999999999
   179   1      7.1749999999999972      45.919999999999987       38.74499999999999
   180   1      7.1749999999999972      47.354999999999983      37.309999999999988
   181   1      5.7399999999999949      45.919999999999987      40.179999999999993
   182   1      5.7399999999999949      47.354999999999983      41.614999999999995
   183   1      7.1749999999999972      45.919999999999987      41.614999999999995
   184   1      7.1749999999999972      47.354999999999983      40.179999999999993
   185   1      5.7399999999999949      45.919999999999987       43.04999999999999
   186   1      5.7399999999999949      47.354999999999983      44.484999999999992
   187   1      7.1749999999999972      45.919999999999987      44.484999999999992
   188   1      7.1749999999999972      47.354999999999983       43.04999999999999
   189   1      5.7399999999999949      45.919999999999987      45.919999999999987
   190   1      5.7399999999999949      47.354999999999983      47.354999999999983
   191   1      7.1749999999999972      45.919999999999987      47.354999999999983
   192   1      7.1749999999999972      47.354999999999983      45.919999999999987
   193   1      5.7399999999999949      45.919999999999987      48.789999999999992
   194   1      5.7399999999999949      47.354999999999983      50.224999999999994
   195   1      7.1749999999999972      45.919999999999987      50.224999999999994
   196   1      7.1749999999999972      47.354999999999983      48.789999999999992
   197   1      7.1749999999999972      47.354999999999983      51.659999999999989
   198   1      5.7399999999999949      50.224999999999994      35.874999999999993
   199   1      7.1749999999999972      48.789999999999992      35.874999999999993
   200   1      7.1749999999999972      50.224999999999994      34.439999999999991
   201   1      5.7399999999999949      48.789999999999992      37.309999999999988
   202   1      5.7399999999999949      50.224999999999994       38.74499999999999
   203   1      7.1749999999999972      48.789999999999992       38.74499999999999
   204   1      7.1749999999999972      50.224999999999994      37.309999999999988
   205   1      5.7399999999999949      48.789999999999992      40.179999999999993
   206   1      5.7399999999999949      50.224999999999994      41.614999999999995
   207   1      7.1749999999999972      48.789999999999992      41.614999999999995
   208   1      7.1749999999999972      50.224999999999994      40.179999999999993
   209   1      5.7399999999999949      48.789999999999992       43.04999999999999
   210   1      5.7399999999999949      50.224999999999994      44.484999999999992
   211   1      7.1749999999999972      48.789999999999992      44.484999999999992
   212   1      7.1749999999999972      50.224999999999994       43.04999999999999
   213   1      5.7399999999999949      48.789999999999992      45.919999999999987
   214   1      5.7399999999999949      50.224999999999994      47.354999999999983
   215   1      7.1749999999999972      48.789999999999992      47.354999999999983
   216   1      7.1749999999999972      50.224999999999994      45.919999999999987
   217   1      5.7399999999999949      48.789999999999992      48.789999999999992
   218   1      5.7399999999999949      50.224999999999994      50.224999999999994
   219   1      7.1749999999999972      48.789999999999992      50.224999999999994
   220   1      7.1749999999999972      50.224999999999994      48.789999999999992
   221   1      7.1749999999999972      50.224999999999994      51.659999999999989
   222   1      7.1749999999999972      51.659999999999989      35.874999999999993
   223   1      7.1749999999999972      51.659999999999989       38.74499999999999
   224   1      7.1749999999999972      51.659999999999989      41.614999999999995
   225   1      7.1749999999999972      51.659999999999989      44.484999999999992
   226   1      7.1749999999999972      51.659999999999989      47.354999999999983
   227   1      7.1749999999999972      51.659999999999989      50.224999999999994
   228   1      8.6099999999999923      33.004999999999995      33.004999999999995
   229   1      10.044999999999995      31.569999999999993      33.004999999999995
   230   1      10.044999999999995      33.004999999999995      31.569999999999993
   231   1      8.6099999999999923      33.004999999999995      35.874999999999993
   232   1      10.044999999999995      31.569999999999993      35.874999999999993
   233   1      10.044999999999995      33.004999999999995      34.439999999999991
   234   1      8.6099999999999923      33.004999999999995       38.74499999999999
   235   1      10.044999999999995      31.569999999999993       38.74499999999999
   236   1      10.044999999999995      33.004999999999995      37.309999999999988
   237   1      8.6099999999999923      33.004999999999995      41.614999999999995
   238   1      10.044999999999995      31.569999999999993      41.614999999999995
   239   1      10.044999999999995      33.004999999999995      40.179999999999993
   240   1      8.6099999999999923      33.004999999999995      44.484999999999992
   241   1      10.044999999999995      31.569999999999993      44.484999999999992
   242   1      10.044999999999995      33.004999999999995       43.04999999999999
   243   1      8.6099999999999923      33.004999999999995      47.354999999999983
   244   1      10.044999999999995      31.569999999999993      47.354999999999983
   245   1      10.044999999999995      33.004999999999995      45.919999999999987
   246   1      8.6099999999999923      33.004999999999995      50.224999999999994
   247   1      10.044999999999995      31.569999999999993      50.224999999999994
   248   1      10.044999999999995      33.004999999999995      48.789999999999992
   249   1      8.6099999999999923      33.004999999999995      53.094999999999985
   250   1      10.044999999999995      31.569999999999993      53.094999999999985
   251   1      10.044999999999995      33.004999999999995      51.659999999999989
   252   1      10.044999999999995      33.004999999999995      54.529999999999987
   253   1      8.6099999999999923      35.874999999999993      33.004999999999995
   254   1      10.044999999999995      34.439999999999991      33.004999999999995
   255   1      10.044999999999995      35.874999999999993      31.569999999999993
   256   1      8.6099999999999923      34.439999999999991      34.439999999999991
   257   1      8.6099999999999923      35.874999999999993      35.874999999999993
   258   1      10.044999999999995      34.439999999999991      35.874999999999993
   259   1      10.044999999999995      35.874999999999993      34.439999999999991
   260   1      8.6099999999999923      34.439999999999991      37.309999999999988
   261   1      8.6099999999999923      35.874999999999993       38.74499999999999
   262   1      10.044999999999995      34.439999999999991       38.74499999999999
   263   1      10.044999999999995      35.874999999999993      37.309999999999988
   264   1      8.6099999999999923      34.439999999999991      40.179999999999993
   265   1      8.6099999999999923      35.874999999999993      41.614999999999995
   266   1      10.044999999999995      34.439999999999991      41.614999999999995
   267   1      10.044999999999995      35.874999999999993      40.179999999999993
   268   1      8.6099999999999923      34.439999999999991       43.04999999999999
   269   1      8.6099999999999923      35.874999999999993      44.484999999999992
   270   1      10.044999999999995      34.439999999999991      44.484999999999992
   271   1      10.044999999999995      35.874999999999993       43.04999999999999
   272   1      8.6099999999999923      34.439999999999991      45.919999999999987
   273   1      8.6099999999999923      35.874999999999993      47.354999999999983
   274   1      10.044999999999995      34.439999999999991      47.354999999999983
   275   1      10.044999999999995      35.874999999999993      45.919999999999987
   276   1      8.6099999999999923      34.439999999999991      48.789999999999992
   277   1      8.6099999999999923      35.874999999999993      50.224999999999994
   278   1      10.044999999999995      34.439999999999991      50.224999999999994
   279   1      10.044999999999995      35.874999999999993      48.789999999999992
   280   1      8.6099999999999923      34.439999999999991      51.659999999999989
   281   1      8.6099999999999923      35.874999999999993      53.094999999999985
   282   1      10.044999999999995      34.439999999999991      53.094999999999985
   283   1      10.044999999999995      35.874999999999993      51.659999999999989
   284   1      10.044999999999995      35.874999999999993      54.529999999999987
   285   1      8.6099999999999923       38.74499999999999      33.004999999999995
   286   1      10.044999999999995      37.309999999999988      33.004999999999995
   287   1      10.044999999999995       38.74499999999999      31.569999999999993
   288   1      8.6099999999999923      37.309999999999988      34.439999999999991
   289   1      8.6099999999999923       38.74499999999999      35.874999999999993
   290   1      10.044999999999995      37.309999999999988      35.874999999999993
   291   1      10.044999999999995       38.74499999999999      34.439999999999991
   292   1      8.6099999999999923      37.309999999999988      37.309999999999988
   293   1      8.6099999999999923       38.74499999999999       38.74499999999999
   294   1      10.044999999999995      37.309999999999988       38.74499999999999
   295   1      10.044999999999995       38.74499999999999      37.309999999999988
   296   1      8.6099999999999923      37.309999999999988      40.179999999999993
   297   1      8.6099999999999923       38.74499999999999      41.614999999999995
   298   1      10.044999999999995      37.309999999999988      41.614999999999995
   299   1      10.044999999999995       38.74499999999999      40.179999999999993
   300   1      8.6099999999999923      37.309999999999988       43.04999999999999
   301   1      8.6099999999999923       38.74499999999999      44.484999999999992
   302   1      10.044999999999995      37.309999999999988      44.484999999999992
   303   1      10.044999999999995       38.74499999999999       43.04999999999999
   304   1      8.6099999999999923      37.309999999999988      45.919999999999987
   305   1      8.6099999999999923       38.74499999999999      47.354999999999983
   306   1      10.044999999999995      37.309999999999988      47.354999999999983
   307   1      10.044999999999995       38.74499999999999      45.919999999999987
   308   1      8.6099999999999923      37.309999999999988      48.789999999999992
   309   1      8.6099999999999923       38.74499999999999      50.224999999999994
   310   1      10.044999999999995      37.309999999999988      50.224999999999994
   311   1      10.044999999999995       38.74499999999999      48.789999999999992
   312   1      8.6099999999999923      37.309999999999988      51.659999999999989
   313   1      8.6099999999999923       38.74499999999999      53.094999999999985
   314   1      10.044999999999995      37.309999999999988      53.094999999999985
   315   1      10.044999999999995       38.74499999999999      51.659999999999989
   316   1      10.044999999999995       38.74499999999999      54.529999999999987
   317   1      8.6099999999999923      41.614999999999995      33.004999999999995
   318   1      10.044999999999995      40.179999999999993      33.004999999999995
   319   1      10.044999999999995      41.614999999999995      31.569999999999993
   320   1      8.6099999999999923      40.179999999999993      34.439999999999991
   321   1      8.6099999999999923      41.614999999999995      35.874999999999993
   322   1      10.044999999999995      40.179999999999993      35.874999999999993
   323   1      10.044999999999995      41.614999999999995      34.439999999999991
   324   1      8.6099999999999923      40.179999999999993      37.309999999999988
   325   1      8.6099999999999923      41.614999999999995       38.74499999999999
   326   1      10.044999999999995      40.179999999999993       38.74499999999999
   327   1      10.044999999999995      41.614999999999995      37.309999999999988
   328   1      8.6099999999999923      40.179999999999993      40.179999999999993
   329   1      8.6099999999999923      41.614999999999995      41.614999999999995
   330   1      10.044999999999995      40.179999999999993      41.614999999999995
   331   1      10.044999999999995      41.614999999999995      40.179999999999993
   332   1      8.6099999999999923      40.179999999999993       43.04999999999999
   333   1      8.6099999999999923      41.614999999999995      44.484999999999992
   334   1      10.044999999999995      40.179999999999993      44.484999999999992
   335   1      10.044999999999995      41.614999999999995       43.04999999999999
   336   1      8.6099999999999923      40.179999999999993      45.919999999999987
   337   1      8.6099999999999923      41.614999999999995      47.354999999999983
   338   1      10.044999999999995      40.179999999999993      47.354999999999983
   339   1      10.044999999999995      41.614999999999995      45.919999999999987
   340   1      8.6099999999999923      40.179999999999993      48.789999999999992
   341   1      8.6099999999999923      41.614999999999995      50.224999999999994
   342   1      10.044999999999995      40.179999999999993      50.224999999999994
   343   1      10.044999999999995      41.614999999999995      48.789999999999992
   344   1      8.6099999999999923      40.179999999999993      51.659999999999989
   345   1      8.6099999999999923      41.614999999999995      53.094999999999985
   346   1      10.044999999999995      40.179999999999993      53.094999999999985
   347   1      10.044999999999995      41.614999999999995      51.659999999999989
   348   1      10.044999999999995      41.614999999999995      54.529999999999987
   349   1      8.6099999999999923      44.484999999999992      33.004999999999995
   350   1      10.044999999999995       43.04999999999999      33.004999999999995
   351   1      10.044999999999995      44.484999999999992      31.569999999999993
   352   1      8.6099999999999923       43.04999999999999      34.439999999999991
   353   1      8.6099999999999923      44.484999999999992      35.874999999999993
   354   1      10.044999999999995       43.04999999999999      35.874999999999993
   355   1      10.044999999999995      44.484999999999992      34.439999999999991
   356   1      8.6099999999999923       43.04999999999999      37.309999999999988
   357   1      8.6099999999999923      44.484999999999992       38.74499999999999
   358   1      10.044999999999995       43.04999999999999       38.74499999999999