model_files/CuAu/CuAu_30000/CuAu_322/CuAu_322_fcc_30187_temp.data (written by ASE) 

30187 	 atoms 
2  atom types
0.0                     112  xlo xhi
0.0                     112  ylo yhi
0.0                     112  zlo zhi


Atoms 

     1   1      1.8700000000000045      54.230000000000004      56.100000000000001
     2   1      1.8700000000000045      56.100000000000001      54.230000000000004
     3   1  7.1054273576010019e-15      56.100000000000001      56.100000000000001
     4   1      1.8700000000000045      56.100000000000001      57.970000000000006
     5   1      1.8700000000000045      57.970000000000006      56.100000000000001
     6   1      5.6100000000000056                   46.75      56.100000000000001
     7   1      3.7400000000000091      50.489999999999995      54.230000000000004
     8   1      5.6100000000000056      48.619999999999997      54.230000000000004
     9   1      5.6100000000000056      50.489999999999995      52.359999999999999
    10   1      3.7400000000000091      48.619999999999997      56.100000000000001
    11   1      3.7400000000000091      50.489999999999995      57.970000000000006
    12   1      5.6100000000000056      48.619999999999997      57.970000000000006
    13   1      5.6100000000000056      50.489999999999995      56.100000000000001
    14   1      5.6100000000000056      50.489999999999995      59.840000000000011
    15   1      3.7400000000000091      54.230000000000004      50.489999999999995
    16   1      5.6100000000000056      52.359999999999999      50.489999999999995
    17   1      5.6100000000000056      54.230000000000004      48.619999999999997
    18   1      3.7400000000000091      52.359999999999999      52.359999999999999
    19   1      3.7400000000000091      54.230000000000004      54.230000000000004
    20   1      5.6100000000000056      52.359999999999999      54.230000000000004
    21   1      5.6100000000000056      54.230000000000004      52.359999999999999
    22   1      3.7400000000000091      52.359999999999999      56.100000000000001
    23   1      3.7400000000000091      54.230000000000004      57.970000000000006
    24   1      5.6100000000000056      52.359999999999999      57.970000000000006
    25   1      5.6100000000000056      54.230000000000004      56.100000000000001
    26   1      3.7400000000000091      52.359999999999999      59.840000000000011
    27   1      3.7400000000000091      54.230000000000004      61.710000000000001
    28   1      5.6100000000000056      52.359999999999999      61.710000000000001
    29   1      5.6100000000000056      54.230000000000004      59.840000000000011
    30   1      5.6100000000000056      54.230000000000004      63.580000000000005
    31   1      5.6100000000000056      56.100000000000001                   46.75
    32   1      3.7400000000000091      56.100000000000001      48.619999999999997
    33   1      3.7400000000000091      57.970000000000006      50.489999999999995
    34   1      5.6100000000000056      56.100000000000001      50.489999999999995
    35   1      5.6100000000000056      57.970000000000006      48.619999999999997
    36   1      3.7400000000000091      56.100000000000001      52.359999999999999
    37   1      3.7400000000000091      57.970000000000006      54.230000000000004
    38   1      5.6100000000000056      56.100000000000001      54.230000000000004
    39   1      5.6100000000000056      57.970000000000006      52.359999999999999
    40   1      3.7400000000000091      56.100000000000001      56.100000000000001
    41   1      3.7400000000000091      57.970000000000006      57.970000000000006
    42   1      5.6100000000000056      56.100000000000001      57.970000000000006
    43   1      5.6100000000000056      57.970000000000006      56.100000000000001
    44   1      3.7400000000000091      56.100000000000001      59.840000000000011
    45   1      3.7400000000000091      57.970000000000006      61.710000000000001
    46   1      5.6100000000000056      56.100000000000001      61.710000000000001
    47   1      5.6100000000000056      57.970000000000006      59.840000000000011
    48   1      3.7400000000000091      56.100000000000001      63.580000000000005
    49   1      5.6100000000000056      56.100000000000001      65.450000000000017
    50   1      5.6100000000000056      57.970000000000006      63.580000000000005
    51   1      5.6100000000000056      59.840000000000011      50.489999999999995
    52   1      3.7400000000000091      59.840000000000011      52.359999999999999
    53   1      3.7400000000000091      61.710000000000001      54.230000000000004
    54   1      5.6100000000000056      59.840000000000011      54.230000000000004
    55   1      5.6100000000000056      61.710000000000001      52.359999999999999
    56   1      3.7400000000000091      59.840000000000011      56.100000000000001
    57   1      3.7400000000000091      61.710000000000001      57.970000000000006
    58   1      5.6100000000000056      59.840000000000011      57.970000000000006
    59   1      5.6100000000000056      61.710000000000001      56.100000000000001
    60   1      3.7400000000000091      59.840000000000011      59.840000000000011
    61   1      5.6100000000000056      59.840000000000011      61.710000000000001
    62   1      5.6100000000000056      61.710000000000001      59.840000000000011
    63   1      5.6100000000000056      63.580000000000005      54.230000000000004
    64   1      3.7400000000000091      63.580000000000005      56.100000000000001
    65   1      5.6100000000000056      63.580000000000005      57.970000000000006
    66   1      5.6100000000000056      65.450000000000017      56.100000000000001
    67   1      9.3500000000000085      43.010000000000005      56.100000000000001
    68   1       7.480000000000004                   46.75      54.230000000000004
    69   1      9.3500000000000085       44.88000000000001      54.230000000000004
    70   1      9.3500000000000085                   46.75      52.359999999999999
    71   1       7.480000000000004       44.88000000000001      56.100000000000001
    72   1       7.480000000000004                   46.75      57.970000000000006
    73   1      9.3500000000000085       44.88000000000001      57.970000000000006
    74   1      9.3500000000000085                   46.75      56.100000000000001
    75   1      9.3500000000000085                   46.75      59.840000000000011
    76   1       7.480000000000004      50.489999999999995      50.489999999999995
    77   1      9.3500000000000085      48.619999999999997      50.489999999999995
    78   1      9.3500000000000085      50.489999999999995      48.619999999999997
    79   1       7.480000000000004      48.619999999999997      52.359999999999999
    80   1       7.480000000000004      50.489999999999995      54.230000000000004
    81   1      9.3500000000000085      48.619999999999997      54.230000000000004
    82   1      9.3500000000000085      50.489999999999995      52.359999999999999
    83   1       7.480000000000004      48.619999999999997      56.100000000000001
    84   1       7.480000000000004      50.489999999999995      57.970000000000006
    85   1      9.3500000000000085      48.619999999999997      57.970000000000006
    86   1      9.3500000000000085      50.489999999999995      56.100000000000001
    87   1       7.480000000000004      48.619999999999997      59.840000000000011
    88   1       7.480000000000004      50.489999999999995      61.710000000000001
    89   1      9.3500000000000085      48.619999999999997      61.710000000000001
    90   1      9.3500000000000085      50.489999999999995      59.840000000000011
    91   1      9.3500000000000085      50.489999999999995      63.580000000000005
    92   1       7.480000000000004      54.230000000000004                   46.75
    93   1      9.3500000000000085      52.359999999999999                   46.75
    94   1      9.3500000000000085      54.230000000000004       44.88000000000001
    95   1       7.480000000000004      52.359999999999999      48.619999999999997
    96   1       7.480000000000004      54.230000000000004      50.489999999999995
    97   1      9.3500000000000085      52.359999999999999      50.489999999999995
    98   1      9.3500000000000085      54.230000000000004      48.619999999999997
    99   1       7.480000000000004      52.359999999999999      52.359999999999999
   100   1       7.480000000000004      54.230000000000004      54.230000000000004
   101   1      9.3500000000000085      52.359999999999999      54.230000000000004
   102   1      9.3500000000000085      54.230000000000004      52.359999999999999
   103   1       7.480000000000004      52.359999999999999      56.100000000000001
   104   1       7.480000000000004      54.230000000000004      57.970000000000006
   105   1      9.3500000000000085      52.359999999999999      57.970000000000006
   106   1      9.3500000000000085      54.230000000000004      56.100000000000001
   107   1       7.480000000000004      52.359999999999999      59.840000000000011
   108   1       7.480000000000004      54.230000000000004      61.710000000000001
   109   1      9.3500000000000085      52.359999999999999      61.710000000000001
   110   1      9.3500000000000085      54.230000000000004      59.840000000000011
   111   1       7.480000000000004      52.359999999999999      63.580000000000005
   112   1       7.480000000000004      54.230000000000004      65.450000000000017
   113   1      9.3500000000000085      52.359999999999999      65.450000000000017
   114   1      9.3500000000000085      54.230000000000004      63.580000000000005
   115   1      9.3500000000000085      54.230000000000004      67.320000000000007
   116   1      9.3500000000000085      56.100000000000001      43.010000000000005
   117   1       7.480000000000004      56.100000000000001       44.88000000000001
   118   1       7.480000000000004      57.970000000000006                   46.75
   119   1      9.3500000000000085      56.100000000000001                   46.75
   120   1      9.3500000000000085      57.970000000000006       44.88000000000001
   121   1       7.480000000000004      56.100000000000001      48.619999999999997
   122   1       7.480000000000004      57.970000000000006      50.489999999999995
   123   1      9.3500000000000085      56.100000000000001      50.489999999999995
   124   1      9.3500000000000085      57.970000000000006      48.619999999999997
   125   1       7.480000000000004      56.100000000000001      52.359999999999999
   126   1       7.480000000000004      57.970000000000006      54.230000000000004
   127   1      9.3500000000000085      56.100000000000001      54.230000000000004
   128   1      9.3500000000000085      57.970000000000006      52.359999999999999
   129   1       7.480000000000004      56.100000000000001      56.100000000000001
   130   1       7.480000000000004      57.970000000000006      57.970000000000006
   131   1      9.3500000000000085      56.100000000000001      57.970000000000006
   132   1      9.3500000000000085      57.970000000000006      56.100000000000001
   133   1       7.480000000000004      56.100000000000001      59.840000000000011
   134   1       7.480000000000004      57.970000000000006      61.710000000000001
   135   1      9.3500000000000085      56.100000000000001      61.710000000000001
   136   1      9.3500000000000085      57.970000000000006      59.840000000000011
   137   1       7.480000000000004      56.100000000000001      63.580000000000005
   138   1       7.480000000000004      57.970000000000006      65.450000000000017
   139   1      9.3500000000000085      56.100000000000001      65.450000000000017
   140   1      9.3500000000000085      57.970000000000006      63.580000000000005
   141   1       7.480000000000004      56.100000000000001      67.320000000000007
   142   1      9.3500000000000085      56.100000000000001      69.190000000000012
   143   1      9.3500000000000085      57.970000000000006      67.320000000000007
   144   1      9.3500000000000085      59.840000000000011                   46.75
   145   1       7.480000000000004      59.840000000000011      48.619999999999997
   146   1       7.480000000000004      61.710000000000001      50.489999999999995
   147   1      9.3500000000000085      59.840000000000011      50.489999999999995
   148   1      9.3500000000000085      61.710000000000001      48.619999999999997
   149   1       7.480000000000004      59.840000000000011      52.359999999999999
   150   1       7.480000000000004      61.710000000000001      54.230000000000004
   151   1      9.3500000000000085      59.840000000000011      54.230000000000004
   152   1      9.3500000000000085      61.710000000000001      52.359999999999999
   153   1       7.480000000000004      59.840000000000011      56.100000000000001
   154   1       7.480000000000004      61.710000000000001      57.970000000000006
   155   1      9.3500000000000085      59.840000000000011      57.970000000000006
   156   1      9.3500000000000085      61.710000000000001      56.100000000000001
   157   1       7.480000000000004      59.840000000000011      59.840000000000011
   158   1       7.480000000000004      61.710000000000001      61.710000000000001
   159   1      9.3500000000000085      59.840000000000011      61.710000000000001
   160   1      9.3500000000000085      61.710000000000001      59.840000000000011
   161   1       7.480000000000004      59.840000000000011      63.580000000000005
   162   1      9.3500000000000085      59.840000000000011      65.450000000000017
   163   1      9.3500000000000085      61.710000000000001      63.580000000000005
   164   1      9.3500000000000085      63.580000000000005      50.489999999999995
   165   1       7.480000000000004      63.580000000000005      52.359999999999999
   166   1       7.480000000000004      65.450000000000017      54.230000000000004
   167   1      9.3500000000000085      63.580000000000005      54.230000000000004
   168   1      9.3500000000000085      65.450000000000017      52.359999999999999
   169   1       7.480000000000004      63.580000000000005      56.100000000000001
   170   1       7.480000000000004      65.450000000000017      57.970000000000006
   171   1      9.3500000000000085      63.580000000000005      57.970000000000006
   172   1      9.3500000000000085      65.450000000000017      56.100000000000001
   173   1       7.480000000000004      63.580000000000005      59.840000000000011
   174   1      9.3500000000000085      63.580000000000005      61.710000000000001
   175   1      9.3500000000000085      65.450000000000017      59.840000000000011
   176   1      9.3500000000000085      67.320000000000007      54.230000000000004
   177   1       7.480000000000004      67.320000000000007      56.100000000000001
   178   1      9.3500000000000085      67.320000000000007      57.970000000000006
   179   1      9.3500000000000085      69.190000000000012      56.100000000000001
   180   1      13.090000000000002      35.530000000000008      56.100000000000001
   181   1      11.220000000000006      39.270000000000003      54.230000000000004
   182   1      13.090000000000002      37.400000000000006      54.230000000000004
   183   1      13.090000000000002      39.270000000000003      52.359999999999999
   184   1      11.220000000000006      37.400000000000006      56.100000000000001
   185   1      11.220000000000006      39.270000000000003      57.970000000000006
   186   1      13.090000000000002      37.400000000000006      57.970000000000006
   187   1      13.090000000000002      39.270000000000003      56.100000000000001
   188   1      13.090000000000002      39.270000000000003      59.840000000000011
   189   1      11.220000000000006      43.010000000000005      50.489999999999995
   190   1      13.090000000000002      41.140000000000008      50.489999999999995
   191   1      13.090000000000002      43.010000000000005      48.619999999999997
   192   1      11.220000000000006      41.140000000000008      52.359999999999999
   193   1      11.220000000000006      43.010000000000005      54.230000000000004
   194   1      13.090000000000002      41.140000000000008      54.230000000000004
   195   1      13.090000000000002      43.010000000000005      52.359999999999999
   196   1      11.220000000000006      41.140000000000008      56.100000000000001
   197   1      11.220000000000006      43.010000000000005      57.970000000000006
   198   1      13.090000000000002      41.140000000000008      57.970000000000006
   199   1      13.090000000000002      43.010000000000005      56.100000000000001
   200   1      11.220000000000006      41.140000000000008      59.840000000000011
   201   1      11.220000000000006      43.010000000000005      61.710000000000001
   202   1      13.090000000000002      41.140000000000008      61.710000000000001
   203   1      13.090000000000002      43.010000000000005      59.840000000000011
   204   1      13.090000000000002      43.010000000000005      63.580000000000005
   205   1      11.220000000000006                   46.75                   46.75
   206   1      13.090000000000002       44.88000000000001                   46.75
   207   1      13.090000000000002                   46.75       44.88000000000001
   208   1      11.220000000000006       44.88000000000001      48.619999999999997
   209   1      11.220000000000006                   46.75      50.489999999999995
   210   1      13.090000000000002       44.88000000000001      50.489999999999995
   211   1      13.090000000000002                   46.75      48.619999999999997
   212   1      11.220000000000006       44.88000000000001      52.359999999999999
   213   1      11.220000000000006                   46.75      54.230000000000004
   214   1      13.090000000000002       44.88000000000001      54.230000000000004
   215   1      13.090000000000002                   46.75      52.359999999999999
   216   1      11.220000000000006       44.88000000000001      56.100000000000001
   217   1      11.220000000000006                   46.75      57.970000000000006
   218   1      13.090000000000002       44.88000000000001      57.970000000000006
   219   1      13.090000000000002                   46.75      56.100000000000001
   220   1      11.220000000000006       44.88000000000001      59.840000000000011
   221   1      11.220000000000006                   46.75      61.710000000000001
   222   1      13.090000000000002       44.88000000000001      61.710000000000001
   223   1      13.090000000000002                   46.75      59.840000000000011
   224   1      11.220000000000006       44.88000000000001      63.580000000000005
   225   1      11.220000000000006                   46.75      65.450000000000017
   226   1      13.090000000000002       44.88000000000001      65.450000000000017
   227   1      13.090000000000002                   46.75      63.580000000000005
   228   1      13.090000000000002                   46.75      67.320000000000007
   229   1      11.220000000000006      50.489999999999995      43.010000000000005
   230   1      13.090000000000002      48.619999999999997      43.010000000000005
   231   1      13.090000000000002      50.489999999999995      41.140000000000008
   232   1      11.220000000000006      48.619999999999997       44.88000000000001
   233   1      11.220000000000006      50.489999999999995                   46.75
   234   1      13.090000000000002      48.619999999999997                   46.75
   235   1      13.090000000000002      50.489999999999995       44.88000000000001
   236   1      11.220000000000006      48.619999999999997      48.619999999999997
   237   1      11.220000000000006      50.489999999999995      50.489999999999995
   238   1      13.090000000000002      48.619999999999997      50.489999999999995
   239   1      13.090000000000002      50.489999999999995      48.619999999999997
   240   1      11.220000000000006      48.619999999999997      52.359999999999999
   241   1      11.220000000000006      50.489999999999995      54.230000000000004
   242   1      13.090000000000002      48.619999999999997      54.230000000000004
   243   1      13.090000000000002      50.489999999999995      52.359999999999999
   244   1      11.220000000000006      48.619999999999997      56.100000000000001
   245   1      11.220000000000006      50.489999999999995      57.970000000000006
   246   1      13.090000000000002      48.619999999999997      57.970000000000006
   247   1      13.090000000000002      50.489999999999995      56.100000000000001
   248   1      11.220000000000006      48.619999999999997      59.840000000000011
   249   1      11.220000000000006      50.489999999999995      61.710000000000001
   250   1      13.090000000000002      48.619999999999997      61.710000000000001
   251   1      13.090000000000002      50.489999999999995      59.840000000000011
   252   1      11.220000000000006      48.619999999999997      63.580000000000005
   253   1      11.220000000000006      50.489999999999995      65.450000000000017
   254   1      13.090000000000002      48.619999999999997      65.450000000000017
   255   1      13.090000000000002      50.489999999999995      63.580000000000005
   256   1      11.220000000000006      48.619999999999997      67.320000000000007
   257   1      11.220000000000006      50.489999999999995      69.190000000000012
   258   1      13.090000000000002      48.619999999999997      69.190000000000012
   259   1      13.090000000000002      50.489999999999995      67.320000000000007
   260   1      13.090000000000002      50.489999999999995      71.060000000000016
   261   1      11.220000000000006      54.230000000000004      39.270000000000003
   262   1      13.090000000000002      52.359999999999999      39.270000000000003
   263   1      13.090000000000002      54.230000000000004      37.400000000000006
   264   1      11.220000000000006      52.359999999999999      41.140000000000008
   265   1      11.220000000000006      54.230000000000004      43.010000000000005
   266   1      13.090000000000002      52.359999999999999      43.010000000000005
   267   1      13.090000000000002      54.230000000000004      41.140000000000008
   268   1      11.220000000000006      52.359999999999999       44.88000000000001
   269   1      11.220000000000006      54.230000000000004                   46.75
   270   1      13.090000000000002      52.359999999999999                   46.75
   271   1      13.090000000000002      54.230000000000004       44.88000000000001
   272   1      11.220000000000006      52.359999999999999      48.619999999999997
   273   1      11.220000000000006      54.230000000000004      50.489999999999995
   274   1      13.090000000000002      52.359999999999999      50.489999999999995
   275   1      13.090000000000002      54.230000000000004      48.619999999999997
   276   1      11.220000000000006      52.359999999999999      52.359999999999999
   277   1      11.220000000000006      54.230000000000004      54.230000000000004
   278   1      13.090000000000002      52.359999999999999      54.230000000000004
   279   1      13.090000000000002      54.230000000000004      52.359999999999999
   280   1      11.220000000000006      52.359999999999999      56.100000000000001
   281   1      11.220000000000006      54.230000000000004      57.970000000000006
   282   1      13.090000000000002      52.359999999999999      57.970000000000006
   283   1      13.090000000000002      54.230000000000004      56.100000000000001
   284   1      11.220000000000006      52.359999999999999      59.840000000000011
   285   1      11.220000000000006      54.230000000000004      61.710000000000001
   286   1      13.090000000000002      52.359999999999999      61.710000000000001
   287   1      13.090000000000002      54.230000000000004      59.840000000000011
   288   1      11.220000000000006      52.359999999999999      63.580000000000005
   289   1      11.220000000000006      54.230000000000004      65.450000000000017
   290   1      13.090000000000002      52.359999999999999      65.450000000000017
   291   1      13.090000000000002      54.230000000000004      63.580000000000005
   292   1      11.220000000000006      52.359999999999999      67.320000000000007
   293   1      11.220000000000006      54.230000000000004      69.190000000000012
   294   1      13.090000000000002      52.359999999999999      69.190000000000012
   295   1      13.090000000000002      54.230000000000004      67.320000000000007
   296   1      11.220000000000006      52.359999999999999      71.060000000000016
   297   1      11.220000000000006      54.230000000000004      72.930000000000021
   298   1      13.090000000000002      52.359999999999999      72.930000000000021
   299   1      13.090000000000002      54.230000000000004      71.060000000000016
   300   1      13.090000000000002      54.230000000000004      74.800000000000011
   301   1      13.090000000000002      56.100000000000001      35.530000000000008
   302   1      11.220000000000006      56.100000000000001      37.400000000000006
   303   1      11.220000000000006      57.970000000000006      39.270000000000003
   304   1      13.090000000000002      56.100000000000001      39.270000000000003
   305   1      13.090000000000002      57.970000000000006      37.400000000000006
   306   1      11.220000000000006      56.100000000000001      41.140000000000008
   307   1      11.220000000000006      57.970000000000006      43.010000000000005
   308   1      13.090000000000002      56.100000000000001      43.010000000000005
   309   1      13.090000000000002      57.970000000000006      41.140000000000008
   310   1      11.220000000000006      56.100000000000001       44.88000000000001
   311   1      11.220000000000006      57.970000000000006                   46.75
   312   1      13.090000000000002      56.100000000000001                   46.75
   313   1      13.090000000000002      57.970000000000006       44.88000000000001
   314   1      11.220000000000006      56.100000000000001      48.619999999999997
   315   1      11.220000000000006      57.970000000000006      50.489999999999995
   316   1      13.090000000000002      56.100000000000001      50.489999999999995
   317   1      13.090000000000002      57.970000000000006      48.619999999999997
   318   1      11.220000000000006      56.100000000000001      52.359999999999999
   319   1      11.220000000000006      57.970000000000006      54.230000000000004
   320   1      13.090000000000002      56.100000000000001      54.230000000000004
   321   1      13.090000000000002      57.970000000000006      52.359999999999999
   322   1      11.220000000000006      56.100000000000001      56.100000000000001
   323   1      11.220000000000006      57.970000000000006      57.970000000000006
   324   1      13.090000000000002      56.100000000000001      57.970000000000006
   325   1      13.090000000000002      57.970000000000006      56.100000000000001
   326   1      11.220000000000006      56.100000000000001      59.840000000000011
   327   1      11.220000000000006      57.970000000000006      61.710000000000001
   328   1      13.090000000000002      56.100000000000001      61.710000000000001
   329   1      13.090000000000002      57.970000000000006      59.840000000000011
   330   1      11.220000000000006      56.100000000000001      63.580000000000005
   331   1      11.220000000000006      57.970000000000006      65.450000000000017
   332   1      13.090000000000002      56.100000000000001      65.450000000000017
   333   1      13.090000000000002      57.970000000000006      63.580000000000005
   334   1      11.220000000000006      56.100000000000001      67.320000000000007
   335   1      11.220000000000006      57.970000000000006      69.190000000000012
   336   1      13.090000000000002      56.100000000000001      69.190000000000012
   337   1      13.090000000000002      57.970000000000006      67.320000000000007
   338   1      11.220000000000006      56.100000000000001      71.060000000000016
   339   1      11.220000000000006      57.970000000000006      72.930000000000021
   340   1      13.090000000000002      56.100000000000001      72.930000000000021
   341   1      13.090000000000002      57.970000000000006      71.060000000000016
   342   1      11.220000000000006      56.100000000000001      74.800000000000011
   343   1      13.090000000000002      56.100000000000001      76.670000000000016
   344   1      13.090000000000002      57.970000000000006      74.800000000000011
   345   1      13.090000000000002      59.840000000000011      39.270000000000003
   346   1      11.220000000000006      59.840000000000011      41.140000000000008
   347   1      11.220000000000006      61.710000000000001      43.010000000000005
   348   1      13.090000000000002      59.840000000000011      43.010000000000005
   349   1      13.090000000000002      61.710000000000001      41.140000000000008
   350   1      11.220000000000006      59.840000000000011       44.88000000000001
   351   1      11.220000000000006      61.710000000000001                   46.75
   352   1      13.090000000000002      59.840000000000011                   46.75
   353   1      13.090000000000002      61.710000000000001       44.88000000000001
   354   1      11.220000000000006      59.840000000000011      48.619999999999997
   355   1      11.220000000000006      61.710000000000001      50.489999999999995
   356   1      13.090000000000002      59.840000000000011      50.489999999999995
   357   1      13.090000000000002      61.710000000000001      48.619999999999997
   358   1      11.220000000000006      59.840000000000011      52.359999999999999