model_files/Fe/Fe_30000/Fe_521/data.Fe_521_bcc_30329 (written by ASE) 

30329 	 atoms 
1  atom types
0.0                      73  xlo xhi
0.0                      73  ylo yhi
0.0                      73  zlo zhi


Atoms 

     1   1                       0      34.439999999999998      35.874999999999993
     2   1                       0      35.874999999999993      34.439999999999998
     3   1                       0      35.874999999999993      37.309999999999995
     4   1                       0      37.309999999999995      35.874999999999993
     5   1      2.8699999999999974       27.26499999999999      34.439999999999998
     6   1      2.8699999999999974      28.699999999999992      33.004999999999995
     7   1      2.8699999999999974       27.26499999999999      37.309999999999995
     8   1      2.8699999999999974      28.699999999999992      35.874999999999993
     9   1      2.8699999999999974      28.699999999999992      38.744999999999983
    10   1      2.8699999999999974      30.134999999999991      31.569999999999993
    11   1      2.8699999999999974      31.569999999999993      30.134999999999991
    12   1      1.4349999999999952      31.569999999999993      34.439999999999998
    13   1      2.8699999999999974      30.134999999999991      34.439999999999998
    14   1      2.8699999999999974      31.569999999999993      33.004999999999995
    15   1      1.4349999999999952      30.134999999999991      35.874999999999993
    16   1      1.4349999999999952      31.569999999999993      37.309999999999995
    17   1      2.8699999999999974      30.134999999999991      37.309999999999995
    18   1      2.8699999999999974      31.569999999999993      35.874999999999993
    19   1      2.8699999999999974      30.134999999999991      40.179999999999986
    20   1      2.8699999999999974      31.569999999999993      38.744999999999983
    21   1      2.8699999999999974      31.569999999999993      41.614999999999995
    22   1      2.8699999999999974      33.004999999999995      28.699999999999992
    23   1      2.8699999999999974      34.439999999999998       27.26499999999999
    24   1      1.4349999999999952      34.439999999999998      31.569999999999993
    25   1      2.8699999999999974      33.004999999999995      31.569999999999993
    26   1      2.8699999999999974      34.439999999999998      30.134999999999991
    27   1      1.4349999999999952      33.004999999999995      33.004999999999995
    28   1      1.4349999999999952      34.439999999999998      34.439999999999998
    29   1      2.8699999999999974      33.004999999999995      34.439999999999998
    30   1      2.8699999999999974      34.439999999999998      33.004999999999995
    31   1      1.4349999999999952      33.004999999999995      35.874999999999993
    32   1      1.4349999999999952      34.439999999999998      37.309999999999995
    33   1      2.8699999999999974      33.004999999999995      37.309999999999995
    34   1      2.8699999999999974      34.439999999999998      35.874999999999993
    35   1      1.4349999999999952      33.004999999999995      38.744999999999983
    36   1      1.4349999999999952      34.439999999999998      40.179999999999986
    37   1      2.8699999999999974      33.004999999999995      40.179999999999986
    38   1      2.8699999999999974      34.439999999999998      38.744999999999983
    39   1      2.8699999999999974      33.004999999999995      43.049999999999997
    40   1      2.8699999999999974      34.439999999999998      41.614999999999995
    41   1      2.8699999999999974      34.439999999999998      44.484999999999985
    42   1      2.8699999999999974      35.874999999999993      28.699999999999992
    43   1      2.8699999999999974      37.309999999999995       27.26499999999999
    44   1      1.4349999999999952      35.874999999999993      30.134999999999991
    45   1      1.4349999999999952      37.309999999999995      31.569999999999993
    46   1      2.8699999999999974      35.874999999999993      31.569999999999993
    47   1      2.8699999999999974      37.309999999999995      30.134999999999991
    48   1      1.4349999999999952      35.874999999999993      33.004999999999995
    49   1      1.4349999999999952      37.309999999999995      34.439999999999998
    50   1      2.8699999999999974      35.874999999999993      34.439999999999998
    51   1      2.8699999999999974      37.309999999999995      33.004999999999995
    52   1      1.4349999999999952      35.874999999999993      35.874999999999993
    53   1      1.4349999999999952      37.309999999999995      37.309999999999995
    54   1      2.8699999999999974      35.874999999999993      37.309999999999995
    55   1      2.8699999999999974      37.309999999999995      35.874999999999993
    56   1      1.4349999999999952      35.874999999999993      38.744999999999983
    57   1      1.4349999999999952      37.309999999999995      40.179999999999986
    58   1      2.8699999999999974      35.874999999999993      40.179999999999986
    59   1      2.8699999999999974      37.309999999999995      38.744999999999983
    60   1      1.4349999999999952      35.874999999999993      41.614999999999995
    61   1      2.8699999999999974      35.874999999999993      43.049999999999997
    62   1      2.8699999999999974      37.309999999999995      41.614999999999995
    63   1      2.8699999999999974      37.309999999999995      44.484999999999985
    64   1      2.8699999999999974      38.744999999999983      28.699999999999992
    65   1      2.8699999999999974      38.744999999999983      31.569999999999993
    66   1      2.8699999999999974      40.179999999999986      30.134999999999991
    67   1      1.4349999999999952      38.744999999999983      33.004999999999995
    68   1      1.4349999999999952      40.179999999999986      34.439999999999998
    69   1      2.8699999999999974      38.744999999999983      34.439999999999998
    70   1      2.8699999999999974      40.179999999999986      33.004999999999995
    71   1      1.4349999999999952      38.744999999999983      35.874999999999993
    72   1      1.4349999999999952      40.179999999999986      37.309999999999995
    73   1      2.8699999999999974      38.744999999999983      37.309999999999995
    74   1      2.8699999999999974      40.179999999999986      35.874999999999993
    75   1      1.4349999999999952      38.744999999999983      38.744999999999983
    76   1      2.8699999999999974      38.744999999999983      40.179999999999986
    77   1      2.8699999999999974      40.179999999999986      38.744999999999983
    78   1      2.8699999999999974      38.744999999999983      43.049999999999997
    79   1      2.8699999999999974      40.179999999999986      41.614999999999995
    80   1      2.8699999999999974      41.614999999999995      31.569999999999993
    81   1      2.8699999999999974      41.614999999999995      34.439999999999998
    82   1      2.8699999999999974      43.049999999999997      33.004999999999995
    83   1      1.4349999999999952      41.614999999999995      35.874999999999993
    84   1      2.8699999999999974      41.614999999999995      37.309999999999995
    85   1      2.8699999999999974      43.049999999999997      35.874999999999993
    86   1      2.8699999999999974      41.614999999999995      40.179999999999986
    87   1      2.8699999999999974      43.049999999999997      38.744999999999983
    88   1      2.8699999999999974      44.484999999999985      34.439999999999998
    89   1      2.8699999999999974      44.484999999999985      37.309999999999995
    90   1      5.7399999999999949      20.089999999999993      35.874999999999993
    91   1      5.7399999999999949      21.524999999999995      31.569999999999993
    92   1      5.7399999999999949      22.959999999999994      30.134999999999991
    93   1      5.7399999999999949      21.524999999999995      34.439999999999998
    94   1      5.7399999999999949      22.959999999999994      33.004999999999995
    95   1      5.7399999999999949      21.524999999999995      37.309999999999995
    96   1      5.7399999999999949      22.959999999999994      35.874999999999993
    97   1      5.7399999999999949      21.524999999999995      40.179999999999986
    98   1      5.7399999999999949      22.959999999999994      38.744999999999983
    99   1      5.7399999999999949      22.959999999999994      41.614999999999995
   100   1      5.7399999999999949      24.394999999999996      25.829999999999995
   101   1      5.7399999999999949      25.829999999999995      24.394999999999996
   102   1      5.7399999999999949      24.394999999999996      28.699999999999992
   103   1      5.7399999999999949      25.829999999999995       27.26499999999999
   104   1      4.3049999999999962      25.829999999999995      31.569999999999993
   105   1      5.7399999999999949      24.394999999999996      31.569999999999993
   106   1      5.7399999999999949      25.829999999999995      30.134999999999991
   107   1      4.3049999999999962      24.394999999999996      33.004999999999995
   108   1      4.3049999999999962      25.829999999999995      34.439999999999998
   109   1      5.7399999999999949      24.394999999999996      34.439999999999998
   110   1      5.7399999999999949      25.829999999999995      33.004999999999995
   111   1      4.3049999999999962      24.394999999999996      35.874999999999993
   112   1      4.3049999999999962      25.829999999999995      37.309999999999995
   113   1      5.7399999999999949      24.394999999999996      37.309999999999995
   114   1      5.7399999999999949      25.829999999999995      35.874999999999993
   115   1      4.3049999999999962      24.394999999999996      38.744999999999983
   116   1      4.3049999999999962      25.829999999999995      40.179999999999986
   117   1      5.7399999999999949      24.394999999999996      40.179999999999986
   118   1      5.7399999999999949      25.829999999999995      38.744999999999983
   119   1      5.7399999999999949      24.394999999999996      43.049999999999997
   120   1      5.7399999999999949      25.829999999999995      41.614999999999995
   121   1      5.7399999999999949      24.394999999999996      45.919999999999987
   122   1      5.7399999999999949      25.829999999999995      44.484999999999985
   123   1      5.7399999999999949      25.829999999999995       47.35499999999999
   124   1      5.7399999999999949       27.26499999999999      25.829999999999995
   125   1      5.7399999999999949      28.699999999999992      24.394999999999996
   126   1      4.3049999999999962       27.26499999999999       27.26499999999999
   127   1      4.3049999999999962      28.699999999999992      28.699999999999992
   128   1      5.7399999999999949       27.26499999999999      28.699999999999992
   129   1      5.7399999999999949      28.699999999999992       27.26499999999999
   130   1      4.3049999999999962       27.26499999999999      30.134999999999991
   131   1      4.3049999999999962      28.699999999999992      31.569999999999993
   132   1      5.7399999999999949       27.26499999999999      31.569999999999993
   133   1      5.7399999999999949      28.699999999999992      30.134999999999991
   134   1      4.3049999999999962       27.26499999999999      33.004999999999995
   135   1      4.3049999999999962      28.699999999999992      34.439999999999998
   136   1      5.7399999999999949       27.26499999999999      34.439999999999998
   137   1      5.7399999999999949      28.699999999999992      33.004999999999995
   138   1      4.3049999999999962       27.26499999999999      35.874999999999993
   139   1      4.3049999999999962      28.699999999999992      37.309999999999995
   140   1      5.7399999999999949       27.26499999999999      37.309999999999995
   141   1      5.7399999999999949      28.699999999999992      35.874999999999993
   142   1      4.3049999999999962       27.26499999999999      38.744999999999983
   143   1      4.3049999999999962      28.699999999999992      40.179999999999986
   144   1      5.7399999999999949       27.26499999999999      40.179999999999986
   145   1      5.7399999999999949      28.699999999999992      38.744999999999983
   146   1      4.3049999999999962       27.26499999999999      41.614999999999995
   147   1      4.3049999999999962      28.699999999999992      43.049999999999997
   148   1      5.7399999999999949       27.26499999999999      43.049999999999997
   149   1      5.7399999999999949      28.699999999999992      41.614999999999995
   150   1      4.3049999999999962       27.26499999999999      44.484999999999985
   151   1      5.7399999999999949       27.26499999999999      45.919999999999987
   152   1      5.7399999999999949      28.699999999999992      44.484999999999985
   153   1      5.7399999999999949      28.699999999999992       47.35499999999999
   154   1      5.7399999999999949      30.134999999999991      22.959999999999994
   155   1      5.7399999999999949      31.569999999999993      21.524999999999995
   156   1      4.3049999999999962      31.569999999999993      25.829999999999995
   157   1      5.7399999999999949      30.134999999999991      25.829999999999995
   158   1      5.7399999999999949      31.569999999999993      24.394999999999996
   159   1      4.3049999999999962      30.134999999999991       27.26499999999999
   160   1      4.3049999999999962      31.569999999999993      28.699999999999992
   161   1      5.7399999999999949      30.134999999999991      28.699999999999992
   162   1      5.7399999999999949      31.569999999999993       27.26499999999999
   163   1      4.3049999999999962      30.134999999999991      30.134999999999991
   164   1      4.3049999999999962      31.569999999999993      31.569999999999993
   165   1      5.7399999999999949      30.134999999999991      31.569999999999993
   166   1      5.7399999999999949      31.569999999999993      30.134999999999991
   167   1      4.3049999999999962      30.134999999999991      33.004999999999995
   168   1      4.3049999999999962      31.569999999999993      34.439999999999998
   169   1      5.7399999999999949      30.134999999999991      34.439999999999998
   170   1      5.7399999999999949      31.569999999999993      33.004999999999995
   171   1      4.3049999999999962      30.134999999999991      35.874999999999993
   172   1      4.3049999999999962      31.569999999999993      37.309999999999995
   173   1      5.7399999999999949      30.134999999999991      37.309999999999995
   174   1      5.7399999999999949      31.569999999999993      35.874999999999993
   175   1      4.3049999999999962      30.134999999999991      38.744999999999983
   176   1      4.3049999999999962      31.569999999999993      40.179999999999986
   177   1      5.7399999999999949      30.134999999999991      40.179999999999986
   178   1      5.7399999999999949      31.569999999999993      38.744999999999983
   179   1      4.3049999999999962      30.134999999999991      41.614999999999995
   180   1      4.3049999999999962      31.569999999999993      43.049999999999997
   181   1      5.7399999999999949      30.134999999999991      43.049999999999997
   182   1      5.7399999999999949      31.569999999999993      41.614999999999995
   183   1      4.3049999999999962      30.134999999999991      44.484999999999985
   184   1      4.3049999999999962      31.569999999999993      45.919999999999987
   185   1      5.7399999999999949      30.134999999999991      45.919999999999987
   186   1      5.7399999999999949      31.569999999999993      44.484999999999985
   187   1      5.7399999999999949      30.134999999999991      48.789999999999992
   188   1      5.7399999999999949      31.569999999999993       47.35499999999999
   189   1      5.7399999999999949      31.569999999999993      50.224999999999987
   190   1      5.7399999999999949      33.004999999999995      22.959999999999994
   191   1      5.7399999999999949      34.439999999999998      21.524999999999995
   192   1      4.3049999999999962      33.004999999999995      24.394999999999996
   193   1      4.3049999999999962      34.439999999999998      25.829999999999995
   194   1      5.7399999999999949      33.004999999999995      25.829999999999995
   195   1      5.7399999999999949      34.439999999999998      24.394999999999996
   196   1      4.3049999999999962      33.004999999999995       27.26499999999999
   197   1      4.3049999999999962      34.439999999999998      28.699999999999992
   198   1      5.7399999999999949      33.004999999999995      28.699999999999992
   199   1      5.7399999999999949      34.439999999999998       27.26499999999999
   200   1      4.3049999999999962      33.004999999999995      30.134999999999991
   201   1      4.3049999999999962      34.439999999999998      31.569999999999993
   202   1      5.7399999999999949      33.004999999999995      31.569999999999993
   203   1      5.7399999999999949      34.439999999999998      30.134999999999991
   204   1      4.3049999999999962      33.004999999999995      33.004999999999995
   205   1      4.3049999999999962      34.439999999999998      34.439999999999998
   206   1      5.7399999999999949      33.004999999999995      34.439999999999998
   207   1      5.7399999999999949      34.439999999999998      33.004999999999995
   208   1      4.3049999999999962      33.004999999999995      35.874999999999993
   209   1      4.3049999999999962      34.439999999999998      37.309999999999995
   210   1      5.7399999999999949      33.004999999999995      37.309999999999995
   211   1      5.7399999999999949      34.439999999999998      35.874999999999993
   212   1      4.3049999999999962      33.004999999999995      38.744999999999983
   213   1      4.3049999999999962      34.439999999999998      40.179999999999986
   214   1      5.7399999999999949      33.004999999999995      40.179999999999986
   215   1      5.7399999999999949      34.439999999999998      38.744999999999983
   216   1      4.3049999999999962      33.004999999999995      41.614999999999995
   217   1      4.3049999999999962      34.439999999999998      43.049999999999997
   218   1      5.7399999999999949      33.004999999999995      43.049999999999997
   219   1      5.7399999999999949      34.439999999999998      41.614999999999995
   220   1      4.3049999999999962      33.004999999999995      44.484999999999985
   221   1      4.3049999999999962      34.439999999999998      45.919999999999987
   222   1      5.7399999999999949      33.004999999999995      45.919999999999987
   223   1      5.7399999999999949      34.439999999999998      44.484999999999985
   224   1      4.3049999999999962      33.004999999999995       47.35499999999999
   225   1      5.7399999999999949      33.004999999999995      48.789999999999992
   226   1      5.7399999999999949      34.439999999999998       47.35499999999999
   227   1      5.7399999999999949      34.439999999999998      50.224999999999987
   228   1      5.7399999999999949      35.874999999999993      20.089999999999993
   229   1      5.7399999999999949      35.874999999999993      22.959999999999994
   230   1      5.7399999999999949      37.309999999999995      21.524999999999995
   231   1      4.3049999999999962      35.874999999999993      24.394999999999996
   232   1      4.3049999999999962      37.309999999999995      25.829999999999995
   233   1      5.7399999999999949      35.874999999999993      25.829999999999995
   234   1      5.7399999999999949      37.309999999999995      24.394999999999996
   235   1      4.3049999999999962      35.874999999999993       27.26499999999999
   236   1      4.3049999999999962      37.309999999999995      28.699999999999992
   237   1      5.7399999999999949      35.874999999999993      28.699999999999992
   238   1      5.7399999999999949      37.309999999999995       27.26499999999999
   239   1      4.3049999999999962      35.874999999999993      30.134999999999991
   240   1      4.3049999999999962      37.309999999999995      31.569999999999993
   241   1      5.7399999999999949      35.874999999999993      31.569999999999993
   242   1      5.7399999999999949      37.309999999999995      30.134999999999991
   243   1      4.3049999999999962      35.874999999999993      33.004999999999995
   244   1      4.3049999999999962      37.309999999999995      34.439999999999998
   245   1      5.7399999999999949      35.874999999999993      34.439999999999998
   246   1      5.7399999999999949      37.309999999999995      33.004999999999995
   247   1      4.3049999999999962      35.874999999999993      35.874999999999993
   248   1      4.3049999999999962      37.309999999999995      37.309999999999995
   249   1      5.7399999999999949      35.874999999999993      37.309999999999995
   250   1      5.7399999999999949      37.309999999999995      35.874999999999993
   251   1      4.3049999999999962      35.874999999999993      38.744999999999983
   252   1      4.3049999999999962      37.309999999999995      40.179999999999986
   253   1      5.7399999999999949      35.874999999999993      40.179999999999986
   254   1      5.7399999999999949      37.309999999999995      38.744999999999983
   255   1      4.3049999999999962      35.874999999999993      41.614999999999995
   256   1      4.3049999999999962      37.309999999999995      43.049999999999997
   257   1      5.7399999999999949      35.874999999999993      43.049999999999997
   258   1      5.7399999999999949      37.309999999999995      41.614999999999995
   259   1      4.3049999999999962      35.874999999999993      44.484999999999985
   260   1      4.3049999999999962      37.309999999999995      45.919999999999987
   261   1      5.7399999999999949      35.874999999999993      45.919999999999987
   262   1      5.7399999999999949      37.309999999999995      44.484999999999985
   263   1      4.3049999999999962      35.874999999999993       47.35499999999999
   264   1      5.7399999999999949      35.874999999999993      48.789999999999992
   265   1      5.7399999999999949      37.309999999999995       47.35499999999999
   266   1      5.7399999999999949      35.874999999999993      51.659999999999997
   267   1      5.7399999999999949      37.309999999999995      50.224999999999987
   268   1      5.7399999999999949      38.744999999999983      22.959999999999994
   269   1      5.7399999999999949      40.179999999999986      21.524999999999995
   270   1      4.3049999999999962      38.744999999999983      24.394999999999996
   271   1      4.3049999999999962      40.179999999999986      25.829999999999995
   272   1      5.7399999999999949      38.744999999999983      25.829999999999995
   273   1      5.7399999999999949      40.179999999999986      24.394999999999996
   274   1      4.3049999999999962      38.744999999999983       27.26499999999999
   275   1      4.3049999999999962      40.179999999999986      28.699999999999992
   276   1      5.7399999999999949      38.744999999999983      28.699999999999992
   277   1      5.7399999999999949      40.179999999999986       27.26499999999999
   278   1      4.3049999999999962      38.744999999999983      30.134999999999991
   279   1      4.3049999999999962      40.179999999999986      31.569999999999993
   280   1      5.7399999999999949      38.744999999999983      31.569999999999993
   281   1      5.7399999999999949      40.179999999999986      30.134999999999991
   282   1      4.3049999999999962      38.744999999999983      33.004999999999995
   283   1      4.3049999999999962      40.179999999999986      34.439999999999998
   284   1      5.7399999999999949      38.744999999999983      34.439999999999998
   285   1      5.7399999999999949      40.179999999999986      33.004999999999995
   286   1      4.3049999999999962      38.744999999999983      35.874999999999993
   287   1      4.3049999999999962      40.179999999999986      37.309999999999995
   288   1      5.7399999999999949      38.744999999999983      37.309999999999995
   289   1      5.7399999999999949      40.179999999999986      35.874999999999993
   290   1      4.3049999999999962      38.744999999999983      38.744999999999983
   291   1      4.3049999999999962      40.179999999999986      40.179999999999986
   292   1      5.7399999999999949      38.744999999999983      40.179999999999986
   293   1      5.7399999999999949      40.179999999999986      38.744999999999983
   294   1      4.3049999999999962      38.744999999999983      41.614999999999995
   295   1      4.3049999999999962      40.179999999999986      43.049999999999997
   296   1      5.7399999999999949      38.744999999999983      43.049999999999997
   297   1      5.7399999999999949      40.179999999999986      41.614999999999995
   298   1      4.3049999999999962      38.744999999999983      44.484999999999985
   299   1      4.3049999999999962      40.179999999999986      45.919999999999987
   300   1      5.7399999999999949      38.744999999999983      45.919999999999987
   301   1      5.7399999999999949      40.179999999999986      44.484999999999985
   302   1      4.3049999999999962      38.744999999999983       47.35499999999999
   303   1      5.7399999999999949      38.744999999999983      48.789999999999992
   304   1      5.7399999999999949      40.179999999999986       47.35499999999999
   305   1      5.7399999999999949      40.179999999999986      50.224999999999987
   306   1      5.7399999999999949      41.614999999999995      22.959999999999994
   307   1      5.7399999999999949      41.614999999999995      25.829999999999995
   308   1      5.7399999999999949      43.049999999999997      24.394999999999996
   309   1      4.3049999999999962      41.614999999999995       27.26499999999999
   310   1      4.3049999999999962      43.049999999999997      28.699999999999992
   311   1      5.7399999999999949      41.614999999999995      28.699999999999992
   312   1      5.7399999999999949      43.049999999999997       27.26499999999999
   313   1      4.3049999999999962      41.614999999999995      30.134999999999991
   314   1      4.3049999999999962      43.049999999999997      31.569999999999993
   315   1      5.7399999999999949      41.614999999999995      31.569999999999993
   316   1      5.7399999999999949      43.049999999999997      30.134999999999991
   317   1      4.3049999999999962      41.614999999999995      33.004999999999995
   318   1      4.3049999999999962      43.049999999999997      34.439999999999998
   319   1      5.7399999999999949      41.614999999999995      34.439999999999998
   320   1      5.7399999999999949      43.049999999999997      33.004999999999995
   321   1      4.3049999999999962      41.614999999999995      35.874999999999993
   322   1      4.3049999999999962      43.049999999999997      37.309999999999995
   323   1      5.7399999999999949      41.614999999999995      37.309999999999995
   324   1      5.7399999999999949      43.049999999999997      35.874999999999993
   325   1      4.3049999999999962      41.614999999999995      38.744999999999983
   326   1      4.3049999999999962      43.049999999999997      40.179999999999986
   327   1      5.7399999999999949      41.614999999999995      40.179999999999986
   328   1      5.7399999999999949      43.049999999999997      38.744999999999983
   329   1      4.3049999999999962      41.614999999999995      41.614999999999995
   330   1      4.3049999999999962      43.049999999999997      43.049999999999997
   331   1      5.7399999999999949      41.614999999999995      43.049999999999997
   332   1      5.7399999999999949      43.049999999999997      41.614999999999995
   333   1      4.3049999999999962      41.614999999999995      44.484999999999985
   334   1      5.7399999999999949      41.614999999999995      45.919999999999987
   335   1      5.7399999999999949      43.049999999999997      44.484999999999985
   336   1      5.7399999999999949      41.614999999999995      48.789999999999992
   337   1      5.7399999999999949      43.049999999999997       47.35499999999999
   338   1      5.7399999999999949      44.484999999999985      25.829999999999995
   339   1      5.7399999999999949      45.919999999999987      24.394999999999996
   340   1      4.3049999999999962      44.484999999999985       27.26499999999999
   341   1      5.7399999999999949      44.484999999999985      28.699999999999992
   342   1      5.7399999999999949      45.919999999999987       27.26499999999999
   343   1      4.3049999999999962      44.484999999999985      30.134999999999991
   344   1      4.3049999999999962      45.919999999999987      31.569999999999993
   345   1      5.7399999999999949      44.484999999999985      31.569999999999993
   346   1      5.7399999999999949      45.919999999999987      30.134999999999991
   347   1      4.3049999999999962      44.484999999999985      33.004999999999995
   348   1      4.3049999999999962      45.919999999999987      34.439999999999998
   349   1      5.7399999999999949      44.484999999999985      34.439999999999998
   350   1      5.7399999999999949      45.919999999999987      33.004999999999995
   351   1      4.3049999999999962      44.484999999999985      35.874999999999993
   352   1      4.3049999999999962      45.919999999999987      37.309999999999995
   353   1      5.7399999999999949      44.484999999999985      37.309999999999995
   354   1      5.7399999999999949      45.919999999999987      35.874999999999993
   355   1      4.3049999999999962      44.484999999999985      38.744999999999983
   356   1      4.3049999999999962      45.919999999999987      40.179999999999986
   357   1      5.7399999999999949      44.484999999999985      40.179999999999986
   358   1      5.7399999999999949      45.919999999999987      38.744999999999983