model_files/CuFeNi/CuFeNi_30000/CuFeNi_430/CuFeNi_430_fcc_29909_temp.data (written by ASE) 

29909 	 atoms 
3  atom types
0.0                     106  xlo xhi
0.0                     106  ylo yhi
0.0                     106  zlo zhi


Atoms 

     1   1      1.8999999999999986       51.29999999999999      53.199999999999989
     2   1      1.8999999999999986      53.199999999999989       51.29999999999999
     3   1                       0      53.199999999999989      53.199999999999989
     4   1      1.8999999999999986      53.199999999999989      55.099999999999994
     5   1      1.8999999999999986      55.099999999999994      53.199999999999989
     6   1      3.8000000000000043      47.499999999999993      47.499999999999993
     7   1      5.7000000000000028      45.599999999999987      47.499999999999993
     8   1      5.7000000000000028      47.499999999999993      45.599999999999987
     9   1      3.8000000000000043      47.499999999999993       51.29999999999999
    10   1      5.7000000000000028      45.599999999999987       51.29999999999999
    11   1      5.7000000000000028      47.499999999999993      49.399999999999991
    12   1      3.8000000000000043      47.499999999999993      55.099999999999994
    13   1      5.7000000000000028      45.599999999999987      55.099999999999994
    14   1      5.7000000000000028      47.499999999999993      53.199999999999989
    15   1      3.8000000000000043      47.499999999999993      58.899999999999991
    16   1      5.7000000000000028      45.599999999999987      58.899999999999991
    17   1      5.7000000000000028      47.499999999999993      56.999999999999986
    18   1      5.7000000000000028      47.499999999999993      60.799999999999997
    19   1      3.8000000000000043       51.29999999999999      47.499999999999993
    20   1      5.7000000000000028      49.399999999999991      47.499999999999993
    21   1      5.7000000000000028       51.29999999999999      45.599999999999987
    22   1      3.8000000000000043      49.399999999999991      49.399999999999991
    23   1      3.8000000000000043       51.29999999999999       51.29999999999999
    24   1      5.7000000000000028      49.399999999999991       51.29999999999999
    25   1      5.7000000000000028       51.29999999999999      49.399999999999991
    26   1      3.8000000000000043      49.399999999999991      53.199999999999989
    27   1      3.8000000000000043       51.29999999999999      55.099999999999994
    28   1      5.7000000000000028      49.399999999999991      55.099999999999994
    29   1      5.7000000000000028       51.29999999999999      53.199999999999989
    30   1      3.8000000000000043      49.399999999999991      56.999999999999986
    31   1      3.8000000000000043       51.29999999999999      58.899999999999991
    32   1      5.7000000000000028      49.399999999999991      58.899999999999991
    33   1      5.7000000000000028       51.29999999999999      56.999999999999986
    34   1      5.7000000000000028       51.29999999999999      60.799999999999997
    35   1      3.8000000000000043      55.099999999999994      47.499999999999993
    36   1      5.7000000000000028      53.199999999999989      47.499999999999993
    37   1      5.7000000000000028      55.099999999999994      45.599999999999987
    38   1      3.8000000000000043      53.199999999999989      49.399999999999991
    39   1      3.8000000000000043      55.099999999999994       51.29999999999999
    40   1      5.7000000000000028      53.199999999999989       51.29999999999999
    41   1      5.7000000000000028      55.099999999999994      49.399999999999991
    42   1      3.8000000000000043      53.199999999999989      53.199999999999989
    43   1      3.8000000000000043      55.099999999999994      55.099999999999994
    44   1      5.7000000000000028      53.199999999999989      55.099999999999994
    45   1      5.7000000000000028      55.099999999999994      53.199999999999989
    46   1      3.8000000000000043      53.199999999999989      56.999999999999986
    47   1      3.8000000000000043      55.099999999999994      58.899999999999991
    48   1      5.7000000000000028      53.199999999999989      58.899999999999991
    49   1      5.7000000000000028      55.099999999999994      56.999999999999986
    50   1      5.7000000000000028      55.099999999999994      60.799999999999997
    51   1      3.8000000000000043      58.899999999999991      47.499999999999993
    52   1      5.7000000000000028      56.999999999999986      47.499999999999993
    53   1      5.7000000000000028      58.899999999999991      45.599999999999987
    54   1      3.8000000000000043      56.999999999999986      49.399999999999991
    55   1      3.8000000000000043      58.899999999999991       51.29999999999999
    56   1      5.7000000000000028      56.999999999999986       51.29999999999999
    57   1      5.7000000000000028      58.899999999999991      49.399999999999991
    58   1      3.8000000000000043      56.999999999999986      53.199999999999989
    59   1      3.8000000000000043      58.899999999999991      55.099999999999994
    60   1      5.7000000000000028      56.999999999999986      55.099999999999994
    61   1      5.7000000000000028      58.899999999999991      53.199999999999989
    62   1      3.8000000000000043      56.999999999999986      56.999999999999986
    63   1      3.8000000000000043      58.899999999999991      58.899999999999991
    64   1      5.7000000000000028      56.999999999999986      58.899999999999991
    65   1      5.7000000000000028      58.899999999999991      56.999999999999986
    66   1      5.7000000000000028      58.899999999999991      60.799999999999997
    67   1      5.7000000000000028      60.799999999999997      47.499999999999993
    68   1      5.7000000000000028      60.799999999999997       51.29999999999999
    69   1      5.7000000000000028      60.799999999999997      55.099999999999994
    70   1      5.7000000000000028      60.799999999999997      58.899999999999991
    71   1                     9.5      39.899999999999991      41.799999999999997
    72   1                     9.5      39.899999999999991      45.599999999999987
    73   1                     9.5      39.899999999999991      49.399999999999991
    74   1                     9.5      39.899999999999991      53.199999999999989
    75   1                     9.5      39.899999999999991      56.999999999999986
    76   1                     9.5      39.899999999999991      60.799999999999997
    77   1                     9.5      39.899999999999991      64.599999999999994
    78   1                     9.5      41.799999999999997      39.899999999999991
    79   1      7.6000000000000014      43.699999999999996      43.699999999999996
    80   1                     9.5      41.799999999999997      43.699999999999996
    81   1                     9.5      43.699999999999996      41.799999999999997
    82   1      7.6000000000000014      43.699999999999996      47.499999999999993
    83   1                     9.5      41.799999999999997      47.499999999999993
    84   1                     9.5      43.699999999999996      45.599999999999987
    85   1      7.6000000000000014      43.699999999999996       51.29999999999999
    86   1                     9.5      41.799999999999997       51.29999999999999
    87   1                     9.5      43.699999999999996      49.399999999999991
    88   1      7.6000000000000014      43.699999999999996      55.099999999999994
    89   1                     9.5      41.799999999999997      55.099999999999994
    90   1                     9.5      43.699999999999996      53.199999999999989
    91   1      7.6000000000000014      43.699999999999996      58.899999999999991
    92   1                     9.5      41.799999999999997      58.899999999999991
    93   1                     9.5      43.699999999999996      56.999999999999986
    94   1      7.6000000000000014      43.699999999999996      62.700000000000003
    95   1                     9.5      41.799999999999997      62.700000000000003
    96   1                     9.5      43.699999999999996      60.799999999999997
    97   1                     9.5      41.799999999999997                    66.5
    98   1                     9.5      43.699999999999996      64.599999999999994
    99   1                     9.5      45.599999999999987      39.899999999999991
   100   1      7.6000000000000014      47.499999999999993      43.699999999999996
   101   1                     9.5      45.599999999999987      43.699999999999996
   102   1                     9.5      47.499999999999993      41.799999999999997
   103   1      7.6000000000000014      45.599999999999987      45.599999999999987
   104   1      7.6000000000000014      47.499999999999993      47.499999999999993
   105   1                     9.5      45.599999999999987      47.499999999999993
   106   1                     9.5      47.499999999999993      45.599999999999987
   107   1      7.6000000000000014      45.599999999999987      49.399999999999991
   108   1      7.6000000000000014      47.499999999999993       51.29999999999999
   109   1                     9.5      45.599999999999987       51.29999999999999
   110   1                     9.5      47.499999999999993      49.399999999999991
   111   1      7.6000000000000014      45.599999999999987      53.199999999999989
   112   1      7.6000000000000014      47.499999999999993      55.099999999999994
   113   1                     9.5      45.599999999999987      55.099999999999994
   114   1                     9.5      47.499999999999993      53.199999999999989
   115   1      7.6000000000000014      45.599999999999987      56.999999999999986
   116   1      7.6000000000000014      47.499999999999993      58.899999999999991
   117   1                     9.5      45.599999999999987      58.899999999999991
   118   1                     9.5      47.499999999999993      56.999999999999986
   119   1      7.6000000000000014      45.599999999999987      60.799999999999997
   120   1      7.6000000000000014      47.499999999999993      62.700000000000003
   121   1                     9.5      45.599999999999987      62.700000000000003
   122   1                     9.5      47.499999999999993      60.799999999999997
   123   1                     9.5      45.599999999999987                    66.5
   124   1                     9.5      47.499999999999993      64.599999999999994
   125   1                     9.5      49.399999999999991      39.899999999999991
   126   1      7.6000000000000014       51.29999999999999      43.699999999999996
   127   1                     9.5      49.399999999999991      43.699999999999996
   128   1                     9.5       51.29999999999999      41.799999999999997
   129   1      7.6000000000000014      49.399999999999991      45.599999999999987
   130   1      7.6000000000000014       51.29999999999999      47.499999999999993
   131   1                     9.5      49.399999999999991      47.499999999999993
   132   1                     9.5       51.29999999999999      45.599999999999987
   133   1      7.6000000000000014      49.399999999999991      49.399999999999991
   134   1      7.6000000000000014       51.29999999999999       51.29999999999999
   135   1                     9.5      49.399999999999991       51.29999999999999
   136   1                     9.5       51.29999999999999      49.399999999999991
   137   1      7.6000000000000014      49.399999999999991      53.199999999999989
   138   1      7.6000000000000014       51.29999999999999      55.099999999999994
   139   1                     9.5      49.399999999999991      55.099999999999994
   140   1                     9.5       51.29999999999999      53.199999999999989
   141   1      7.6000000000000014      49.399999999999991      56.999999999999986
   142   1      7.6000000000000014       51.29999999999999      58.899999999999991
   143   1                     9.5      49.399999999999991      58.899999999999991
   144   1                     9.5       51.29999999999999      56.999999999999986
   145   1      7.6000000000000014      49.399999999999991      60.799999999999997
   146   1      7.6000000000000014       51.29999999999999      62.700000000000003
   147   1                     9.5      49.399999999999991      62.700000000000003
   148   1                     9.5       51.29999999999999      60.799999999999997
   149   1                     9.5      49.399999999999991                    66.5
   150   1                     9.5       51.29999999999999      64.599999999999994
   151   1                     9.5      53.199999999999989      39.899999999999991
   152   1      7.6000000000000014      55.099999999999994      43.699999999999996
   153   1                     9.5      53.199999999999989      43.699999999999996
   154   1                     9.5      55.099999999999994      41.799999999999997
   155   1      7.6000000000000014      53.199999999999989      45.599999999999987
   156   1      7.6000000000000014      55.099999999999994      47.499999999999993
   157   1                     9.5      53.199999999999989      47.499999999999993
   158   1                     9.5      55.099999999999994      45.599999999999987
   159   1      7.6000000000000014      53.199999999999989      49.399999999999991
   160   1      7.6000000000000014      55.099999999999994       51.29999999999999
   161   1                     9.5      53.199999999999989       51.29999999999999
   162   1                     9.5      55.099999999999994      49.399999999999991
   163   1      7.6000000000000014      53.199999999999989      53.199999999999989
   164   1      7.6000000000000014      55.099999999999994      55.099999999999994
   165   1                     9.5      53.199999999999989      55.099999999999994
   166   1                     9.5      55.099999999999994      53.199999999999989
   167   1      7.6000000000000014      53.199999999999989      56.999999999999986
   168   1      7.6000000000000014      55.099999999999994      58.899999999999991
   169   1                     9.5      53.199999999999989      58.899999999999991
   170   1                     9.5      55.099999999999994      56.999999999999986
   171   1      7.6000000000000014      53.199999999999989      60.799999999999997
   172   1      7.6000000000000014      55.099999999999994      62.700000000000003
   173   1                     9.5      53.199999999999989      62.700000000000003
   174   1                     9.5      55.099999999999994      60.799999999999997
   175   1                     9.5      53.199999999999989                    66.5
   176   1                     9.5      55.099999999999994      64.599999999999994
   177   1                     9.5      56.999999999999986      39.899999999999991
   178   1      7.6000000000000014      58.899999999999991      43.699999999999996
   179   1                     9.5      56.999999999999986      43.699999999999996
   180   1                     9.5      58.899999999999991      41.799999999999997
   181   1      7.6000000000000014      56.999999999999986      45.599999999999987
   182   1      7.6000000000000014      58.899999999999991      47.499999999999993
   183   1                     9.5      56.999999999999986      47.499999999999993
   184   1                     9.5      58.899999999999991      45.599999999999987
   185   1      7.6000000000000014      56.999999999999986      49.399999999999991
   186   1      7.6000000000000014      58.899999999999991       51.29999999999999
   187   1                     9.5      56.999999999999986       51.29999999999999
   188   1                     9.5      58.899999999999991      49.399999999999991
   189   1      7.6000000000000014      56.999999999999986      53.199999999999989
   190   1      7.6000000000000014      58.899999999999991      55.099999999999994
   191   1                     9.5      56.999999999999986      55.099999999999994
   192   1                     9.5      58.899999999999991      53.199999999999989
   193   1      7.6000000000000014      56.999999999999986      56.999999999999986
   194   1      7.6000000000000014      58.899999999999991      58.899999999999991
   195   1                     9.5      56.999999999999986      58.899999999999991
   196   1                     9.5      58.899999999999991      56.999999999999986
   197   1      7.6000000000000014      56.999999999999986      60.799999999999997
   198   1      7.6000000000000014      58.899999999999991      62.700000000000003
   199   1                     9.5      56.999999999999986      62.700000000000003
   200   1                     9.5      58.899999999999991      60.799999999999997
   201   1                     9.5      56.999999999999986                    66.5
   202   1                     9.5      58.899999999999991      64.599999999999994
   203   1                     9.5      60.799999999999997      39.899999999999991
   204   1      7.6000000000000014      62.700000000000003      43.699999999999996
   205   1                     9.5      60.799999999999997      43.699999999999996
   206   1                     9.5      62.700000000000003      41.799999999999997
   207   1      7.6000000000000014      60.799999999999997      45.599999999999987
   208   1      7.6000000000000014      62.700000000000003      47.499999999999993
   209   1                     9.5      60.799999999999997      47.499999999999993
   210   1                     9.5      62.700000000000003      45.599999999999987
   211   1      7.6000000000000014      60.799999999999997      49.399999999999991
   212   1      7.6000000000000014      62.700000000000003       51.29999999999999
   213   1                     9.5      60.799999999999997       51.29999999999999
   214   1                     9.5      62.700000000000003      49.399999999999991
   215   1      7.6000000000000014      60.799999999999997      53.199999999999989
   216   1      7.6000000000000014      62.700000000000003      55.099999999999994
   217   1                     9.5      60.799999999999997      55.099999999999994
   218   1                     9.5      62.700000000000003      53.199999999999989
   219   1      7.6000000000000014      60.799999999999997      56.999999999999986
   220   1      7.6000000000000014      62.700000000000003      58.899999999999991
   221   1                     9.5      60.799999999999997      58.899999999999991
   222   1                     9.5      62.700000000000003      56.999999999999986
   223   1      7.6000000000000014      60.799999999999997      60.799999999999997
   224   1      7.6000000000000014      62.700000000000003      62.700000000000003
   225   1                     9.5      60.799999999999997      62.700000000000003
   226   1                     9.5      62.700000000000003      60.799999999999997
   227   1                     9.5      60.799999999999997                    66.5
   228   1                     9.5      62.700000000000003      64.599999999999994
   229   1                     9.5      64.599999999999994      39.899999999999991
   230   1                     9.5      64.599999999999994      43.699999999999996
   231   1                     9.5                    66.5      41.799999999999997
   232   1                     9.5      64.599999999999994      47.499999999999993
   233   1                     9.5                    66.5      45.599999999999987
   234   1                     9.5      64.599999999999994       51.29999999999999
   235   1                     9.5                    66.5      49.399999999999991
   236   1                     9.5      64.599999999999994      55.099999999999994
   237   1                     9.5                    66.5      53.199999999999989
   238   1                     9.5      64.599999999999994      58.899999999999991
   239   1                     9.5                    66.5      56.999999999999986
   240   1                     9.5      64.599999999999994      62.700000000000003
   241   1                     9.5                    66.5      60.799999999999997
   242   1                     9.5      64.599999999999994                    66.5
   243   1                     9.5                    66.5      64.599999999999994
   244   1      13.300000000000002      36.099999999999994      37.999999999999993
   245   1      13.300000000000002      36.099999999999994      41.799999999999997
   246   1      13.300000000000002      36.099999999999994      45.599999999999987
   247   1      13.300000000000002      36.099999999999994      49.399999999999991
   248   1      13.300000000000002      36.099999999999994      53.199999999999989
   249   1      13.300000000000002      36.099999999999994      56.999999999999986
   250   1      13.300000000000002      36.099999999999994      60.799999999999997
   251   1      13.300000000000002      36.099999999999994      64.599999999999994
   252   1      13.300000000000002      36.099999999999994      68.399999999999991
   253   1      13.300000000000002      37.999999999999993      36.099999999999994
   254   1      11.399999999999997      37.999999999999993      37.999999999999993
   255   1      11.399999999999997      39.899999999999991      39.899999999999991
   256   1      13.300000000000002      37.999999999999993      39.899999999999991
   257   1      13.300000000000002      39.899999999999991      37.999999999999993
   258   1      11.399999999999997      37.999999999999993      41.799999999999997
   259   1      11.399999999999997      39.899999999999991      43.699999999999996
   260   1      13.300000000000002      37.999999999999993      43.699999999999996
   261   1      13.300000000000002      39.899999999999991      41.799999999999997
   262   1      11.399999999999997      37.999999999999993      45.599999999999987
   263   1      11.399999999999997      39.899999999999991      47.499999999999993
   264   1      13.300000000000002      37.999999999999993      47.499999999999993
   265   1      13.300000000000002      39.899999999999991      45.599999999999987
   266   1      11.399999999999997      37.999999999999993      49.399999999999991
   267   1      11.399999999999997      39.899999999999991       51.29999999999999
   268   1      13.300000000000002      37.999999999999993       51.29999999999999
   269   1      13.300000000000002      39.899999999999991      49.399999999999991
   270   1      11.399999999999997      37.999999999999993      53.199999999999989
   271   1      11.399999999999997      39.899999999999991      55.099999999999994
   272   1      13.300000000000002      37.999999999999993      55.099999999999994
   273   1      13.300000000000002      39.899999999999991      53.199999999999989
   274   1      11.399999999999997      37.999999999999993      56.999999999999986
   275   1      11.399999999999997      39.899999999999991      58.899999999999991
   276   1      13.300000000000002      37.999999999999993      58.899999999999991
   277   1      13.300000000000002      39.899999999999991      56.999999999999986
   278   1      11.399999999999997      37.999999999999993      60.799999999999997
   279   1      11.399999999999997      39.899999999999991      62.700000000000003
   280   1      13.300000000000002      37.999999999999993      62.700000000000003
   281   1      13.300000000000002      39.899999999999991      60.799999999999997
   282   1      11.399999999999997      37.999999999999993      64.599999999999994
   283   1      11.399999999999997      39.899999999999991                    66.5
   284   1      13.300000000000002      37.999999999999993                    66.5
   285   1      13.300000000000002      39.899999999999991      64.599999999999994
   286   1      11.399999999999997      37.999999999999993      68.399999999999991
   287   1      13.300000000000002      37.999999999999993      70.299999999999997
   288   1      13.300000000000002      39.899999999999991      68.399999999999991
   289   1      13.300000000000002      41.799999999999997      36.099999999999994
   290   1      11.399999999999997      41.799999999999997      37.999999999999993
   291   1      11.399999999999997      43.699999999999996      39.899999999999991
   292   1      13.300000000000002      41.799999999999997      39.899999999999991
   293   1      13.300000000000002      43.699999999999996      37.999999999999993
   294   1      11.399999999999997      41.799999999999997      41.799999999999997
   295   1      11.399999999999997      43.699999999999996      43.699999999999996
   296   1      13.300000000000002      41.799999999999997      43.699999999999996
   297   1      13.300000000000002      43.699999999999996      41.799999999999997
   298   1      11.399999999999997      41.799999999999997      45.599999999999987
   299   1      11.399999999999997      43.699999999999996      47.499999999999993
   300   1      13.300000000000002      41.799999999999997      47.499999999999993
   301   1      13.300000000000002      43.699999999999996      45.599999999999987
   302   1      11.399999999999997      41.799999999999997      49.399999999999991
   303   1      11.399999999999997      43.699999999999996       51.29999999999999
   304   1      13.300000000000002      41.799999999999997       51.29999999999999
   305   1      13.300000000000002      43.699999999999996      49.399999999999991
   306   1      11.399999999999997      41.799999999999997      53.199999999999989
   307   1      11.399999999999997      43.699999999999996      55.099999999999994
   308   1      13.300000000000002      41.799999999999997      55.099999999999994
   309   1      13.300000000000002      43.699999999999996      53.199999999999989
   310   1      11.399999999999997      41.799999999999997      56.999999999999986
   311   1      11.399999999999997      43.699999999999996      58.899999999999991
   312   1      13.300000000000002      41.799999999999997      58.899999999999991
   313   1      13.300000000000002      43.699999999999996      56.999999999999986
   314   1      11.399999999999997      41.799999999999997      60.799999999999997
   315   1      11.399999999999997      43.699999999999996      62.700000000000003
   316   1      13.300000000000002      41.799999999999997      62.700000000000003
   317   1      13.300000000000002      43.699999999999996      60.799999999999997
   318   1      11.399999999999997      41.799999999999997      64.599999999999994
   319   1      11.399999999999997      43.699999999999996                    66.5
   320   1      13.300000000000002      41.799999999999997                    66.5
   321   1      13.300000000000002      43.699999999999996      64.599999999999994
   322   1      11.399999999999997      41.799999999999997      68.399999999999991
   323   1      13.300000000000002      41.799999999999997      70.299999999999997
   324   1      13.300000000000002      43.699999999999996      68.399999999999991
   325   1      13.300000000000002      45.599999999999987      36.099999999999994
   326   1      11.399999999999997      45.599999999999987      37.999999999999993
   327   1      11.399999999999997      47.499999999999993      39.899999999999991
   328   1      13.300000000000002      45.599999999999987      39.899999999999991
   329   1      13.300000000000002      47.499999999999993      37.999999999999993
   330   1      11.399999999999997      45.599999999999987      41.799999999999997
   331   1      11.399999999999997      47.499999999999993      43.699999999999996
   332   1      13.300000000000002      45.599999999999987      43.699999999999996
   333   1      13.300000000000002      47.499999999999993      41.799999999999997
   334   1      11.399999999999997      45.599999999999987      45.599999999999987
   335   1      11.399999999999997      47.499999999999993      47.499999999999993
   336   1      13.300000000000002      45.599999999999987      47.499999999999993
   337   1      13.300000000000002      47.499999999999993      45.599999999999987
   338   1      11.399999999999997      45.599999999999987      49.399999999999991
   339   1      11.399999999999997      47.499999999999993       51.29999999999999
   340   1      13.300000000000002      45.599999999999987       51.29999999999999
   341   1      13.300000000000002      47.499999999999993      49.399999999999991
   342   1      11.399999999999997      45.599999999999987      53.199999999999989
   343   1      11.399999999999997      47.499999999999993      55.099999999999994
   344   1      13.300000000000002      45.599999999999987      55.099999999999994
   345   1      13.300000000000002      47.499999999999993      53.199999999999989
   346   1      11.399999999999997      45.599999999999987      56.999999999999986
   347   1      11.399999999999997      47.499999999999993      58.899999999999991
   348   1      13.300000000000002      45.599999999999987      58.899999999999991
   349   1      13.300000000000002      47.499999999999993      56.999999999999986
   350   1      11.399999999999997      45.599999999999987      60.799999999999997
   351   1      11.399999999999997      47.499999999999993      62.700000000000003
   352   1      13.300000000000002      45.599999999999987      62.700000000000003
   353   1      13.300000000000002      47.499999999999993      60.799999999999997
   354   1      11.399999999999997      45.599999999999987      64.599999999999994
   355   1      11.399999999999997      47.499999999999993                    66.5
   356   1      13.300000000000002      45.599999999999987                    66.5
   357   1      13.300000000000002      47.499999999999993      64.599999999999994
   358   1      11.399999999999997      45.599999999999987      68.399999999999991