model_files/CuFeNi/CuFeNi_30000/CuFeNi_530/CuFeNi_530_fcc_29831_temp.data (written by ASE) 

29831 	 atoms 
3  atom types
0.0                      98  xlo xhi
0.0                      98  ylo yhi
0.0                      98  zlo zhi


Atoms 

     1   1                       0      47.499999999999986      47.499999999999986
     2   1      1.9000000000000055      45.599999999999994      47.499999999999986
     3   1      1.9000000000000055      47.499999999999986      45.599999999999994
     4   1                       0      47.499999999999986      51.299999999999983
     5   1      1.9000000000000055      45.599999999999994      51.299999999999983
     6   1      1.9000000000000055      47.499999999999986      49.399999999999984
     7   1      1.9000000000000055      47.499999999999986      53.199999999999996
     8   1                       0      51.299999999999983      47.499999999999986
     9   1      1.9000000000000055      49.399999999999984      47.499999999999986
    10   1      1.9000000000000055      51.299999999999983      45.599999999999994
    11   1                       0      49.399999999999984      49.399999999999984
    12   1                       0      51.299999999999983      51.299999999999983
    13   1      1.9000000000000055      49.399999999999984      51.299999999999983
    14   1      1.9000000000000055      51.299999999999983      49.399999999999984
    15   1      1.9000000000000055      51.299999999999983      53.199999999999996
    16   1      1.9000000000000055      53.199999999999996      47.499999999999986
    17   1      1.9000000000000055      53.199999999999996      51.299999999999983
    18   1       5.700000000000002      37.999999999999986      39.899999999999991
    19   1       5.700000000000002      39.899999999999991      37.999999999999986
    20   1       5.700000000000002      37.999999999999986      43.699999999999989
    21   1       5.700000000000002      39.899999999999991      41.799999999999997
    22   1       5.700000000000002      37.999999999999986      47.499999999999986
    23   1       5.700000000000002      39.899999999999991      45.599999999999994
    24   1       5.700000000000002      37.999999999999986      51.299999999999983
    25   1       5.700000000000002      39.899999999999991      49.399999999999984
    26   1       5.700000000000002      37.999999999999986      55.099999999999987
    27   1       5.700000000000002      39.899999999999991      53.199999999999996
    28   1       5.700000000000002      37.999999999999986      58.899999999999991
    29   1       5.700000000000002      39.899999999999991      56.999999999999986
    30   1       5.700000000000002      39.899999999999991       60.79999999999999
    31   1       5.700000000000002      41.799999999999997      39.899999999999991
    32   1       5.700000000000002      43.699999999999989      37.999999999999986
    33   1      3.8000000000000043      41.799999999999997      41.799999999999997
    34   1      3.8000000000000043      43.699999999999989      43.699999999999989
    35   1       5.700000000000002      41.799999999999997      43.699999999999989
    36   1       5.700000000000002      43.699999999999989      41.799999999999997
    37   1      3.8000000000000043      41.799999999999997      45.599999999999994
    38   1      3.8000000000000043      43.699999999999989      47.499999999999986
    39   1       5.700000000000002      41.799999999999997      47.499999999999986
    40   1       5.700000000000002      43.699999999999989      45.599999999999994
    41   1      3.8000000000000043      41.799999999999997      49.399999999999984
    42   1      3.8000000000000043      43.699999999999989      51.299999999999983
    43   1       5.700000000000002      41.799999999999997      51.299999999999983
    44   1       5.700000000000002      43.699999999999989      49.399999999999984
    45   1      3.8000000000000043      41.799999999999997      53.199999999999996
    46   1      3.8000000000000043      43.699999999999989      55.099999999999987
    47   1       5.700000000000002      41.799999999999997      55.099999999999987
    48   1       5.700000000000002      43.699999999999989      53.199999999999996
    49   1      3.8000000000000043      41.799999999999997      56.999999999999986
    50   1       5.700000000000002      41.799999999999997      58.899999999999991
    51   1       5.700000000000002      43.699999999999989      56.999999999999986
    52   1       5.700000000000002      43.699999999999989       60.79999999999999
    53   1       5.700000000000002      45.599999999999994      39.899999999999991
    54   1       5.700000000000002      47.499999999999986      37.999999999999986
    55   1      3.8000000000000043      45.599999999999994      41.799999999999997
    56   1      3.8000000000000043      47.499999999999986      43.699999999999989
    57   1       5.700000000000002      45.599999999999994      43.699999999999989
    58   1       5.700000000000002      47.499999999999986      41.799999999999997
    59   1      3.8000000000000043      45.599999999999994      45.599999999999994
    60   1      3.8000000000000043      47.499999999999986      47.499999999999986
    61   1       5.700000000000002      45.599999999999994      47.499999999999986
    62   1       5.700000000000002      47.499999999999986      45.599999999999994
    63   1      3.8000000000000043      45.599999999999994      49.399999999999984
    64   1      3.8000000000000043      47.499999999999986      51.299999999999983
    65   1       5.700000000000002      45.599999999999994      51.299999999999983
    66   1       5.700000000000002      47.499999999999986      49.399999999999984
    67   1      3.8000000000000043      45.599999999999994      53.199999999999996
    68   1      3.8000000000000043      47.499999999999986      55.099999999999987
    69   1       5.700000000000002      45.599999999999994      55.099999999999987
    70   1       5.700000000000002      47.499999999999986      53.199999999999996
    71   1      3.8000000000000043      45.599999999999994      56.999999999999986
    72   1       5.700000000000002      45.599999999999994      58.899999999999991
    73   1       5.700000000000002      47.499999999999986      56.999999999999986
    74   1       5.700000000000002      47.499999999999986       60.79999999999999
    75   1       5.700000000000002      49.399999999999984      39.899999999999991
    76   1       5.700000000000002      51.299999999999983      37.999999999999986
    77   1      3.8000000000000043      49.399999999999984      41.799999999999997
    78   1      3.8000000000000043      51.299999999999983      43.699999999999989
    79   1       5.700000000000002      49.399999999999984      43.699999999999989
    80   1       5.700000000000002      51.299999999999983      41.799999999999997
    81   1      3.8000000000000043      49.399999999999984      45.599999999999994
    82   1      3.8000000000000043      51.299999999999983      47.499999999999986
    83   1       5.700000000000002      49.399999999999984      47.499999999999986
    84   1       5.700000000000002      51.299999999999983      45.599999999999994
    85   1      3.8000000000000043      49.399999999999984      49.399999999999984
    86   1      3.8000000000000043      51.299999999999983      51.299999999999983
    87   1       5.700000000000002      49.399999999999984      51.299999999999983
    88   1       5.700000000000002      51.299999999999983      49.399999999999984
    89   1      3.8000000000000043      49.399999999999984      53.199999999999996
    90   1      3.8000000000000043      51.299999999999983      55.099999999999987
    91   1       5.700000000000002      49.399999999999984      55.099999999999987
    92   1       5.700000000000002      51.299999999999983      53.199999999999996
    93   1      3.8000000000000043      49.399999999999984      56.999999999999986
    94   1       5.700000000000002      49.399999999999984      58.899999999999991
    95   1       5.700000000000002      51.299999999999983      56.999999999999986
    96   1       5.700000000000002      51.299999999999983       60.79999999999999
    97   1       5.700000000000002      53.199999999999996      39.899999999999991
    98   1       5.700000000000002      55.099999999999987      37.999999999999986
    99   1      3.8000000000000043      53.199999999999996      41.799999999999997
   100   1      3.8000000000000043      55.099999999999987      43.699999999999989
   101   1       5.700000000000002      53.199999999999996      43.699999999999989
   102   1       5.700000000000002      55.099999999999987      41.799999999999997
   103   1      3.8000000000000043      53.199999999999996      45.599999999999994
   104   1      3.8000000000000043      55.099999999999987      47.499999999999986
   105   1       5.700000000000002      53.199999999999996      47.499999999999986
   106   1       5.700000000000002      55.099999999999987      45.599999999999994
   107   1      3.8000000000000043      53.199999999999996      49.399999999999984
   108   1      3.8000000000000043      55.099999999999987      51.299999999999983
   109   1       5.700000000000002      53.199999999999996      51.299999999999983
   110   1       5.700000000000002      55.099999999999987      49.399999999999984
   111   1      3.8000000000000043      53.199999999999996      53.199999999999996
   112   1      3.8000000000000043      55.099999999999987      55.099999999999987
   113   1       5.700000000000002      53.199999999999996      55.099999999999987
   114   1       5.700000000000002      55.099999999999987      53.199999999999996
   115   1      3.8000000000000043      53.199999999999996      56.999999999999986
   116   1       5.700000000000002      53.199999999999996      58.899999999999991
   117   1       5.700000000000002      55.099999999999987      56.999999999999986
   118   1       5.700000000000002      55.099999999999987       60.79999999999999
   119   1       5.700000000000002      56.999999999999986      39.899999999999991
   120   1       5.700000000000002      58.899999999999991      37.999999999999986
   121   1      3.8000000000000043      56.999999999999986      41.799999999999997
   122   1       5.700000000000002      56.999999999999986      43.699999999999989
   123   1       5.700000000000002      58.899999999999991      41.799999999999997
   124   1      3.8000000000000043      56.999999999999986      45.599999999999994
   125   1       5.700000000000002      56.999999999999986      47.499999999999986
   126   1       5.700000000000002      58.899999999999991      45.599999999999994
   127   1      3.8000000000000043      56.999999999999986      49.399999999999984
   128   1       5.700000000000002      56.999999999999986      51.299999999999983
   129   1       5.700000000000002      58.899999999999991      49.399999999999984
   130   1      3.8000000000000043      56.999999999999986      53.199999999999996
   131   1       5.700000000000002      56.999999999999986      55.099999999999987
   132   1       5.700000000000002      58.899999999999991      53.199999999999996
   133   1      3.8000000000000043      56.999999999999986      56.999999999999986
   134   1       5.700000000000002      56.999999999999986      58.899999999999991
   135   1       5.700000000000002      58.899999999999991      56.999999999999986
   136   1       5.700000000000002      58.899999999999991       60.79999999999999
   137   1       5.700000000000002       60.79999999999999      39.899999999999991
   138   1       5.700000000000002       60.79999999999999      43.699999999999989
   139   1       5.700000000000002       60.79999999999999      47.499999999999986
   140   1       5.700000000000002       60.79999999999999      51.299999999999983
   141   1       5.700000000000002       60.79999999999999      55.099999999999987
   142   1       5.700000000000002       60.79999999999999      58.899999999999991
   143   1                     9.5      32.299999999999997      34.199999999999989
   144   1                     9.5      32.299999999999997      37.999999999999986
   145   1                     9.5      32.299999999999997      41.799999999999997
   146   1                     9.5      32.299999999999997      45.599999999999994
   147   1                     9.5      32.299999999999997      49.399999999999984
   148   1                     9.5      32.299999999999997      53.199999999999996
   149   1                     9.5      32.299999999999997      56.999999999999986
   150   1                     9.5      32.299999999999997       60.79999999999999
   151   1                     9.5      32.299999999999997      64.599999999999994
   152   1                     9.5      34.199999999999989      32.299999999999997
   153   1      7.6000000000000014      36.099999999999994      36.099999999999994
   154   1                     9.5      34.199999999999989      36.099999999999994
   155   1                     9.5      36.099999999999994      34.199999999999989
   156   1      7.6000000000000014      36.099999999999994      39.899999999999991
   157   1                     9.5      34.199999999999989      39.899999999999991
   158   1                     9.5      36.099999999999994      37.999999999999986
   159   1      7.6000000000000014      36.099999999999994      43.699999999999989
   160   1                     9.5      34.199999999999989      43.699999999999989
   161   1                     9.5      36.099999999999994      41.799999999999997
   162   1      7.6000000000000014      36.099999999999994      47.499999999999986
   163   1                     9.5      34.199999999999989      47.499999999999986
   164   1                     9.5      36.099999999999994      45.599999999999994
   165   1      7.6000000000000014      36.099999999999994      51.299999999999983
   166   1                     9.5      34.199999999999989      51.299999999999983
   167   1                     9.5      36.099999999999994      49.399999999999984
   168   1      7.6000000000000014      36.099999999999994      55.099999999999987
   169   1                     9.5      34.199999999999989      55.099999999999987
   170   1                     9.5      36.099999999999994      53.199999999999996
   171   1      7.6000000000000014      36.099999999999994      58.899999999999991
   172   1                     9.5      34.199999999999989      58.899999999999991
   173   1                     9.5      36.099999999999994      56.999999999999986
   174   1      7.6000000000000014      36.099999999999994      62.700000000000003
   175   1                     9.5      34.199999999999989      62.700000000000003
   176   1                     9.5      36.099999999999994       60.79999999999999
   177   1                     9.5      34.199999999999989      66.499999999999986
   178   1                     9.5      36.099999999999994      64.599999999999994
   179   1                     9.5      37.999999999999986      32.299999999999997
   180   1      7.6000000000000014      39.899999999999991      36.099999999999994
   181   1                     9.5      37.999999999999986      36.099999999999994
   182   1                     9.5      39.899999999999991      34.199999999999989
   183   1      7.6000000000000014      37.999999999999986      37.999999999999986
   184   1      7.6000000000000014      39.899999999999991      39.899999999999991
   185   1                     9.5      37.999999999999986      39.899999999999991
   186   1                     9.5      39.899999999999991      37.999999999999986
   187   1      7.6000000000000014      37.999999999999986      41.799999999999997
   188   1      7.6000000000000014      39.899999999999991      43.699999999999989
   189   1                     9.5      37.999999999999986      43.699999999999989
   190   1                     9.5      39.899999999999991      41.799999999999997
   191   1      7.6000000000000014      37.999999999999986      45.599999999999994
   192   1      7.6000000000000014      39.899999999999991      47.499999999999986
   193   1                     9.5      37.999999999999986      47.499999999999986
   194   1                     9.5      39.899999999999991      45.599999999999994
   195   1      7.6000000000000014      37.999999999999986      49.399999999999984
   196   1      7.6000000000000014      39.899999999999991      51.299999999999983
   197   1                     9.5      37.999999999999986      51.299999999999983
   198   1                     9.5      39.899999999999991      49.399999999999984
   199   1      7.6000000000000014      37.999999999999986      53.199999999999996
   200   1      7.6000000000000014      39.899999999999991      55.099999999999987
   201   1                     9.5      37.999999999999986      55.099999999999987
   202   1                     9.5      39.899999999999991      53.199999999999996
   203   1      7.6000000000000014      37.999999999999986      56.999999999999986
   204   1      7.6000000000000014      39.899999999999991      58.899999999999991
   205   1                     9.5      37.999999999999986      58.899999999999991
   206   1                     9.5      39.899999999999991      56.999999999999986
   207   1      7.6000000000000014      37.999999999999986       60.79999999999999
   208   1      7.6000000000000014      39.899999999999991      62.700000000000003
   209   1                     9.5      37.999999999999986      62.700000000000003
   210   1                     9.5      39.899999999999991       60.79999999999999
   211   1                     9.5      37.999999999999986      66.499999999999986
   212   1                     9.5      39.899999999999991      64.599999999999994
   213   1                     9.5      41.799999999999997      32.299999999999997
   214   1      7.6000000000000014      43.699999999999989      36.099999999999994
   215   1                     9.5      41.799999999999997      36.099999999999994
   216   1                     9.5      43.699999999999989      34.199999999999989
   217   1      7.6000000000000014      41.799999999999997      37.999999999999986
   218   1      7.6000000000000014      43.699999999999989      39.899999999999991
   219   1                     9.5      41.799999999999997      39.899999999999991
   220   1                     9.5      43.699999999999989      37.999999999999986
   221   1      7.6000000000000014      41.799999999999997      41.799999999999997
   222   1      7.6000000000000014      43.699999999999989      43.699999999999989
   223   1                     9.5      41.799999999999997      43.699999999999989
   224   1                     9.5      43.699999999999989      41.799999999999997
   225   1      7.6000000000000014      41.799999999999997      45.599999999999994
   226   1      7.6000000000000014      43.699999999999989      47.499999999999986
   227   1                     9.5      41.799999999999997      47.499999999999986
   228   1                     9.5      43.699999999999989      45.599999999999994
   229   1      7.6000000000000014      41.799999999999997      49.399999999999984
   230   1      7.6000000000000014      43.699999999999989      51.299999999999983
   231   1                     9.5      41.799999999999997      51.299999999999983
   232   1                     9.5      43.699999999999989      49.399999999999984
   233   1      7.6000000000000014      41.799999999999997      53.199999999999996
   234   1      7.6000000000000014      43.699999999999989      55.099999999999987
   235   1                     9.5      41.799999999999997      55.099999999999987
   236   1                     9.5      43.699999999999989      53.199999999999996
   237   1      7.6000000000000014      41.799999999999997      56.999999999999986
   238   1      7.6000000000000014      43.699999999999989      58.899999999999991
   239   1                     9.5      41.799999999999997      58.899999999999991
   240   1                     9.5      43.699999999999989      56.999999999999986
   241   1      7.6000000000000014      41.799999999999997       60.79999999999999
   242   1      7.6000000000000014      43.699999999999989      62.700000000000003
   243   1                     9.5      41.799999999999997      62.700000000000003
   244   1                     9.5      43.699999999999989       60.79999999999999
   245   1                     9.5      41.799999999999997      66.499999999999986
   246   1                     9.5      43.699999999999989      64.599999999999994
   247   1                     9.5      45.599999999999994      32.299999999999997
   248   1      7.6000000000000014      47.499999999999986      36.099999999999994
   249   1                     9.5      45.599999999999994      36.099999999999994
   250   1                     9.5      47.499999999999986      34.199999999999989
   251   1      7.6000000000000014      45.599999999999994      37.999999999999986
   252   1      7.6000000000000014      47.499999999999986      39.899999999999991
   253   1                     9.5      45.599999999999994      39.899999999999991
   254   1                     9.5      47.499999999999986      37.999999999999986
   255   1      7.6000000000000014      45.599999999999994      41.799999999999997
   256   1      7.6000000000000014      47.499999999999986      43.699999999999989
   257   1                     9.5      45.599999999999994      43.699999999999989
   258   1                     9.5      47.499999999999986      41.799999999999997
   259   1      7.6000000000000014      45.599999999999994      45.599999999999994
   260   1      7.6000000000000014      47.499999999999986      47.499999999999986
   261   1                     9.5      45.599999999999994      47.499999999999986
   262   1                     9.5      47.499999999999986      45.599999999999994
   263   1      7.6000000000000014      45.599999999999994      49.399999999999984
   264   1      7.6000000000000014      47.499999999999986      51.299999999999983
   265   1                     9.5      45.599999999999994      51.299999999999983
   266   1                     9.5      47.499999999999986      49.399999999999984
   267   1      7.6000000000000014      45.599999999999994      53.199999999999996
   268   1      7.6000000000000014      47.499999999999986      55.099999999999987
   269   1                     9.5      45.599999999999994      55.099999999999987
   270   1                     9.5      47.499999999999986      53.199999999999996
   271   1      7.6000000000000014      45.599999999999994      56.999999999999986
   272   1      7.6000000000000014      47.499999999999986      58.899999999999991
   273   1                     9.5      45.599999999999994      58.899999999999991
   274   1                     9.5      47.499999999999986      56.999999999999986
   275   1      7.6000000000000014      45.599999999999994       60.79999999999999
   276   1      7.6000000000000014      47.499999999999986      62.700000000000003
   277   1                     9.5      45.599999999999994      62.700000000000003
   278   1                     9.5      47.499999999999986       60.79999999999999
   279   1                     9.5      45.599999999999994      66.499999999999986
   280   1                     9.5      47.499999999999986      64.599999999999994
   281   1                     9.5      49.399999999999984      32.299999999999997
   282   1      7.6000000000000014      51.299999999999983      36.099999999999994
   283   1                     9.5      49.399999999999984      36.099999999999994
   284   1                     9.5      51.299999999999983      34.199999999999989
   285   1      7.6000000000000014      49.399999999999984      37.999999999999986
   286   1      7.6000000000000014      51.299999999999983      39.899999999999991
   287   1                     9.5      49.399999999999984      39.899999999999991
   288   1                     9.5      51.299999999999983      37.999999999999986
   289   1      7.6000000000000014      49.399999999999984      41.799999999999997
   290   1      7.6000000000000014      51.299999999999983      43.699999999999989
   291   1                     9.5      49.399999999999984      43.699999999999989
   292   1                     9.5      51.299999999999983      41.799999999999997
   293   1      7.6000000000000014      49.399999999999984      45.599999999999994
   294   1      7.6000000000000014      51.299999999999983      47.499999999999986
   295   1                     9.5      49.399999999999984      47.499999999999986
   296   1                     9.5      51.299999999999983      45.599999999999994
   297   1      7.6000000000000014      49.399999999999984      49.399999999999984
   298   1      7.6000000000000014      51.299999999999983      51.299999999999983
   299   1                     9.5      49.399999999999984      51.299999999999983
   300   1                     9.5      51.299999999999983      49.399999999999984
   301   1      7.6000000000000014      49.399999999999984      53.199999999999996
   302   1      7.6000000000000014      51.299999999999983      55.099999999999987
   303   1                     9.5      49.399999999999984      55.099999999999987
   304   1                     9.5      51.299999999999983      53.199999999999996
   305   1      7.6000000000000014      49.399999999999984      56.999999999999986
   306   1      7.6000000000000014      51.299999999999983      58.899999999999991
   307   1                     9.5      49.399999999999984      58.899999999999991
   308   1                     9.5      51.299999999999983      56.999999999999986
   309   1      7.6000000000000014      49.399999999999984       60.79999999999999
   310   1      7.6000000000000014      51.299999999999983      62.700000000000003
   311   1                     9.5      49.399999999999984      62.700000000000003
   312   1                     9.5      51.299999999999983       60.79999999999999
   313   1                     9.5      49.399999999999984      66.499999999999986
   314   1                     9.5      51.299999999999983      64.599999999999994
   315   1                     9.5      53.199999999999996      32.299999999999997
   316   1      7.6000000000000014      55.099999999999987      36.099999999999994
   317   1                     9.5      53.199999999999996      36.099999999999994
   318   1                     9.5      55.099999999999987      34.199999999999989
   319   1      7.6000000000000014      53.199999999999996      37.999999999999986
   320   1      7.6000000000000014      55.099999999999987      39.899999999999991
   321   1                     9.5      53.199999999999996      39.899999999999991
   322   1                     9.5      55.099999999999987      37.999999999999986
   323   1      7.6000000000000014      53.199999999999996      41.799999999999997
   324   1      7.6000000000000014      55.099999999999987      43.699999999999989
   325   1                     9.5      53.199999999999996      43.699999999999989
   326   1                     9.5      55.099999999999987      41.799999999999997
   327   1      7.6000000000000014      53.199999999999996      45.599999999999994
   328   1      7.6000000000000014      55.099999999999987      47.499999999999986
   329   1                     9.5      53.199999999999996      47.499999999999986
   330   1                     9.5      55.099999999999987      45.599999999999994
   331   1      7.6000000000000014      53.199999999999996      49.399999999999984
   332   1      7.6000000000000014      55.099999999999987      51.299999999999983
   333   1                     9.5      53.199999999999996      51.299999999999983
   334   1                     9.5      55.099999999999987      49.399999999999984
   335   1      7.6000000000000014      53.199999999999996      53.199999999999996
   336   1      7.6000000000000014      55.099999999999987      55.099999999999987
   337   1                     9.5      53.199999999999996      55.099999999999987
   338   1                     9.5      55.099999999999987      53.199999999999996
   339   1      7.6000000000000014      53.199999999999996      56.999999999999986
   340   1      7.6000000000000014      55.099999999999987      58.899999999999991
   341   1                     9.5      53.199999999999996      58.899999999999991
   342   1                     9.5      55.099999999999987      56.999999999999986
   343   1      7.6000000000000014      53.199999999999996       60.79999999999999
   344   1      7.6000000000000014      55.099999999999987      62.700000000000003
   345   1                     9.5      53.199999999999996      62.700000000000003
   346   1                     9.5      55.099999999999987       60.79999999999999
   347   1                     9.5      53.199999999999996      66.499999999999986
   348   1                     9.5      55.099999999999987      64.599999999999994
   349   1                     9.5      56.999999999999986      32.299999999999997
   350   1      7.6000000000000014      58.899999999999991      36.099999999999994
   351   1                     9.5      56.999999999999986      36.099999999999994
   352   1                     9.5      58.899999999999991      34.199999999999989
   353   1      7.6000000000000014      56.999999999999986      37.999999999999986
   354   1      7.6000000000000014      58.899999999999991      39.899999999999991
   355   1                     9.5      56.999999999999986      39.899999999999991
   356   1                     9.5      58.899999999999991      37.999999999999986
   357   1      7.6000000000000014      56.999999999999986      41.799999999999997
   358   1      7.6000000000000014      58.899999999999991      43.699999999999989