model_files/PdCu/PdCu_30000/PdCu_511/PdCu_511_fcc_30527_temp.data (written by ASE) 

30527 	 atoms 
2  atom types
0.0                      86  xlo xhi
0.0                      86  ylo yhi
0.0                      86  zlo zhi


Atoms 

     1   1  1.4210854715202004e-14      41.525000000000013      43.412500000000009
     2   1  1.4210854715202004e-14      43.412500000000009      41.525000000000013
     3   1  1.4210854715202004e-14      43.412500000000009      45.300000000000011
     4   1  1.4210854715202004e-14      45.300000000000011      43.412500000000009
     5   1      3.7750000000000123      22.650000000000009      43.412500000000009
     6   1      3.7750000000000123      24.537500000000012      41.525000000000013
     7   1      3.7750000000000123      26.425000000000011       39.63750000000001
     8   1      3.7750000000000123      24.537500000000012      45.300000000000011
     9   1      3.7750000000000123      26.425000000000011      43.412500000000009
    10   1      3.7750000000000123      26.425000000000011                 47.1875
    11   1      3.7750000000000123      28.312500000000011      37.750000000000014
    12   1      3.7750000000000123       30.20000000000001      35.862500000000011
    13   1      3.7750000000000123      28.312500000000011      41.525000000000013
    14   1      3.7750000000000123       30.20000000000001       39.63750000000001
    15   1      3.7750000000000123      28.312500000000011      45.300000000000011
    16   1      3.7750000000000123       30.20000000000001      43.412500000000009
    17   1      3.7750000000000123      28.312500000000011      49.075000000000003
    18   1      3.7750000000000123       30.20000000000001                 47.1875
    19   1      3.7750000000000123       30.20000000000001      50.962500000000006
    20   1      3.7750000000000123      32.087500000000013      33.975000000000016
    21   1      3.7750000000000123      33.975000000000016      32.087500000000013
    22   1      3.7750000000000123      32.087500000000013      37.750000000000014
    23   1      3.7750000000000123      33.975000000000016      35.862500000000011
    24   1      1.8875000000000099      33.975000000000016      41.525000000000013
    25   1      3.7750000000000123      32.087500000000013      41.525000000000013
    26   1      3.7750000000000123      33.975000000000016       39.63750000000001
    27   1      1.8875000000000099      32.087500000000013      43.412500000000009
    28   1      1.8875000000000099      33.975000000000016      45.300000000000011
    29   1      3.7750000000000123      32.087500000000013      45.300000000000011
    30   1      3.7750000000000123      33.975000000000016      43.412500000000009
    31   1      3.7750000000000123      32.087500000000013      49.075000000000003
    32   1      3.7750000000000123      33.975000000000016                 47.1875
    33   1      3.7750000000000123      32.087500000000013      52.850000000000023
    34   1      3.7750000000000123      33.975000000000016      50.962500000000006
    35   1      3.7750000000000123      33.975000000000016      54.737500000000011
    36   1      3.7750000000000123      35.862500000000011       30.20000000000001
    37   1      3.7750000000000123      37.750000000000014      28.312500000000011
    38   1      3.7750000000000123      35.862500000000011      33.975000000000016
    39   1      3.7750000000000123      37.750000000000014      32.087500000000013
    40   1      1.8875000000000099      37.750000000000014      37.750000000000014
    41   1      3.7750000000000123      35.862500000000011      37.750000000000014
    42   1      3.7750000000000123      37.750000000000014      35.862500000000011
    43   1      1.8875000000000099      35.862500000000011       39.63750000000001
    44   1      1.8875000000000099      37.750000000000014      41.525000000000013
    45   1      3.7750000000000123      35.862500000000011      41.525000000000013
    46   1      3.7750000000000123      37.750000000000014       39.63750000000001
    47   1      1.8875000000000099      35.862500000000011      43.412500000000009
    48   1      1.8875000000000099      37.750000000000014      45.300000000000011
    49   1      3.7750000000000123      35.862500000000011      45.300000000000011
    50   1      3.7750000000000123      37.750000000000014      43.412500000000009
    51   1      1.8875000000000099      35.862500000000011                 47.1875
    52   1      1.8875000000000099      37.750000000000014      49.075000000000003
    53   1      3.7750000000000123      35.862500000000011      49.075000000000003
    54   1      3.7750000000000123      37.750000000000014                 47.1875
    55   1      3.7750000000000123      35.862500000000011      52.850000000000023
    56   1      3.7750000000000123      37.750000000000014      50.962500000000006
    57   1      3.7750000000000123      35.862500000000011      56.625000000000014
    58   1      3.7750000000000123      37.750000000000014      54.737500000000011
    59   1      3.7750000000000123      37.750000000000014       58.51250000000001
    60   1      3.7750000000000123       39.63750000000001      26.425000000000011
    61   1      3.7750000000000123      41.525000000000013      24.537500000000012
    62   1      3.7750000000000123       39.63750000000001       30.20000000000001
    63   1      3.7750000000000123      41.525000000000013      28.312500000000011
    64   1      1.8875000000000099      41.525000000000013      33.975000000000016
    65   1      3.7750000000000123       39.63750000000001      33.975000000000016
    66   1      3.7750000000000123      41.525000000000013      32.087500000000013
    67   1      1.8875000000000099       39.63750000000001      35.862500000000011
    68   1      1.8875000000000099      41.525000000000013      37.750000000000014
    69   1      3.7750000000000123       39.63750000000001      37.750000000000014
    70   1      3.7750000000000123      41.525000000000013      35.862500000000011
    71   1      1.8875000000000099       39.63750000000001       39.63750000000001
    72   1      1.8875000000000099      41.525000000000013      41.525000000000013
    73   1      3.7750000000000123       39.63750000000001      41.525000000000013
    74   1      3.7750000000000123      41.525000000000013       39.63750000000001
    75   1      1.8875000000000099       39.63750000000001      43.412500000000009
    76   1      1.8875000000000099      41.525000000000013      45.300000000000011
    77   1      3.7750000000000123       39.63750000000001      45.300000000000011
    78   1      3.7750000000000123      41.525000000000013      43.412500000000009
    79   1      1.8875000000000099       39.63750000000001                 47.1875
    80   1      1.8875000000000099      41.525000000000013      49.075000000000003
    81   1      3.7750000000000123       39.63750000000001      49.075000000000003
    82   1      3.7750000000000123      41.525000000000013                 47.1875
    83   1      1.8875000000000099       39.63750000000001      50.962500000000006
    84   1      1.8875000000000099      41.525000000000013      52.850000000000023
    85   1      3.7750000000000123       39.63750000000001      52.850000000000023
    86   1      3.7750000000000123      41.525000000000013      50.962500000000006
    87   1      3.7750000000000123       39.63750000000001      56.625000000000014
    88   1      3.7750000000000123      41.525000000000013      54.737500000000011
    89   1      3.7750000000000123       39.63750000000001      60.400000000000013
    90   1      3.7750000000000123      41.525000000000013       58.51250000000001
    91   1      3.7750000000000123      41.525000000000013      62.287500000000016
    92   1      3.7750000000000123      43.412500000000009      22.650000000000009
    93   1      3.7750000000000123      43.412500000000009      26.425000000000011
    94   1      3.7750000000000123      45.300000000000011      24.537500000000012
    95   1      3.7750000000000123      43.412500000000009       30.20000000000001
    96   1      3.7750000000000123      45.300000000000011      28.312500000000011
    97   1      1.8875000000000099      43.412500000000009      32.087500000000013
    98   1      1.8875000000000099      45.300000000000011      33.975000000000016
    99   1      3.7750000000000123      43.412500000000009      33.975000000000016
   100   1      3.7750000000000123      45.300000000000011      32.087500000000013
   101   1      1.8875000000000099      43.412500000000009      35.862500000000011
   102   1      1.8875000000000099      45.300000000000011      37.750000000000014
   103   1      3.7750000000000123      43.412500000000009      37.750000000000014
   104   1      3.7750000000000123      45.300000000000011      35.862500000000011
   105   1      1.8875000000000099      43.412500000000009       39.63750000000001
   106   1      1.8875000000000099      45.300000000000011      41.525000000000013
   107   1      3.7750000000000123      43.412500000000009      41.525000000000013
   108   1      3.7750000000000123      45.300000000000011       39.63750000000001
   109   1      1.8875000000000099      43.412500000000009      43.412500000000009
   110   1      1.8875000000000099      45.300000000000011      45.300000000000011
   111   1      3.7750000000000123      43.412500000000009      45.300000000000011
   112   1      3.7750000000000123      45.300000000000011      43.412500000000009
   113   1      1.8875000000000099      43.412500000000009                 47.1875
   114   1      1.8875000000000099      45.300000000000011      49.075000000000003
   115   1      3.7750000000000123      43.412500000000009      49.075000000000003
   116   1      3.7750000000000123      45.300000000000011                 47.1875
   117   1      1.8875000000000099      43.412500000000009      50.962500000000006
   118   1      1.8875000000000099      45.300000000000011      52.850000000000023
   119   1      3.7750000000000123      43.412500000000009      52.850000000000023
   120   1      3.7750000000000123      45.300000000000011      50.962500000000006
   121   1      1.8875000000000099      43.412500000000009      54.737500000000011
   122   1      3.7750000000000123      43.412500000000009      56.625000000000014
   123   1      3.7750000000000123      45.300000000000011      54.737500000000011
   124   1      3.7750000000000123      43.412500000000009      60.400000000000013
   125   1      3.7750000000000123      45.300000000000011       58.51250000000001
   126   1      3.7750000000000123      43.412500000000009      64.175000000000011
   127   1      3.7750000000000123      45.300000000000011      62.287500000000016
   128   1      3.7750000000000123                 47.1875      26.425000000000011
   129   1      3.7750000000000123                 47.1875       30.20000000000001
   130   1      3.7750000000000123      49.075000000000003      28.312500000000011
   131   1      3.7750000000000123                 47.1875      33.975000000000016
   132   1      3.7750000000000123      49.075000000000003      32.087500000000013
   133   1      1.8875000000000099                 47.1875      35.862500000000011
   134   1      1.8875000000000099      49.075000000000003      37.750000000000014
   135   1      3.7750000000000123                 47.1875      37.750000000000014
   136   1      3.7750000000000123      49.075000000000003      35.862500000000011
   137   1      1.8875000000000099                 47.1875       39.63750000000001
   138   1      1.8875000000000099      49.075000000000003      41.525000000000013
   139   1      3.7750000000000123                 47.1875      41.525000000000013
   140   1      3.7750000000000123      49.075000000000003       39.63750000000001
   141   1      1.8875000000000099                 47.1875      43.412500000000009
   142   1      1.8875000000000099      49.075000000000003      45.300000000000011
   143   1      3.7750000000000123                 47.1875      45.300000000000011
   144   1      3.7750000000000123      49.075000000000003      43.412500000000009
   145   1      1.8875000000000099                 47.1875                 47.1875
   146   1      1.8875000000000099      49.075000000000003      49.075000000000003
   147   1      3.7750000000000123                 47.1875      49.075000000000003
   148   1      3.7750000000000123      49.075000000000003                 47.1875
   149   1      1.8875000000000099                 47.1875      50.962500000000006
   150   1      3.7750000000000123                 47.1875      52.850000000000023
   151   1      3.7750000000000123      49.075000000000003      50.962500000000006
   152   1      3.7750000000000123                 47.1875      56.625000000000014
   153   1      3.7750000000000123      49.075000000000003      54.737500000000011
   154   1      3.7750000000000123                 47.1875      60.400000000000013
   155   1      3.7750000000000123      49.075000000000003       58.51250000000001
   156   1      3.7750000000000123      50.962500000000006       30.20000000000001
   157   1      3.7750000000000123      50.962500000000006      33.975000000000016
   158   1      3.7750000000000123      52.850000000000023      32.087500000000013
   159   1      3.7750000000000123      50.962500000000006      37.750000000000014
   160   1      3.7750000000000123      52.850000000000023      35.862500000000011
   161   1      1.8875000000000099      50.962500000000006       39.63750000000001
   162   1      1.8875000000000099      52.850000000000023      41.525000000000013
   163   1      3.7750000000000123      50.962500000000006      41.525000000000013
   164   1      3.7750000000000123      52.850000000000023       39.63750000000001
   165   1      1.8875000000000099      50.962500000000006      43.412500000000009
   166   1      1.8875000000000099      52.850000000000023      45.300000000000011
   167   1      3.7750000000000123      50.962500000000006      45.300000000000011
   168   1      3.7750000000000123      52.850000000000023      43.412500000000009
   169   1      1.8875000000000099      50.962500000000006                 47.1875
   170   1      3.7750000000000123      50.962500000000006      49.075000000000003
   171   1      3.7750000000000123      52.850000000000023                 47.1875
   172   1      3.7750000000000123      50.962500000000006      52.850000000000023
   173   1      3.7750000000000123      52.850000000000023      50.962500000000006
   174   1      3.7750000000000123      50.962500000000006      56.625000000000014
   175   1      3.7750000000000123      52.850000000000023      54.737500000000011
   176   1      3.7750000000000123      54.737500000000011      33.975000000000016
   177   1      3.7750000000000123      54.737500000000011      37.750000000000014
   178   1      3.7750000000000123      56.625000000000014      35.862500000000011
   179   1      3.7750000000000123      54.737500000000011      41.525000000000013
   180   1      3.7750000000000123      56.625000000000014       39.63750000000001
   181   1      1.8875000000000099      54.737500000000011      43.412500000000009
   182   1      3.7750000000000123      54.737500000000011      45.300000000000011
   183   1      3.7750000000000123      56.625000000000014      43.412500000000009
   184   1      3.7750000000000123      54.737500000000011      49.075000000000003
   185   1      3.7750000000000123      56.625000000000014                 47.1875
   186   1      3.7750000000000123      54.737500000000011      52.850000000000023
   187   1      3.7750000000000123      56.625000000000014      50.962500000000006
   188   1      3.7750000000000123       58.51250000000001      37.750000000000014
   189   1      3.7750000000000123       58.51250000000001      41.525000000000013
   190   1      3.7750000000000123      60.400000000000013       39.63750000000001
   191   1      3.7750000000000123       58.51250000000001      45.300000000000011
   192   1      3.7750000000000123      60.400000000000013      43.412500000000009
   193   1      3.7750000000000123       58.51250000000001      49.075000000000003
   194   1      3.7750000000000123      60.400000000000013                 47.1875
   195   1      3.7750000000000123      62.287500000000016      41.525000000000013
   196   1      3.7750000000000123      62.287500000000016      45.300000000000011
   197   1      3.7750000000000123      64.175000000000011      43.412500000000009
   198   1      7.5500000000000105      7.5500000000000105       39.63750000000001
   199   1      7.5500000000000105      7.5500000000000105      43.412500000000009
   200   1      7.5500000000000105      7.5500000000000105                 47.1875
   201   1      7.5500000000000105      9.4375000000000142      37.750000000000014
   202   1      7.5500000000000105       11.32500000000001      35.862500000000011
   203   1      7.5500000000000105      9.4375000000000142      41.525000000000013
   204   1      7.5500000000000105       11.32500000000001       39.63750000000001
   205   1      7.5500000000000105      9.4375000000000142      45.300000000000011
   206   1      7.5500000000000105       11.32500000000001      43.412500000000009
   207   1      7.5500000000000105      9.4375000000000142      49.075000000000003
   208   1      7.5500000000000105       11.32500000000001                 47.1875
   209   1      7.5500000000000105       11.32500000000001      50.962500000000006
   210   1      7.5500000000000105      13.212500000000013      33.975000000000016
   211   1      7.5500000000000105      15.100000000000012      32.087500000000013
   212   1      7.5500000000000105      13.212500000000013      37.750000000000014
   213   1      7.5500000000000105      15.100000000000012      35.862500000000011
   214   1      5.6625000000000085      15.100000000000012      41.525000000000013
   215   1      7.5500000000000105      13.212500000000013      41.525000000000013
   216   1      7.5500000000000105      15.100000000000012       39.63750000000001
   217   1      5.6625000000000085      13.212500000000013      43.412500000000009
   218   1      5.6625000000000085      15.100000000000012      45.300000000000011
   219   1      7.5500000000000105      13.212500000000013      45.300000000000011
   220   1      7.5500000000000105      15.100000000000012      43.412500000000009
   221   1      7.5500000000000105      13.212500000000013      49.075000000000003
   222   1      7.5500000000000105      15.100000000000012                 47.1875
   223   1      7.5500000000000105      13.212500000000013      52.850000000000023
   224   1      7.5500000000000105      15.100000000000012      50.962500000000006
   225   1      7.5500000000000105      15.100000000000012      54.737500000000011
   226   1      7.5500000000000105      16.987500000000011       30.20000000000001
   227   1      7.5500000000000105      18.875000000000011      28.312500000000011
   228   1      7.5500000000000105      16.987500000000011      33.975000000000016
   229   1      7.5500000000000105      18.875000000000011      32.087500000000013
   230   1      5.6625000000000085      18.875000000000011      37.750000000000014
   231   1      7.5500000000000105      16.987500000000011      37.750000000000014
   232   1      7.5500000000000105      18.875000000000011      35.862500000000011
   233   1      5.6625000000000085      16.987500000000011       39.63750000000001
   234   1      5.6625000000000085      18.875000000000011      41.525000000000013
   235   1      7.5500000000000105      16.987500000000011      41.525000000000013
   236   1      7.5500000000000105      18.875000000000011       39.63750000000001
   237   1      5.6625000000000085      16.987500000000011      43.412500000000009
   238   1      5.6625000000000085      18.875000000000011      45.300000000000011
   239   1      7.5500000000000105      16.987500000000011      45.300000000000011
   240   1      7.5500000000000105      18.875000000000011      43.412500000000009
   241   1      5.6625000000000085      16.987500000000011                 47.1875
   242   1      5.6625000000000085      18.875000000000011      49.075000000000003
   243   1      7.5500000000000105      16.987500000000011      49.075000000000003
   244   1      7.5500000000000105      18.875000000000011                 47.1875
   245   1      7.5500000000000105      16.987500000000011      52.850000000000023
   246   1      7.5500000000000105      18.875000000000011      50.962500000000006
   247   1      7.5500000000000105      16.987500000000011      56.625000000000014
   248   1      7.5500000000000105      18.875000000000011      54.737500000000011
   249   1      7.5500000000000105      18.875000000000011       58.51250000000001
   250   1      7.5500000000000105       20.76250000000001      26.425000000000011
   251   1      7.5500000000000105      22.650000000000009      24.537500000000012
   252   1      7.5500000000000105       20.76250000000001       30.20000000000001
   253   1      7.5500000000000105      22.650000000000009      28.312500000000011
   254   1      5.6625000000000085      22.650000000000009      33.975000000000016
   255   1      7.5500000000000105       20.76250000000001      33.975000000000016
   256   1      7.5500000000000105      22.650000000000009      32.087500000000013
   257   1      5.6625000000000085       20.76250000000001      35.862500000000011
   258   1      5.6625000000000085      22.650000000000009      37.750000000000014
   259   1      7.5500000000000105       20.76250000000001      37.750000000000014
   260   1      7.5500000000000105      22.650000000000009      35.862500000000011
   261   1      5.6625000000000085       20.76250000000001       39.63750000000001
   262   1      5.6625000000000085      22.650000000000009      41.525000000000013
   263   1      7.5500000000000105       20.76250000000001      41.525000000000013
   264   1      7.5500000000000105      22.650000000000009       39.63750000000001
   265   1      5.6625000000000085       20.76250000000001      43.412500000000009
   266   1      5.6625000000000085      22.650000000000009      45.300000000000011
   267   1      7.5500000000000105       20.76250000000001      45.300000000000011
   268   1      7.5500000000000105      22.650000000000009      43.412500000000009
   269   1      5.6625000000000085       20.76250000000001                 47.1875
   270   1      5.6625000000000085      22.650000000000009      49.075000000000003
   271   1      7.5500000000000105       20.76250000000001      49.075000000000003
   272   1      7.5500000000000105      22.650000000000009                 47.1875
   273   1      5.6625000000000085       20.76250000000001      50.962500000000006
   274   1      5.6625000000000085      22.650000000000009      52.850000000000023
   275   1      7.5500000000000105       20.76250000000001      52.850000000000023
   276   1      7.5500000000000105      22.650000000000009      50.962500000000006
   277   1      7.5500000000000105       20.76250000000001      56.625000000000014
   278   1      7.5500000000000105      22.650000000000009      54.737500000000011
   279   1      7.5500000000000105       20.76250000000001      60.400000000000013
   280   1      7.5500000000000105      22.650000000000009       58.51250000000001
   281   1      7.5500000000000105      22.650000000000009      62.287500000000016
   282   1      7.5500000000000105      24.537500000000012      22.650000000000009
   283   1      7.5500000000000105      26.425000000000011       20.76250000000001
   284   1      7.5500000000000105      24.537500000000012      26.425000000000011
   285   1      7.5500000000000105      26.425000000000011      24.537500000000012
   286   1      5.6625000000000085      26.425000000000011       30.20000000000001
   287   1      7.5500000000000105      24.537500000000012       30.20000000000001
   288   1      7.5500000000000105      26.425000000000011      28.312500000000011
   289   1      5.6625000000000085      24.537500000000012      32.087500000000013
   290   1      5.6625000000000085      26.425000000000011      33.975000000000016
   291   1      7.5500000000000105      24.537500000000012      33.975000000000016
   292   1      7.5500000000000105      26.425000000000011      32.087500000000013
   293   1      5.6625000000000085      24.537500000000012      35.862500000000011
   294   1      5.6625000000000085      26.425000000000011      37.750000000000014
   295   1      7.5500000000000105      24.537500000000012      37.750000000000014
   296   1      7.5500000000000105      26.425000000000011      35.862500000000011
   297   1      5.6625000000000085      24.537500000000012       39.63750000000001
   298   1      5.6625000000000085      26.425000000000011      41.525000000000013
   299   1      7.5500000000000105      24.537500000000012      41.525000000000013
   300   1      7.5500000000000105      26.425000000000011       39.63750000000001
   301   1      5.6625000000000085      24.537500000000012      43.412500000000009
   302   1      5.6625000000000085      26.425000000000011      45.300000000000011
   303   1      7.5500000000000105      24.537500000000012      45.300000000000011
   304   1      7.5500000000000105      26.425000000000011      43.412500000000009
   305   1      5.6625000000000085      24.537500000000012                 47.1875
   306   1      5.6625000000000085      26.425000000000011      49.075000000000003
   307   1      7.5500000000000105      24.537500000000012      49.075000000000003
   308   1      7.5500000000000105      26.425000000000011                 47.1875
   309   1      5.6625000000000085      24.537500000000012      50.962500000000006
   310   1      5.6625000000000085      26.425000000000011      52.850000000000023
   311   1      7.5500000000000105      24.537500000000012      52.850000000000023
   312   1      7.5500000000000105      26.425000000000011      50.962500000000006
   313   1      5.6625000000000085      24.537500000000012      54.737500000000011
   314   1      5.6625000000000085      26.425000000000011      56.625000000000014
   315   1      7.5500000000000105      24.537500000000012      56.625000000000014
   316   1      7.5500000000000105      26.425000000000011      54.737500000000011
   317   1      7.5500000000000105      24.537500000000012      60.400000000000013
   318   1      7.5500000000000105      26.425000000000011       58.51250000000001
   319   1      7.5500000000000105      24.537500000000012      64.175000000000011
   320   1      7.5500000000000105      26.425000000000011      62.287500000000016
   321   1      7.5500000000000105      26.425000000000011      66.062500000000014
   322   1      7.5500000000000105      28.312500000000011      18.875000000000011
   323   1      7.5500000000000105       30.20000000000001      16.987500000000011
   324   1      7.5500000000000105      28.312500000000011      22.650000000000009
   325   1      7.5500000000000105       30.20000000000001       20.76250000000001
   326   1      5.6625000000000085       30.20000000000001      26.425000000000011
   327   1      7.5500000000000105      28.312500000000011      26.425000000000011
   328   1      7.5500000000000105       30.20000000000001      24.537500000000012
   329   1      5.6625000000000085      28.312500000000011      28.312500000000011
   330   1      5.6625000000000085       30.20000000000001       30.20000000000001
   331   1      7.5500000000000105      28.312500000000011       30.20000000000001
   332   1      7.5500000000000105       30.20000000000001      28.312500000000011
   333   1      5.6625000000000085      28.312500000000011      32.087500000000013
   334   1      5.6625000000000085       30.20000000000001      33.975000000000016
   335   1      7.5500000000000105      28.312500000000011      33.975000000000016
   336   1      7.5500000000000105       30.20000000000001      32.087500000000013
   337   1      5.6625000000000085      28.312500000000011      35.862500000000011
   338   1      5.6625000000000085       30.20000000000001      37.750000000000014
   339   1      7.5500000000000105      28.312500000000011      37.750000000000014
   340   1      7.5500000000000105       30.20000000000001      35.862500000000011
   341   1      5.6625000000000085      28.312500000000011       39.63750000000001
   342   1      5.6625000000000085       30.20000000000001      41.525000000000013
   343   1      7.5500000000000105      28.312500000000011      41.525000000000013
   344   1      7.5500000000000105       30.20000000000001       39.63750000000001
   345   1      5.6625000000000085      28.312500000000011      43.412500000000009
   346   1      5.6625000000000085       30.20000000000001      45.300000000000011
   347   1      7.5500000000000105      28.312500000000011      45.300000000000011
   348   1      7.5500000000000105       30.20000000000001      43.412500000000009
   349   1      5.6625000000000085      28.312500000000011                 47.1875
   350   1      5.6625000000000085       30.20000000000001      49.075000000000003
   351   1      7.5500000000000105      28.312500000000011      49.075000000000003
   352   1      7.5500000000000105       30.20000000000001                 47.1875
   353   1      5.6625000000000085      28.312500000000011      50.962500000000006
   354   1      5.6625000000000085       30.20000000000001      52.850000000000023
   355   1      7.5500000000000105      28.312500000000011      52.850000000000023
   356   1      7.5500000000000105       30.20000000000001      50.962500000000006
   357   1      5.6625000000000085      28.312500000000011      54.737500000000011
   358   1      5.6625000000000085       30.20000000000001      56.625000000000014