model_files/NiFeCrCoCu/NiFeCrCoCu_30000/NiFeCrCoCu_553/NiFeCrCoCu_553_fcc_29881_temp.data (written by ASE) 

29881 	 atoms 
5  atom types
0.0                     114  xlo xhi
0.0                     114  ylo yhi
0.0                     114  zlo zhi


Atoms 

     1   1      113.99999999999999       55.33499999999998       55.33499999999998
     2   1      1.7849999999999895       53.54999999999999       55.33499999999998
     3   1      1.7849999999999895       55.33499999999998       53.54999999999999
     4   1      113.99999999999999       55.33499999999998       58.90499999999998
     5   1      1.7849999999999895       53.54999999999999       58.90499999999998
     6   1      1.7849999999999895       55.33499999999998       57.11999999999999
     7   1      1.7849999999999895       55.33499999999998      60.689999999999976
     8   1      113.99999999999999       58.90499999999998       55.33499999999998
     9   1      1.7849999999999895       57.11999999999999       55.33499999999998
    10   1      1.7849999999999895       58.90499999999998       53.54999999999999
    11   1      113.99999999999999       57.11999999999999       57.11999999999999
    12   1      113.99999999999999       58.90499999999998       58.90499999999998
    13   1      1.7849999999999895       57.11999999999999       58.90499999999998
    14   1      1.7849999999999895       58.90499999999998       57.11999999999999
    15   1      1.7849999999999895       58.90499999999998      60.689999999999976
    16   1      1.7849999999999895      60.689999999999976       55.33499999999998
    17   1      1.7849999999999895      60.689999999999976       58.90499999999998
    18   1      3.5699999999999932      51.764999999999986       55.33499999999998
    19   1      5.3549999999999898      49.979999999999983       55.33499999999998
    20   1      5.3549999999999898      51.764999999999986       53.54999999999999
    21   1      3.5699999999999932      51.764999999999986       58.90499999999998
    22   1      5.3549999999999898      49.979999999999983       58.90499999999998
    23   1      5.3549999999999898      51.764999999999986       57.11999999999999
    24   1      5.3549999999999898      51.764999999999986      60.689999999999976
    25   1      3.5699999999999932       55.33499999999998      51.764999999999986
    26   1      5.3549999999999898       53.54999999999999      51.764999999999986
    27   1      5.3549999999999898       55.33499999999998      49.979999999999983
    28   1      3.5699999999999932       53.54999999999999       53.54999999999999
    29   1      3.5699999999999932       55.33499999999998       55.33499999999998
    30   1      5.3549999999999898       53.54999999999999       55.33499999999998
    31   1      5.3549999999999898       55.33499999999998       53.54999999999999
    32   1      3.5699999999999932       53.54999999999999       57.11999999999999
    33   1      3.5699999999999932       55.33499999999998       58.90499999999998
    34   1      5.3549999999999898       53.54999999999999       58.90499999999998
    35   1      5.3549999999999898       55.33499999999998       57.11999999999999
    36   1      3.5699999999999932       53.54999999999999      60.689999999999976
    37   1      3.5699999999999932       55.33499999999998      62.474999999999973
    38   1      5.3549999999999898       53.54999999999999      62.474999999999973
    39   1      5.3549999999999898       55.33499999999998      60.689999999999976
    40   1      5.3549999999999898       55.33499999999998      64.259999999999991
    41   1      3.5699999999999932       58.90499999999998      51.764999999999986
    42   1      5.3549999999999898       57.11999999999999      51.764999999999986
    43   1      5.3549999999999898       58.90499999999998      49.979999999999983
    44   1      3.5699999999999932       57.11999999999999       53.54999999999999
    45   1      3.5699999999999932       58.90499999999998       55.33499999999998
    46   1      5.3549999999999898       57.11999999999999       55.33499999999998
    47   1      5.3549999999999898       58.90499999999998       53.54999999999999
    48   1      3.5699999999999932       57.11999999999999       57.11999999999999
    49   1      3.5699999999999932       58.90499999999998       58.90499999999998
    50   1      5.3549999999999898       57.11999999999999       58.90499999999998
    51   1      5.3549999999999898       58.90499999999998       57.11999999999999
    52   1      3.5699999999999932       57.11999999999999      60.689999999999976
    53   1      3.5699999999999932       58.90499999999998      62.474999999999973
    54   1      5.3549999999999898       57.11999999999999      62.474999999999973
    55   1      5.3549999999999898       58.90499999999998      60.689999999999976
    56   1      5.3549999999999898       58.90499999999998      64.259999999999991
    57   1      5.3549999999999898      60.689999999999976      51.764999999999986
    58   1      3.5699999999999932      60.689999999999976       53.54999999999999
    59   1      3.5699999999999932      62.474999999999973       55.33499999999998
    60   1      5.3549999999999898      60.689999999999976       55.33499999999998
    61   1      5.3549999999999898      62.474999999999973       53.54999999999999
    62   1      3.5699999999999932      60.689999999999976       57.11999999999999
    63   1      3.5699999999999932      62.474999999999973       58.90499999999998
    64   1      5.3549999999999898      60.689999999999976       58.90499999999998
    65   1      5.3549999999999898      62.474999999999973       57.11999999999999
    66   1      3.5699999999999932      60.689999999999976      60.689999999999976
    67   1      5.3549999999999898      60.689999999999976      62.474999999999973
    68   1      5.3549999999999898      62.474999999999973      60.689999999999976
    69   1      5.3549999999999898      64.259999999999991       55.33499999999998
    70   1      5.3549999999999898      64.259999999999991       58.90499999999998
    71   1      7.1399999999999926      48.194999999999979       55.33499999999998
    72   1      8.9249999999999901      46.409999999999989       55.33499999999998
    73   1      8.9249999999999901      48.194999999999979       53.54999999999999
    74   1      7.1399999999999926      48.194999999999979       58.90499999999998
    75   1      8.9249999999999901      46.409999999999989       58.90499999999998
    76   1      8.9249999999999901      48.194999999999979       57.11999999999999
    77   1      8.9249999999999901      48.194999999999979      60.689999999999976
    78   1      7.1399999999999926      51.764999999999986      51.764999999999986
    79   1      8.9249999999999901      49.979999999999983      51.764999999999986
    80   1      8.9249999999999901      51.764999999999986      49.979999999999983
    81   1      7.1399999999999926      49.979999999999983       53.54999999999999
    82   1      7.1399999999999926      51.764999999999986       55.33499999999998
    83   1      8.9249999999999901      49.979999999999983       55.33499999999998
    84   1      8.9249999999999901      51.764999999999986       53.54999999999999
    85   1      7.1399999999999926      49.979999999999983       57.11999999999999
    86   1      7.1399999999999926      51.764999999999986       58.90499999999998
    87   1      8.9249999999999901      49.979999999999983       58.90499999999998
    88   1      8.9249999999999901      51.764999999999986       57.11999999999999
    89   1      7.1399999999999926      49.979999999999983      60.689999999999976
    90   1      7.1399999999999926      51.764999999999986      62.474999999999973
    91   1      8.9249999999999901      49.979999999999983      62.474999999999973
    92   1      8.9249999999999901      51.764999999999986      60.689999999999976
    93   1      8.9249999999999901      51.764999999999986      64.259999999999991
    94   1      7.1399999999999926       55.33499999999998      48.194999999999979
    95   1      8.9249999999999901       53.54999999999999      48.194999999999979
    96   1      8.9249999999999901       55.33499999999998      46.409999999999989
    97   1      7.1399999999999926       53.54999999999999      49.979999999999983
    98   1      7.1399999999999926       55.33499999999998      51.764999999999986
    99   1      8.9249999999999901       53.54999999999999      51.764999999999986
   100   1      8.9249999999999901       55.33499999999998      49.979999999999983
   101   1      7.1399999999999926       53.54999999999999       53.54999999999999
   102   1      7.1399999999999926       55.33499999999998       55.33499999999998
   103   1      8.9249999999999901       53.54999999999999       55.33499999999998
   104   1      8.9249999999999901       55.33499999999998       53.54999999999999
   105   1      7.1399999999999926       53.54999999999999       57.11999999999999
   106   1      7.1399999999999926       55.33499999999998       58.90499999999998
   107   1      8.9249999999999901       53.54999999999999       58.90499999999998
   108   1      8.9249999999999901       55.33499999999998       57.11999999999999
   109   1      7.1399999999999926       53.54999999999999      60.689999999999976
   110   1      7.1399999999999926       55.33499999999998      62.474999999999973
   111   1      8.9249999999999901       53.54999999999999      62.474999999999973
   112   1      8.9249999999999901       55.33499999999998      60.689999999999976
   113   1      7.1399999999999926       53.54999999999999      64.259999999999991
   114   1      7.1399999999999926       55.33499999999998      66.044999999999987
   115   1      8.9249999999999901       53.54999999999999      66.044999999999987
   116   1      8.9249999999999901       55.33499999999998      64.259999999999991
   117   1      8.9249999999999901       55.33499999999998      67.829999999999984
   118   1      7.1399999999999926       58.90499999999998      48.194999999999979
   119   1      8.9249999999999901       57.11999999999999      48.194999999999979
   120   1      8.9249999999999901       58.90499999999998      46.409999999999989
   121   1      7.1399999999999926       57.11999999999999      49.979999999999983
   122   1      7.1399999999999926       58.90499999999998      51.764999999999986
   123   1      8.9249999999999901       57.11999999999999      51.764999999999986
   124   1      8.9249999999999901       58.90499999999998      49.979999999999983
   125   1      7.1399999999999926       57.11999999999999       53.54999999999999
   126   1      7.1399999999999926       58.90499999999998       55.33499999999998
   127   1      8.9249999999999901       57.11999999999999       55.33499999999998
   128   1      8.9249999999999901       58.90499999999998       53.54999999999999
   129   1      7.1399999999999926       57.11999999999999       57.11999999999999
   130   1      7.1399999999999926       58.90499999999998       58.90499999999998
   131   1      8.9249999999999901       57.11999999999999       58.90499999999998
   132   1      8.9249999999999901       58.90499999999998       57.11999999999999
   133   1      7.1399999999999926       57.11999999999999      60.689999999999976
   134   1      7.1399999999999926       58.90499999999998      62.474999999999973
   135   1      8.9249999999999901       57.11999999999999      62.474999999999973
   136   1      8.9249999999999901       58.90499999999998      60.689999999999976
   137   1      7.1399999999999926       57.11999999999999      64.259999999999991
   138   1      7.1399999999999926       58.90499999999998      66.044999999999987
   139   1      8.9249999999999901       57.11999999999999      66.044999999999987
   140   1      8.9249999999999901       58.90499999999998      64.259999999999991
   141   1      8.9249999999999901       58.90499999999998      67.829999999999984
   142   1      8.9249999999999901      60.689999999999976      48.194999999999979
   143   1      7.1399999999999926      60.689999999999976      49.979999999999983
   144   1      7.1399999999999926      62.474999999999973      51.764999999999986
   145   1      8.9249999999999901      60.689999999999976      51.764999999999986
   146   1      8.9249999999999901      62.474999999999973      49.979999999999983
   147   1      7.1399999999999926      60.689999999999976       53.54999999999999
   148   1      7.1399999999999926      62.474999999999973       55.33499999999998
   149   1      8.9249999999999901      60.689999999999976       55.33499999999998
   150   1      8.9249999999999901      62.474999999999973       53.54999999999999
   151   1      7.1399999999999926      60.689999999999976       57.11999999999999
   152   1      7.1399999999999926      62.474999999999973       58.90499999999998
   153   1      8.9249999999999901      60.689999999999976       58.90499999999998
   154   1      8.9249999999999901      62.474999999999973       57.11999999999999
   155   1      7.1399999999999926      60.689999999999976      60.689999999999976
   156   1      7.1399999999999926      62.474999999999973      62.474999999999973
   157   1      8.9249999999999901      60.689999999999976      62.474999999999973
   158   1      8.9249999999999901      62.474999999999973      60.689999999999976
   159   1      7.1399999999999926      60.689999999999976      64.259999999999991
   160   1      8.9249999999999901      60.689999999999976      66.044999999999987
   161   1      8.9249999999999901      62.474999999999973      64.259999999999991
   162   1      8.9249999999999901      64.259999999999991      51.764999999999986
   163   1      7.1399999999999926      64.259999999999991       53.54999999999999
   164   1      7.1399999999999926      66.044999999999987       55.33499999999998
   165   1      8.9249999999999901      64.259999999999991       55.33499999999998
   166   1      8.9249999999999901      66.044999999999987       53.54999999999999
   167   1      7.1399999999999926      64.259999999999991       57.11999999999999
   168   1      7.1399999999999926      66.044999999999987       58.90499999999998
   169   1      8.9249999999999901      64.259999999999991       58.90499999999998
   170   1      8.9249999999999901      66.044999999999987       57.11999999999999
   171   1      7.1399999999999926      64.259999999999991      60.689999999999976
   172   1      8.9249999999999901      64.259999999999991      62.474999999999973
   173   1      8.9249999999999901      66.044999999999987      60.689999999999976
   174   1      8.9249999999999901      67.829999999999984       55.33499999999998
   175   1      8.9249999999999901      67.829999999999984       58.90499999999998
   176   1      10.709999999999994      44.624999999999986       55.33499999999998
   177   1       12.49499999999999      42.839999999999982       55.33499999999998
   178   1       12.49499999999999      44.624999999999986       53.54999999999999
   179   1      10.709999999999994      44.624999999999986       58.90499999999998
   180   1       12.49499999999999      42.839999999999982       58.90499999999998
   181   1       12.49499999999999      44.624999999999986       57.11999999999999
   182   1       12.49499999999999      44.624999999999986      60.689999999999976
   183   1      10.709999999999994      48.194999999999979      51.764999999999986
   184   1       12.49499999999999      46.409999999999989      51.764999999999986
   185   1       12.49499999999999      48.194999999999979      49.979999999999983
   186   1      10.709999999999994      46.409999999999989       53.54999999999999
   187   1      10.709999999999994      48.194999999999979       55.33499999999998
   188   1       12.49499999999999      46.409999999999989       55.33499999999998
   189   1       12.49499999999999      48.194999999999979       53.54999999999999
   190   1      10.709999999999994      46.409999999999989       57.11999999999999
   191   1      10.709999999999994      48.194999999999979       58.90499999999998
   192   1       12.49499999999999      46.409999999999989       58.90499999999998
   193   1       12.49499999999999      48.194999999999979       57.11999999999999
   194   1      10.709999999999994      46.409999999999989      60.689999999999976
   195   1      10.709999999999994      48.194999999999979      62.474999999999973
   196   1       12.49499999999999      46.409999999999989      62.474999999999973
   197   1       12.49499999999999      48.194999999999979      60.689999999999976
   198   1       12.49499999999999      48.194999999999979      64.259999999999991
   199   1      10.709999999999994      51.764999999999986      48.194999999999979
   200   1       12.49499999999999      49.979999999999983      48.194999999999979
   201   1       12.49499999999999      51.764999999999986      46.409999999999989
   202   1      10.709999999999994      49.979999999999983      49.979999999999983
   203   1      10.709999999999994      51.764999999999986      51.764999999999986
   204   1       12.49499999999999      49.979999999999983      51.764999999999986
   205   1       12.49499999999999      51.764999999999986      49.979999999999983
   206   1      10.709999999999994      49.979999999999983       53.54999999999999
   207   1      10.709999999999994      51.764999999999986       55.33499999999998
   208   1       12.49499999999999      49.979999999999983       55.33499999999998
   209   1       12.49499999999999      51.764999999999986       53.54999999999999
   210   1      10.709999999999994      49.979999999999983       57.11999999999999
   211   1      10.709999999999994      51.764999999999986       58.90499999999998
   212   1       12.49499999999999      49.979999999999983       58.90499999999998
   213   1       12.49499999999999      51.764999999999986       57.11999999999999
   214   1      10.709999999999994      49.979999999999983      60.689999999999976
   215   1      10.709999999999994      51.764999999999986      62.474999999999973
   216   1       12.49499999999999      49.979999999999983      62.474999999999973
   217   1       12.49499999999999      51.764999999999986      60.689999999999976
   218   1      10.709999999999994      49.979999999999983      64.259999999999991
   219   1      10.709999999999994      51.764999999999986      66.044999999999987
   220   1       12.49499999999999      49.979999999999983      66.044999999999987
   221   1       12.49499999999999      51.764999999999986      64.259999999999991
   222   1       12.49499999999999      51.764999999999986      67.829999999999984
   223   1      10.709999999999994       55.33499999999998      44.624999999999986
   224   1       12.49499999999999       53.54999999999999      44.624999999999986
   225   1       12.49499999999999       55.33499999999998      42.839999999999982
   226   1      10.709999999999994       53.54999999999999      46.409999999999989
   227   1      10.709999999999994       55.33499999999998      48.194999999999979
   228   1       12.49499999999999       53.54999999999999      48.194999999999979
   229   1       12.49499999999999       55.33499999999998      46.409999999999989
   230   1      10.709999999999994       53.54999999999999      49.979999999999983
   231   1      10.709999999999994       55.33499999999998      51.764999999999986
   232   1       12.49499999999999       53.54999999999999      51.764999999999986
   233   1       12.49499999999999       55.33499999999998      49.979999999999983
   234   1      10.709999999999994       53.54999999999999       53.54999999999999
   235   1      10.709999999999994       55.33499999999998       55.33499999999998
   236   1       12.49499999999999       53.54999999999999       55.33499999999998
   237   1       12.49499999999999       55.33499999999998       53.54999999999999
   238   1      10.709999999999994       53.54999999999999       57.11999999999999
   239   1      10.709999999999994       55.33499999999998       58.90499999999998
   240   1       12.49499999999999       53.54999999999999       58.90499999999998
   241   1       12.49499999999999       55.33499999999998       57.11999999999999
   242   1      10.709999999999994       53.54999999999999      60.689999999999976
   243   1      10.709999999999994       55.33499999999998      62.474999999999973
   244   1       12.49499999999999       53.54999999999999      62.474999999999973
   245   1       12.49499999999999       55.33499999999998      60.689999999999976
   246   1      10.709999999999994       53.54999999999999      64.259999999999991
   247   1      10.709999999999994       55.33499999999998      66.044999999999987
   248   1       12.49499999999999       53.54999999999999      66.044999999999987
   249   1       12.49499999999999       55.33499999999998      64.259999999999991
   250   1      10.709999999999994       53.54999999999999      67.829999999999984
   251   1      10.709999999999994       55.33499999999998      69.614999999999981
   252   1       12.49499999999999       53.54999999999999      69.614999999999981
   253   1       12.49499999999999       55.33499999999998      67.829999999999984
   254   1       12.49499999999999       55.33499999999998      71.399999999999977
   255   1      10.709999999999994       58.90499999999998      44.624999999999986
   256   1       12.49499999999999       57.11999999999999      44.624999999999986
   257   1       12.49499999999999       58.90499999999998      42.839999999999982
   258   1      10.709999999999994       57.11999999999999      46.409999999999989
   259   1      10.709999999999994       58.90499999999998      48.194999999999979
   260   1       12.49499999999999       57.11999999999999      48.194999999999979
   261   1       12.49499999999999       58.90499999999998      46.409999999999989
   262   1      10.709999999999994       57.11999999999999      49.979999999999983
   263   1      10.709999999999994       58.90499999999998      51.764999999999986
   264   1       12.49499999999999       57.11999999999999      51.764999999999986
   265   1       12.49499999999999       58.90499999999998      49.979999999999983
   266   1      10.709999999999994       57.11999999999999       53.54999999999999
   267   1      10.709999999999994       58.90499999999998       55.33499999999998
   268   1       12.49499999999999       57.11999999999999       55.33499999999998
   269   1       12.49499999999999       58.90499999999998       53.54999999999999
   270   1      10.709999999999994       57.11999999999999       57.11999999999999
   271   1      10.709999999999994       58.90499999999998       58.90499999999998
   272   1       12.49499999999999       57.11999999999999       58.90499999999998
   273   1       12.49499999999999       58.90499999999998       57.11999999999999
   274   1      10.709999999999994       57.11999999999999      60.689999999999976
   275   1      10.709999999999994       58.90499999999998      62.474999999999973
   276   1       12.49499999999999       57.11999999999999      62.474999999999973
   277   1       12.49499999999999       58.90499999999998      60.689999999999976
   278   1      10.709999999999994       57.11999999999999      64.259999999999991
   279   1      10.709999999999994       58.90499999999998      66.044999999999987
   280   1       12.49499999999999       57.11999999999999      66.044999999999987
   281   1       12.49499999999999       58.90499999999998      64.259999999999991
   282   1      10.709999999999994       57.11999999999999      67.829999999999984
   283   1      10.709999999999994       58.90499999999998      69.614999999999981
   284   1       12.49499999999999       57.11999999999999      69.614999999999981
   285   1       12.49499999999999       58.90499999999998      67.829999999999984
   286   1       12.49499999999999       58.90499999999998      71.399999999999977
   287   1       12.49499999999999      60.689999999999976      44.624999999999986
   288   1      10.709999999999994      60.689999999999976      46.409999999999989
   289   1      10.709999999999994      62.474999999999973      48.194999999999979
   290   1       12.49499999999999      60.689999999999976      48.194999999999979
   291   1       12.49499999999999      62.474999999999973      46.409999999999989
   292   1      10.709999999999994      60.689999999999976      49.979999999999983
   293   1      10.709999999999994      62.474999999999973      51.764999999999986
   294   1       12.49499999999999      60.689999999999976      51.764999999999986
   295   1       12.49499999999999      62.474999999999973      49.979999999999983
   296   1      10.709999999999994      60.689999999999976       53.54999999999999
   297   1      10.709999999999994      62.474999999999973       55.33499999999998
   298   1       12.49499999999999      60.689999999999976       55.33499999999998
   299   1       12.49499999999999      62.474999999999973       53.54999999999999
   300   1      10.709999999999994      60.689999999999976       57.11999999999999
   301   1      10.709999999999994      62.474999999999973       58.90499999999998
   302   1       12.49499999999999      60.689999999999976       58.90499999999998
   303   1       12.49499999999999      62.474999999999973       57.11999999999999
   304   1      10.709999999999994      60.689999999999976      60.689999999999976
   305   1      10.709999999999994      62.474999999999973      62.474999999999973
   306   1       12.49499999999999      60.689999999999976      62.474999999999973
   307   1       12.49499999999999      62.474999999999973      60.689999999999976
   308   1      10.709999999999994      60.689999999999976      64.259999999999991
   309   1      10.709999999999994      62.474999999999973      66.044999999999987
   310   1       12.49499999999999      60.689999999999976      66.044999999999987
   311   1       12.49499999999999      62.474999999999973      64.259999999999991
   312   1      10.709999999999994      60.689999999999976      67.829999999999984
   313   1       12.49499999999999      60.689999999999976      69.614999999999981
   314   1       12.49499999999999      62.474999999999973      67.829999999999984
   315   1       12.49499999999999      64.259999999999991      48.194999999999979
   316   1      10.709999999999994      64.259999999999991      49.979999999999983
   317   1      10.709999999999994      66.044999999999987      51.764999999999986
   318   1       12.49499999999999      64.259999999999991      51.764999999999986
   319   1       12.49499999999999      66.044999999999987      49.979999999999983
   320   1      10.709999999999994      64.259999999999991       53.54999999999999
   321   1      10.709999999999994      66.044999999999987       55.33499999999998
   322   1       12.49499999999999      64.259999999999991       55.33499999999998
   323   1       12.49499999999999      66.044999999999987       53.54999999999999
   324   1      10.709999999999994      64.259999999999991       57.11999999999999
   325   1      10.709999999999994      66.044999999999987       58.90499999999998
   326   1       12.49499999999999      64.259999999999991       58.90499999999998
   327   1       12.49499999999999      66.044999999999987       57.11999999999999
   328   1      10.709999999999994      64.259999999999991      60.689999999999976
   329   1      10.709999999999994      66.044999999999987      62.474999999999973
   330   1       12.49499999999999      64.259999999999991      62.474999999999973
   331   1       12.49499999999999      66.044999999999987      60.689999999999976
   332   1      10.709999999999994      64.259999999999991      64.259999999999991
   333   1       12.49499999999999      64.259999999999991      66.044999999999987
   334   1       12.49499999999999      66.044999999999987      64.259999999999991
   335   1       12.49499999999999      67.829999999999984      51.764999999999986
   336   1      10.709999999999994      67.829999999999984       53.54999999999999
   337   1      10.709999999999994      69.614999999999981       55.33499999999998
   338   1       12.49499999999999      67.829999999999984       55.33499999999998
   339   1       12.49499999999999      69.614999999999981       53.54999999999999
   340   1      10.709999999999994      67.829999999999984       57.11999999999999
   341   1      10.709999999999994      69.614999999999981       58.90499999999998
   342   1       12.49499999999999      67.829999999999984       58.90499999999998
   343   1       12.49499999999999      69.614999999999981       57.11999999999999
   344   1      10.709999999999994      67.829999999999984      60.689999999999976
   345   1       12.49499999999999      67.829999999999984      62.474999999999973
   346   1       12.49499999999999      69.614999999999981      60.689999999999976
   347   1       12.49499999999999      71.399999999999977       55.33499999999998
   348   1       12.49499999999999      71.399999999999977       58.90499999999998
   349   1      14.279999999999985      41.054999999999978       55.33499999999998
   350   1      16.064999999999991      39.269999999999989       55.33499999999998
   351   1      16.064999999999991      41.054999999999978       53.54999999999999
   352   1      14.279999999999985      41.054999999999978       58.90499999999998
   353   1      16.064999999999991      39.269999999999989       58.90499999999998
   354   1      16.064999999999991      41.054999999999978       57.11999999999999
   355   1      16.064999999999991      41.054999999999978      60.689999999999976
   356   1      16.064999999999991      44.624999999999986      46.409999999999989
   357   1      14.279999999999985      44.624999999999986      51.764999999999986
   358   1      16.064999999999991      42.839999999999982      51.764999999999986