model_files/CuAu/CuAu_30000/CuAu_530/CuAu_530_fcc_29831_temp.data (written by ASE) 

29831 	 atoms 
2  atom types
0.0                      99  xlo xhi
0.0                      99  ylo yhi
0.0                      99  zlo zhi


Atoms 

     1   1  7.1054273576010019e-15      46.750000000000007      46.750000000000007
     2   1      1.8700000000000048      44.880000000000017      46.750000000000007
     3   1      1.8700000000000048      46.750000000000007      44.880000000000017
     4   1  7.1054273576010019e-15      46.750000000000007      50.490000000000002
     5   1      1.8700000000000048      44.880000000000017      50.490000000000002
     6   1      1.8700000000000048      46.750000000000007      48.620000000000012
     7   1      1.8700000000000048      46.750000000000007      52.360000000000007
     8   1  7.1054273576010019e-15      50.490000000000002      46.750000000000007
     9   1      1.8700000000000048      48.620000000000012      46.750000000000007
    10   1      1.8700000000000048      50.490000000000002      44.880000000000017
    11   1  7.1054273576010019e-15      48.620000000000012      48.620000000000012
    12   1  7.1054273576010019e-15      50.490000000000002      50.490000000000002
    13   1      1.8700000000000048      48.620000000000012      50.490000000000002
    14   1      1.8700000000000048      50.490000000000002      48.620000000000012
    15   1      1.8700000000000048      50.490000000000002      52.360000000000007
    16   1      1.8700000000000048      52.360000000000007      46.750000000000007
    17   1      1.8700000000000048      52.360000000000007      50.490000000000002
    18   1      5.6100000000000074      37.400000000000013      39.270000000000003
    19   1      5.6100000000000074      39.270000000000003      37.400000000000013
    20   1      5.6100000000000074      37.400000000000013      43.010000000000005
    21   1      5.6100000000000074      39.270000000000003      41.140000000000015
    22   1      5.6100000000000074      37.400000000000013      46.750000000000007
    23   1      5.6100000000000074      39.270000000000003      44.880000000000017
    24   1      5.6100000000000074      37.400000000000013      50.490000000000002
    25   1      5.6100000000000074      39.270000000000003      48.620000000000012
    26   1      5.6100000000000074      37.400000000000013      54.230000000000011
    27   1      5.6100000000000074      39.270000000000003      52.360000000000007
    28   1      5.6100000000000074      37.400000000000013      57.970000000000013
    29   1      5.6100000000000074      39.270000000000003      56.100000000000009
    30   1      5.6100000000000074      39.270000000000003      59.840000000000011
    31   1      5.6100000000000074      41.140000000000015      39.270000000000003
    32   1      5.6100000000000074      43.010000000000005      37.400000000000013
    33   1      3.7400000000000095      41.140000000000015      41.140000000000015
    34   1      3.7400000000000095      43.010000000000005      43.010000000000005
    35   1      5.6100000000000074      41.140000000000015      43.010000000000005
    36   1      5.6100000000000074      43.010000000000005      41.140000000000015
    37   1      3.7400000000000095      41.140000000000015      44.880000000000017
    38   1      3.7400000000000095      43.010000000000005      46.750000000000007
    39   1      5.6100000000000074      41.140000000000015      46.750000000000007
    40   1      5.6100000000000074      43.010000000000005      44.880000000000017
    41   1      3.7400000000000095      41.140000000000015      48.620000000000012
    42   1      3.7400000000000095      43.010000000000005      50.490000000000002
    43   1      5.6100000000000074      41.140000000000015      50.490000000000002
    44   1      5.6100000000000074      43.010000000000005      48.620000000000012
    45   1      3.7400000000000095      41.140000000000015      52.360000000000007
    46   1      3.7400000000000095      43.010000000000005      54.230000000000011
    47   1      5.6100000000000074      41.140000000000015      54.230000000000011
    48   1      5.6100000000000074      43.010000000000005      52.360000000000007
    49   1      3.7400000000000095      41.140000000000015      56.100000000000009
    50   1      5.6100000000000074      41.140000000000015      57.970000000000013
    51   1      5.6100000000000074      43.010000000000005      56.100000000000009
    52   1      5.6100000000000074      43.010000000000005      59.840000000000011
    53   1      5.6100000000000074      44.880000000000017      39.270000000000003
    54   1      5.6100000000000074      46.750000000000007      37.400000000000013
    55   1      3.7400000000000095      44.880000000000017      41.140000000000015
    56   1      3.7400000000000095      46.750000000000007      43.010000000000005
    57   1      5.6100000000000074      44.880000000000017      43.010000000000005
    58   1      5.6100000000000074      46.750000000000007      41.140000000000015
    59   1      3.7400000000000095      44.880000000000017      44.880000000000017
    60   1      3.7400000000000095      46.750000000000007      46.750000000000007
    61   1      5.6100000000000074      44.880000000000017      46.750000000000007
    62   1      5.6100000000000074      46.750000000000007      44.880000000000017
    63   1      3.7400000000000095      44.880000000000017      48.620000000000012
    64   1      3.7400000000000095      46.750000000000007      50.490000000000002
    65   1      5.6100000000000074      44.880000000000017      50.490000000000002
    66   1      5.6100000000000074      46.750000000000007      48.620000000000012
    67   1      3.7400000000000095      44.880000000000017      52.360000000000007
    68   1      3.7400000000000095      46.750000000000007      54.230000000000011
    69   1      5.6100000000000074      44.880000000000017      54.230000000000011
    70   1      5.6100000000000074      46.750000000000007      52.360000000000007
    71   1      3.7400000000000095      44.880000000000017      56.100000000000009
    72   1      5.6100000000000074      44.880000000000017      57.970000000000013
    73   1      5.6100000000000074      46.750000000000007      56.100000000000009
    74   1      5.6100000000000074      46.750000000000007      59.840000000000011
    75   1      5.6100000000000074      48.620000000000012      39.270000000000003
    76   1      5.6100000000000074      50.490000000000002      37.400000000000013
    77   1      3.7400000000000095      48.620000000000012      41.140000000000015
    78   1      3.7400000000000095      50.490000000000002      43.010000000000005
    79   1      5.6100000000000074      48.620000000000012      43.010000000000005
    80   1      5.6100000000000074      50.490000000000002      41.140000000000015
    81   1      3.7400000000000095      48.620000000000012      44.880000000000017
    82   1      3.7400000000000095      50.490000000000002      46.750000000000007
    83   1      5.6100000000000074      48.620000000000012      46.750000000000007
    84   1      5.6100000000000074      50.490000000000002      44.880000000000017
    85   1      3.7400000000000095      48.620000000000012      48.620000000000012
    86   1      3.7400000000000095      50.490000000000002      50.490000000000002
    87   1      5.6100000000000074      48.620000000000012      50.490000000000002
    88   1      5.6100000000000074      50.490000000000002      48.620000000000012
    89   1      3.7400000000000095      48.620000000000012      52.360000000000007
    90   1      3.7400000000000095      50.490000000000002      54.230000000000011
    91   1      5.6100000000000074      48.620000000000012      54.230000000000011
    92   1      5.6100000000000074      50.490000000000002      52.360000000000007
    93   1      3.7400000000000095      48.620000000000012      56.100000000000009
    94   1      5.6100000000000074      48.620000000000012      57.970000000000013
    95   1      5.6100000000000074      50.490000000000002      56.100000000000009
    96   1      5.6100000000000074      50.490000000000002      59.840000000000011
    97   1      5.6100000000000074      52.360000000000007      39.270000000000003
    98   1      5.6100000000000074      54.230000000000011      37.400000000000013
    99   1      3.7400000000000095      52.360000000000007      41.140000000000015
   100   1      3.7400000000000095      54.230000000000011      43.010000000000005
   101   1      5.6100000000000074      52.360000000000007      43.010000000000005
   102   1      5.6100000000000074      54.230000000000011      41.140000000000015
   103   1      3.7400000000000095      52.360000000000007      44.880000000000017
   104   1      3.7400000000000095      54.230000000000011      46.750000000000007
   105   1      5.6100000000000074      52.360000000000007      46.750000000000007
   106   1      5.6100000000000074      54.230000000000011      44.880000000000017
   107   1      3.7400000000000095      52.360000000000007      48.620000000000012
   108   1      3.7400000000000095      54.230000000000011      50.490000000000002
   109   1      5.6100000000000074      52.360000000000007      50.490000000000002
   110   1      5.6100000000000074      54.230000000000011      48.620000000000012
   111   1      3.7400000000000095      52.360000000000007      52.360000000000007
   112   1      3.7400000000000095      54.230000000000011      54.230000000000011
   113   1      5.6100000000000074      52.360000000000007      54.230000000000011
   114   1      5.6100000000000074      54.230000000000011      52.360000000000007
   115   1      3.7400000000000095      52.360000000000007      56.100000000000009
   116   1      5.6100000000000074      52.360000000000007      57.970000000000013
   117   1      5.6100000000000074      54.230000000000011      56.100000000000009
   118   1      5.6100000000000074      54.230000000000011      59.840000000000011
   119   1      5.6100000000000074      56.100000000000009      39.270000000000003
   120   1      5.6100000000000074      57.970000000000013      37.400000000000013
   121   1      3.7400000000000095      56.100000000000009      41.140000000000015
   122   1      5.6100000000000074      56.100000000000009      43.010000000000005
   123   1      5.6100000000000074      57.970000000000013      41.140000000000015
   124   1      3.7400000000000095      56.100000000000009      44.880000000000017
   125   1      5.6100000000000074      56.100000000000009      46.750000000000007
   126   1      5.6100000000000074      57.970000000000013      44.880000000000017
   127   1      3.7400000000000095      56.100000000000009      48.620000000000012
   128   1      5.6100000000000074      56.100000000000009      50.490000000000002
   129   1      5.6100000000000074      57.970000000000013      48.620000000000012
   130   1      3.7400000000000095      56.100000000000009      52.360000000000007
   131   1      5.6100000000000074      56.100000000000009      54.230000000000011
   132   1      5.6100000000000074      57.970000000000013      52.360000000000007
   133   1      3.7400000000000095      56.100000000000009      56.100000000000009
   134   1      5.6100000000000074      56.100000000000009      57.970000000000013
   135   1      5.6100000000000074      57.970000000000013      56.100000000000009
   136   1      5.6100000000000074      57.970000000000013      59.840000000000011
   137   1      5.6100000000000074      59.840000000000011      39.270000000000003
   138   1      5.6100000000000074      59.840000000000011      43.010000000000005
   139   1      5.6100000000000074      59.840000000000011      46.750000000000007
   140   1      5.6100000000000074      59.840000000000011      50.490000000000002
   141   1      5.6100000000000074      59.840000000000011      54.230000000000011
   142   1      5.6100000000000074      59.840000000000011      57.970000000000013
   143   1      9.3500000000000085      31.790000000000006      33.660000000000011
   144   1      9.3500000000000085      31.790000000000006      37.400000000000013
   145   1      9.3500000000000085      31.790000000000006      41.140000000000015
   146   1      9.3500000000000085      31.790000000000006      44.880000000000017
   147   1      9.3500000000000085      31.790000000000006      48.620000000000012
   148   1      9.3500000000000085      31.790000000000006      52.360000000000007
   149   1      9.3500000000000085      31.790000000000006      56.100000000000009
   150   1      9.3500000000000085      31.790000000000006      59.840000000000011
   151   1      9.3500000000000085      31.790000000000006      63.580000000000013
   152   1      9.3500000000000085      33.660000000000011      31.790000000000006
   153   1       7.480000000000004      35.530000000000008      35.530000000000008
   154   1      9.3500000000000085      33.660000000000011      35.530000000000008
   155   1      9.3500000000000085      35.530000000000008      33.660000000000011
   156   1       7.480000000000004      35.530000000000008      39.270000000000003
   157   1      9.3500000000000085      33.660000000000011      39.270000000000003
   158   1      9.3500000000000085      35.530000000000008      37.400000000000013
   159   1       7.480000000000004      35.530000000000008      43.010000000000005
   160   1      9.3500000000000085      33.660000000000011      43.010000000000005
   161   1      9.3500000000000085      35.530000000000008      41.140000000000015
   162   1       7.480000000000004      35.530000000000008      46.750000000000007
   163   1      9.3500000000000085      33.660000000000011      46.750000000000007
   164   1      9.3500000000000085      35.530000000000008      44.880000000000017
   165   1       7.480000000000004      35.530000000000008      50.490000000000002
   166   1      9.3500000000000085      33.660000000000011      50.490000000000002
   167   1      9.3500000000000085      35.530000000000008      48.620000000000012
   168   1       7.480000000000004      35.530000000000008      54.230000000000011
   169   1      9.3500000000000085      33.660000000000011      54.230000000000011
   170   1      9.3500000000000085      35.530000000000008      52.360000000000007
   171   1       7.480000000000004      35.530000000000008      57.970000000000013
   172   1      9.3500000000000085      33.660000000000011      57.970000000000013
   173   1      9.3500000000000085      35.530000000000008      56.100000000000009
   174   1       7.480000000000004      35.530000000000008      61.710000000000015
   175   1      9.3500000000000085      33.660000000000011      61.710000000000015
   176   1      9.3500000000000085      35.530000000000008      59.840000000000011
   177   1      9.3500000000000085      33.660000000000011      65.450000000000017
   178   1      9.3500000000000085      35.530000000000008      63.580000000000013
   179   1      9.3500000000000085      37.400000000000013      31.790000000000006
   180   1       7.480000000000004      39.270000000000003      35.530000000000008
   181   1      9.3500000000000085      37.400000000000013      35.530000000000008
   182   1      9.3500000000000085      39.270000000000003      33.660000000000011
   183   1       7.480000000000004      37.400000000000013      37.400000000000013
   184   1       7.480000000000004      39.270000000000003      39.270000000000003
   185   1      9.3500000000000085      37.400000000000013      39.270000000000003
   186   1      9.3500000000000085      39.270000000000003      37.400000000000013
   187   1       7.480000000000004      37.400000000000013      41.140000000000015
   188   1       7.480000000000004      39.270000000000003      43.010000000000005
   189   1      9.3500000000000085      37.400000000000013      43.010000000000005
   190   1      9.3500000000000085      39.270000000000003      41.140000000000015
   191   1       7.480000000000004      37.400000000000013      44.880000000000017
   192   1       7.480000000000004      39.270000000000003      46.750000000000007
   193   1      9.3500000000000085      37.400000000000013      46.750000000000007
   194   1      9.3500000000000085      39.270000000000003      44.880000000000017
   195   1       7.480000000000004      37.400000000000013      48.620000000000012
   196   1       7.480000000000004      39.270000000000003      50.490000000000002
   197   1      9.3500000000000085      37.400000000000013      50.490000000000002
   198   1      9.3500000000000085      39.270000000000003      48.620000000000012
   199   1       7.480000000000004      37.400000000000013      52.360000000000007
   200   1       7.480000000000004      39.270000000000003      54.230000000000011
   201   1      9.3500000000000085      37.400000000000013      54.230000000000011
   202   1      9.3500000000000085      39.270000000000003      52.360000000000007
   203   1       7.480000000000004      37.400000000000013      56.100000000000009
   204   1       7.480000000000004      39.270000000000003      57.970000000000013
   205   1      9.3500000000000085      37.400000000000013      57.970000000000013
   206   1      9.3500000000000085      39.270000000000003      56.100000000000009
   207   1       7.480000000000004      37.400000000000013      59.840000000000011
   208   1       7.480000000000004      39.270000000000003      61.710000000000015
   209   1      9.3500000000000085      37.400000000000013      61.710000000000015
   210   1      9.3500000000000085      39.270000000000003      59.840000000000011
   211   1      9.3500000000000085      37.400000000000013      65.450000000000017
   212   1      9.3500000000000085      39.270000000000003      63.580000000000013
   213   1      9.3500000000000085      41.140000000000015      31.790000000000006
   214   1       7.480000000000004      43.010000000000005      35.530000000000008
   215   1      9.3500000000000085      41.140000000000015      35.530000000000008
   216   1      9.3500000000000085      43.010000000000005      33.660000000000011
   217   1       7.480000000000004      41.140000000000015      37.400000000000013
   218   1       7.480000000000004      43.010000000000005      39.270000000000003
   219   1      9.3500000000000085      41.140000000000015      39.270000000000003
   220   1      9.3500000000000085      43.010000000000005      37.400000000000013
   221   1       7.480000000000004      41.140000000000015      41.140000000000015
   222   1       7.480000000000004      43.010000000000005      43.010000000000005
   223   1      9.3500000000000085      41.140000000000015      43.010000000000005
   224   1      9.3500000000000085      43.010000000000005      41.140000000000015
   225   1       7.480000000000004      41.140000000000015      44.880000000000017
   226   1       7.480000000000004      43.010000000000005      46.750000000000007
   227   1      9.3500000000000085      41.140000000000015      46.750000000000007
   228   1      9.3500000000000085      43.010000000000005      44.880000000000017
   229   1       7.480000000000004      41.140000000000015      48.620000000000012
   230   1       7.480000000000004      43.010000000000005      50.490000000000002
   231   1      9.3500000000000085      41.140000000000015      50.490000000000002
   232   1      9.3500000000000085      43.010000000000005      48.620000000000012
   233   1       7.480000000000004      41.140000000000015      52.360000000000007
   234   1       7.480000000000004      43.010000000000005      54.230000000000011
   235   1      9.3500000000000085      41.140000000000015      54.230000000000011
   236   1      9.3500000000000085      43.010000000000005      52.360000000000007
   237   1       7.480000000000004      41.140000000000015      56.100000000000009
   238   1       7.480000000000004      43.010000000000005      57.970000000000013
   239   1      9.3500000000000085      41.140000000000015      57.970000000000013
   240   1      9.3500000000000085      43.010000000000005      56.100000000000009
   241   1       7.480000000000004      41.140000000000015      59.840000000000011
   242   1       7.480000000000004      43.010000000000005      61.710000000000015
   243   1      9.3500000000000085      41.140000000000015      61.710000000000015
   244   1      9.3500000000000085      43.010000000000005      59.840000000000011
   245   1      9.3500000000000085      41.140000000000015      65.450000000000017
   246   1      9.3500000000000085      43.010000000000005      63.580000000000013
   247   1      9.3500000000000085      44.880000000000017      31.790000000000006
   248   1       7.480000000000004      46.750000000000007      35.530000000000008
   249   1      9.3500000000000085      44.880000000000017      35.530000000000008
   250   1      9.3500000000000085      46.750000000000007      33.660000000000011
   251   1       7.480000000000004      44.880000000000017      37.400000000000013
   252   1       7.480000000000004      46.750000000000007      39.270000000000003
   253   1      9.3500000000000085      44.880000000000017      39.270000000000003
   254   1      9.3500000000000085      46.750000000000007      37.400000000000013
   255   1       7.480000000000004      44.880000000000017      41.140000000000015
   256   1       7.480000000000004      46.750000000000007      43.010000000000005
   257   1      9.3500000000000085      44.880000000000017      43.010000000000005
   258   1      9.3500000000000085      46.750000000000007      41.140000000000015
   259   1       7.480000000000004      44.880000000000017      44.880000000000017
   260   1       7.480000000000004      46.750000000000007      46.750000000000007
   261   1      9.3500000000000085      44.880000000000017      46.750000000000007
   262   1      9.3500000000000085      46.750000000000007      44.880000000000017
   263   1       7.480000000000004      44.880000000000017      48.620000000000012
   264   1       7.480000000000004      46.750000000000007      50.490000000000002
   265   1      9.3500000000000085      44.880000000000017      50.490000000000002
   266   1      9.3500000000000085      46.750000000000007      48.620000000000012
   267   1       7.480000000000004      44.880000000000017      52.360000000000007
   268   1       7.480000000000004      46.750000000000007      54.230000000000011
   269   1      9.3500000000000085      44.880000000000017      54.230000000000011
   270   1      9.3500000000000085      46.750000000000007      52.360000000000007
   271   1       7.480000000000004      44.880000000000017      56.100000000000009
   272   1       7.480000000000004      46.750000000000007      57.970000000000013
   273   1      9.3500000000000085      44.880000000000017      57.970000000000013
   274   1      9.3500000000000085      46.750000000000007      56.100000000000009
   275   1       7.480000000000004      44.880000000000017      59.840000000000011
   276   1       7.480000000000004      46.750000000000007      61.710000000000015
   277   1      9.3500000000000085      44.880000000000017      61.710000000000015
   278   1      9.3500000000000085      46.750000000000007      59.840000000000011
   279   1      9.3500000000000085      44.880000000000017      65.450000000000017
   280   1      9.3500000000000085      46.750000000000007      63.580000000000013
   281   1      9.3500000000000085      48.620000000000012      31.790000000000006
   282   1       7.480000000000004      50.490000000000002      35.530000000000008
   283   1      9.3500000000000085      48.620000000000012      35.530000000000008
   284   1      9.3500000000000085      50.490000000000002      33.660000000000011
   285   1       7.480000000000004      48.620000000000012      37.400000000000013
   286   1       7.480000000000004      50.490000000000002      39.270000000000003
   287   1      9.3500000000000085      48.620000000000012      39.270000000000003
   288   1      9.3500000000000085      50.490000000000002      37.400000000000013
   289   1       7.480000000000004      48.620000000000012      41.140000000000015
   290   1       7.480000000000004      50.490000000000002      43.010000000000005
   291   1      9.3500000000000085      48.620000000000012      43.010000000000005
   292   1      9.3500000000000085      50.490000000000002      41.140000000000015
   293   1       7.480000000000004      48.620000000000012      44.880000000000017
   294   1       7.480000000000004      50.490000000000002      46.750000000000007
   295   1      9.3500000000000085      48.620000000000012      46.750000000000007
   296   1      9.3500000000000085      50.490000000000002      44.880000000000017
   297   1       7.480000000000004      48.620000000000012      48.620000000000012
   298   1       7.480000000000004      50.490000000000002      50.490000000000002
   299   1      9.3500000000000085      48.620000000000012      50.490000000000002
   300   1      9.3500000000000085      50.490000000000002      48.620000000000012
   301   1       7.480000000000004      48.620000000000012      52.360000000000007
   302   1       7.480000000000004      50.490000000000002      54.230000000000011
   303   1      9.3500000000000085      48.620000000000012      54.230000000000011
   304   1      9.3500000000000085      50.490000000000002      52.360000000000007
   305   1       7.480000000000004      48.620000000000012      56.100000000000009
   306   1       7.480000000000004      50.490000000000002      57.970000000000013
   307   1      9.3500000000000085      48.620000000000012      57.970000000000013
   308   1      9.3500000000000085      50.490000000000002      56.100000000000009
   309   1       7.480000000000004      48.620000000000012      59.840000000000011
   310   1       7.480000000000004      50.490000000000002      61.710000000000015
   311   1      9.3500000000000085      48.620000000000012      61.710000000000015
   312   1      9.3500000000000085      50.490000000000002      59.840000000000011
   313   1      9.3500000000000085      48.620000000000012      65.450000000000017
   314   1      9.3500000000000085      50.490000000000002      63.580000000000013
   315   1      9.3500000000000085      52.360000000000007      31.790000000000006
   316   1       7.480000000000004      54.230000000000011      35.530000000000008
   317   1      9.3500000000000085      52.360000000000007      35.530000000000008
   318   1      9.3500000000000085      54.230000000000011      33.660000000000011
   319   1       7.480000000000004      52.360000000000007      37.400000000000013
   320   1       7.480000000000004      54.230000000000011      39.270000000000003
   321   1      9.3500000000000085      52.360000000000007      39.270000000000003
   322   1      9.3500000000000085      54.230000000000011      37.400000000000013
   323   1       7.480000000000004      52.360000000000007      41.140000000000015
   324   1       7.480000000000004      54.230000000000011      43.010000000000005
   325   1      9.3500000000000085      52.360000000000007      43.010000000000005
   326   1      9.3500000000000085      54.230000000000011      41.140000000000015
   327   1       7.480000000000004      52.360000000000007      44.880000000000017
   328   1       7.480000000000004      54.230000000000011      46.750000000000007
   329   1      9.3500000000000085      52.360000000000007      46.750000000000007
   330   1      9.3500000000000085      54.230000000000011      44.880000000000017
   331   1       7.480000000000004      52.360000000000007      48.620000000000012
   332   1       7.480000000000004      54.230000000000011      50.490000000000002
   333   1      9.3500000000000085      52.360000000000007      50.490000000000002
   334   1      9.3500000000000085      54.230000000000011      48.620000000000012
   335   1       7.480000000000004      52.360000000000007      52.360000000000007
   336   1       7.480000000000004      54.230000000000011      54.230000000000011
   337   1      9.3500000000000085      52.360000000000007      54.230000000000011
   338   1      9.3500000000000085      54.230000000000011      52.360000000000007
   339   1       7.480000000000004      52.360000000000007      56.100000000000009
   340   1       7.480000000000004      54.230000000000011      57.970000000000013
   341   1      9.3500000000000085      52.360000000000007      57.970000000000013
   342   1      9.3500000000000085      54.230000000000011      56.100000000000009
   343   1       7.480000000000004      52.360000000000007      59.840000000000011
   344   1       7.480000000000004      54.230000000000011      61.710000000000015
   345   1      9.3500000000000085      52.360000000000007      61.710000000000015
   346   1      9.3500000000000085      54.230000000000011      59.840000000000011
   347   1      9.3500000000000085      52.360000000000007      65.450000000000017
   348   1      9.3500000000000085      54.230000000000011      63.580000000000013
   349   1      9.3500000000000085      56.100000000000009      31.790000000000006
   350   1       7.480000000000004      57.970000000000013      35.530000000000008
   351   1      9.3500000000000085      56.100000000000009      35.530000000000008
   352   1      9.3500000000000085      57.970000000000013      33.660000000000011
   353   1       7.480000000000004      56.100000000000009      37.400000000000013
   354   1       7.480000000000004      57.970000000000013      39.270000000000003
   355   1      9.3500000000000085      56.100000000000009      39.270000000000003
   356   1      9.3500000000000085      57.970000000000013      37.400000000000013
   357   1       7.480000000000004      56.100000000000009      41.140000000000015
   358   1       7.480000000000004      57.970000000000013      43.010000000000005