model_files/PtCu/PtCu_30000/PtCu_541/PtCu_541_fcc_30387_temp.data (written by ASE) 

30387 	 atoms 
2  atom types
0.0                     117  xlo xhi
0.0                     117  ylo yhi
0.0                     117  zlo zhi


Atoms 

     1   1      1.9249999999999972      55.825000000000003                   57.75
     2   1      1.9249999999999972                   57.75      55.825000000000003
     3   1                       0                   57.75                   57.75
     4   1      1.9249999999999972                   57.75      59.675000000000011
     5   1      1.9249999999999972      59.675000000000011                   57.75
     6   1      5.7749999999999986      51.975000000000001      53.900000000000006
     7   1      5.7749999999999986      51.975000000000001                   57.75
     8   1      5.7749999999999986      51.975000000000001      61.600000000000001
     9   1      5.7749999999999986      53.900000000000006      51.975000000000001
    10   1      3.8500000000000019      53.900000000000006      53.900000000000006
    11   1      3.8500000000000019      55.825000000000003      55.825000000000003
    12   1      5.7749999999999986      53.900000000000006      55.825000000000003
    13   1      5.7749999999999986      55.825000000000003      53.900000000000006
    14   1      3.8500000000000019      53.900000000000006                   57.75
    15   1      3.8500000000000019      55.825000000000003      59.675000000000011
    16   1      5.7749999999999986      53.900000000000006      59.675000000000011
    17   1      5.7749999999999986      55.825000000000003                   57.75
    18   1      3.8500000000000019      53.900000000000006      61.600000000000001
    19   1      5.7749999999999986      53.900000000000006      63.525000000000006
    20   1      5.7749999999999986      55.825000000000003      61.600000000000001
    21   1      5.7749999999999986                   57.75      51.975000000000001
    22   1      3.8500000000000019                   57.75      53.900000000000006
    23   1      3.8500000000000019      59.675000000000011      55.825000000000003
    24   1      5.7749999999999986                   57.75      55.825000000000003
    25   1      5.7749999999999986      59.675000000000011      53.900000000000006
    26   1      3.8500000000000019                   57.75                   57.75
    27   1      3.8500000000000019      59.675000000000011      59.675000000000011
    28   1      5.7749999999999986                   57.75      59.675000000000011
    29   1      5.7749999999999986      59.675000000000011                   57.75
    30   1      3.8500000000000019                   57.75      61.600000000000001
    31   1      5.7749999999999986                   57.75      63.525000000000006
    32   1      5.7749999999999986      59.675000000000011      61.600000000000001
    33   1      5.7749999999999986      61.600000000000001      51.975000000000001
    34   1      3.8500000000000019      61.600000000000001      53.900000000000006
    35   1      5.7749999999999986      61.600000000000001      55.825000000000003
    36   1      5.7749999999999986      63.525000000000006      53.900000000000006
    37   1      3.8500000000000019      61.600000000000001                   57.75
    38   1      5.7749999999999986      61.600000000000001      59.675000000000011
    39   1      5.7749999999999986      63.525000000000006                   57.75
    40   1      3.8500000000000019      61.600000000000001      61.600000000000001
    41   1      5.7749999999999986      61.600000000000001      63.525000000000006
    42   1      5.7749999999999986      63.525000000000006      61.600000000000001
    43   1      9.6250000000000018      48.125000000000007      50.050000000000011
    44   1      9.6250000000000018      46.200000000000003      55.825000000000003
    45   1      9.6250000000000018      48.125000000000007      53.900000000000006
    46   1      9.6250000000000018      46.200000000000003      59.675000000000011
    47   1      9.6250000000000018      48.125000000000007                   57.75
    48   1      9.6250000000000018      48.125000000000007      61.600000000000001
    49   1      9.6250000000000018      48.125000000000007      65.450000000000017
    50   1      9.6250000000000018      50.050000000000011      48.125000000000007
    51   1      7.7000000000000037      50.050000000000011      50.050000000000011
    52   1      7.7000000000000037      51.975000000000001      51.975000000000001
    53   1      9.6250000000000018      50.050000000000011      51.975000000000001
    54   1      9.6250000000000018      51.975000000000001      50.050000000000011
    55   1      7.7000000000000037      50.050000000000011      53.900000000000006
    56   1      7.7000000000000037      51.975000000000001      55.825000000000003
    57   1      9.6250000000000018      50.050000000000011      55.825000000000003
    58   1      9.6250000000000018      51.975000000000001      53.900000000000006
    59   1      7.7000000000000037      50.050000000000011                   57.75
    60   1      7.7000000000000037      51.975000000000001      59.675000000000011
    61   1      9.6250000000000018      50.050000000000011      59.675000000000011
    62   1      9.6250000000000018      51.975000000000001                   57.75
    63   1      7.7000000000000037      50.050000000000011      61.600000000000001
    64   1      7.7000000000000037      51.975000000000001      63.525000000000006
    65   1      9.6250000000000018      50.050000000000011      63.525000000000006
    66   1      9.6250000000000018      51.975000000000001      61.600000000000001
    67   1      7.7000000000000037      50.050000000000011      65.450000000000017
    68   1      9.6250000000000018      50.050000000000011      67.375000000000014
    69   1      9.6250000000000018      51.975000000000001      65.450000000000017
    70   1      9.6250000000000018      53.900000000000006      48.125000000000007
    71   1      9.6250000000000018      55.825000000000003      46.200000000000003
    72   1      7.7000000000000037      53.900000000000006      50.050000000000011
    73   1      7.7000000000000037      55.825000000000003      51.975000000000001
    74   1      9.6250000000000018      53.900000000000006      51.975000000000001
    75   1      9.6250000000000018      55.825000000000003      50.050000000000011
    76   1      7.7000000000000037      53.900000000000006      53.900000000000006
    77   1      7.7000000000000037      55.825000000000003      55.825000000000003
    78   1      9.6250000000000018      53.900000000000006      55.825000000000003
    79   1      9.6250000000000018      55.825000000000003      53.900000000000006
    80   1      7.7000000000000037      53.900000000000006                   57.75
    81   1      7.7000000000000037      55.825000000000003      59.675000000000011
    82   1      9.6250000000000018      53.900000000000006      59.675000000000011
    83   1      9.6250000000000018      55.825000000000003                   57.75
    84   1      7.7000000000000037      53.900000000000006      61.600000000000001
    85   1      7.7000000000000037      55.825000000000003      63.525000000000006
    86   1      9.6250000000000018      53.900000000000006      63.525000000000006
    87   1      9.6250000000000018      55.825000000000003      61.600000000000001
    88   1      7.7000000000000037      53.900000000000006      65.450000000000017
    89   1      9.6250000000000018      53.900000000000006      67.375000000000014
    90   1      9.6250000000000018      55.825000000000003      65.450000000000017
    91   1      9.6250000000000018      55.825000000000003      69.299999999999997
    92   1      9.6250000000000018                   57.75      48.125000000000007
    93   1      9.6250000000000018      59.675000000000011      46.200000000000003
    94   1      7.7000000000000037                   57.75      50.050000000000011
    95   1      7.7000000000000037      59.675000000000011      51.975000000000001
    96   1      9.6250000000000018                   57.75      51.975000000000001
    97   1      9.6250000000000018      59.675000000000011      50.050000000000011
    98   1      7.7000000000000037                   57.75      53.900000000000006
    99   1      7.7000000000000037      59.675000000000011      55.825000000000003
   100   1      9.6250000000000018                   57.75      55.825000000000003
   101   1      9.6250000000000018      59.675000000000011      53.900000000000006
   102   1      7.7000000000000037                   57.75                   57.75
   103   1      7.7000000000000037      59.675000000000011      59.675000000000011
   104   1      9.6250000000000018                   57.75      59.675000000000011
   105   1      9.6250000000000018      59.675000000000011                   57.75
   106   1      7.7000000000000037                   57.75      61.600000000000001
   107   1      7.7000000000000037      59.675000000000011      63.525000000000006
   108   1      9.6250000000000018                   57.75      63.525000000000006
   109   1      9.6250000000000018      59.675000000000011      61.600000000000001
   110   1      7.7000000000000037                   57.75      65.450000000000017
   111   1      9.6250000000000018                   57.75      67.375000000000014
   112   1      9.6250000000000018      59.675000000000011      65.450000000000017
   113   1      9.6250000000000018      59.675000000000011      69.299999999999997
   114   1      9.6250000000000018      61.600000000000001      48.125000000000007
   115   1      7.7000000000000037      61.600000000000001      50.050000000000011
   116   1      7.7000000000000037      63.525000000000006      51.975000000000001
   117   1      9.6250000000000018      61.600000000000001      51.975000000000001
   118   1      9.6250000000000018      63.525000000000006      50.050000000000011
   119   1      7.7000000000000037      61.600000000000001      53.900000000000006
   120   1      7.7000000000000037      63.525000000000006      55.825000000000003
   121   1      9.6250000000000018      61.600000000000001      55.825000000000003
   122   1      9.6250000000000018      63.525000000000006      53.900000000000006
   123   1      7.7000000000000037      61.600000000000001                   57.75
   124   1      7.7000000000000037      63.525000000000006      59.675000000000011
   125   1      9.6250000000000018      61.600000000000001      59.675000000000011
   126   1      9.6250000000000018      63.525000000000006                   57.75
   127   1      7.7000000000000037      61.600000000000001      61.600000000000001
   128   1      7.7000000000000037      63.525000000000006      63.525000000000006
   129   1      9.6250000000000018      61.600000000000001      63.525000000000006
   130   1      9.6250000000000018      63.525000000000006      61.600000000000001
   131   1      7.7000000000000037      61.600000000000001      65.450000000000017
   132   1      9.6250000000000018      61.600000000000001      67.375000000000014
   133   1      9.6250000000000018      63.525000000000006      65.450000000000017
   134   1      9.6250000000000018      65.450000000000017      48.125000000000007
   135   1      7.7000000000000037      65.450000000000017      50.050000000000011
   136   1      9.6250000000000018      65.450000000000017      51.975000000000001
   137   1      9.6250000000000018      67.375000000000014      50.050000000000011
   138   1      7.7000000000000037      65.450000000000017      53.900000000000006
   139   1      9.6250000000000018      65.450000000000017      55.825000000000003
   140   1      9.6250000000000018      67.375000000000014      53.900000000000006
   141   1      7.7000000000000037      65.450000000000017                   57.75
   142   1      9.6250000000000018      65.450000000000017      59.675000000000011
   143   1      9.6250000000000018      67.375000000000014                   57.75
   144   1      7.7000000000000037      65.450000000000017      61.600000000000001
   145   1      9.6250000000000018      65.450000000000017      63.525000000000006
   146   1      9.6250000000000018      67.375000000000014      61.600000000000001
   147   1      7.7000000000000037      65.450000000000017      65.450000000000017
   148   1      9.6250000000000018      65.450000000000017      67.375000000000014
   149   1      9.6250000000000018      67.375000000000014      65.450000000000017
   150   1      9.6250000000000018      69.299999999999997      55.825000000000003
   151   1      9.6250000000000018      69.299999999999997      59.675000000000011
   152   1      13.475000000000003      44.275000000000006      46.200000000000003
   153   1      13.475000000000003      42.350000000000009      51.975000000000001
   154   1      13.475000000000003      44.275000000000006      50.050000000000011
   155   1      11.549999999999997      44.275000000000006      55.825000000000003
   156   1      13.475000000000003      42.350000000000009      55.825000000000003
   157   1      13.475000000000003      44.275000000000006      53.900000000000006
   158   1      11.549999999999997      44.275000000000006      59.675000000000011
   159   1      13.475000000000003      42.350000000000009      59.675000000000011
   160   1      13.475000000000003      44.275000000000006                   57.75
   161   1      13.475000000000003      42.350000000000009      63.525000000000006
   162   1      13.475000000000003      44.275000000000006      61.600000000000001
   163   1      13.475000000000003      44.275000000000006      65.450000000000017
   164   1      13.475000000000003      44.275000000000006      69.299999999999997
   165   1      13.475000000000003      46.200000000000003      44.275000000000006
   166   1      11.549999999999997      46.200000000000003      46.200000000000003
   167   1      11.549999999999997      48.125000000000007      48.125000000000007
   168   1      13.475000000000003      46.200000000000003      48.125000000000007
   169   1      13.475000000000003      48.125000000000007      46.200000000000003
   170   1      11.549999999999997      46.200000000000003      50.050000000000011
   171   1      11.549999999999997      48.125000000000007      51.975000000000001
   172   1      13.475000000000003      46.200000000000003      51.975000000000001
   173   1      13.475000000000003      48.125000000000007      50.050000000000011
   174   1      11.549999999999997      46.200000000000003      53.900000000000006
   175   1      11.549999999999997      48.125000000000007      55.825000000000003
   176   1      13.475000000000003      46.200000000000003      55.825000000000003
   177   1      13.475000000000003      48.125000000000007      53.900000000000006
   178   1      11.549999999999997      46.200000000000003                   57.75
   179   1      11.549999999999997      48.125000000000007      59.675000000000011
   180   1      13.475000000000003      46.200000000000003      59.675000000000011
   181   1      13.475000000000003      48.125000000000007                   57.75
   182   1      11.549999999999997      46.200000000000003      61.600000000000001
   183   1      11.549999999999997      48.125000000000007      63.525000000000006
   184   1      13.475000000000003      46.200000000000003      63.525000000000006
   185   1      13.475000000000003      48.125000000000007      61.600000000000001
   186   1      11.549999999999997      46.200000000000003      65.450000000000017
   187   1      11.549999999999997      48.125000000000007      67.375000000000014
   188   1      13.475000000000003      46.200000000000003      67.375000000000014
   189   1      13.475000000000003      48.125000000000007      65.450000000000017
   190   1      11.549999999999997      46.200000000000003      69.299999999999997
   191   1      13.475000000000003      46.200000000000003      71.225000000000009
   192   1      13.475000000000003      48.125000000000007      69.299999999999997
   193   1      13.475000000000003      50.050000000000011      44.275000000000006
   194   1      13.475000000000003      51.975000000000001      42.350000000000009
   195   1      11.549999999999997      50.050000000000011      46.200000000000003
   196   1      11.549999999999997      51.975000000000001      48.125000000000007
   197   1      13.475000000000003      50.050000000000011      48.125000000000007
   198   1      13.475000000000003      51.975000000000001      46.200000000000003
   199   1      11.549999999999997      50.050000000000011      50.050000000000011
   200   1      11.549999999999997      51.975000000000001      51.975000000000001
   201   1      13.475000000000003      50.050000000000011      51.975000000000001
   202   1      13.475000000000003      51.975000000000001      50.050000000000011
   203   1      11.549999999999997      50.050000000000011      53.900000000000006
   204   1      11.549999999999997      51.975000000000001      55.825000000000003
   205   1      13.475000000000003      50.050000000000011      55.825000000000003
   206   1      13.475000000000003      51.975000000000001      53.900000000000006
   207   1      11.549999999999997      50.050000000000011                   57.75
   208   1      11.549999999999997      51.975000000000001      59.675000000000011
   209   1      13.475000000000003      50.050000000000011      59.675000000000011
   210   1      13.475000000000003      51.975000000000001                   57.75
   211   1      11.549999999999997      50.050000000000011      61.600000000000001
   212   1      11.549999999999997      51.975000000000001      63.525000000000006
   213   1      13.475000000000003      50.050000000000011      63.525000000000006
   214   1      13.475000000000003      51.975000000000001      61.600000000000001
   215   1      11.549999999999997      50.050000000000011      65.450000000000017
   216   1      11.549999999999997      51.975000000000001      67.375000000000014
   217   1      13.475000000000003      50.050000000000011      67.375000000000014
   218   1      13.475000000000003      51.975000000000001      65.450000000000017
   219   1      11.549999999999997      50.050000000000011      69.299999999999997
   220   1      13.475000000000003      50.050000000000011      71.225000000000009
   221   1      13.475000000000003      51.975000000000001      69.299999999999997
   222   1      13.475000000000003      51.975000000000001       73.15000000000002
   223   1      11.549999999999997      55.825000000000003      44.275000000000006
   224   1      13.475000000000003      53.900000000000006      44.275000000000006
   225   1      13.475000000000003      55.825000000000003      42.350000000000009
   226   1      11.549999999999997      53.900000000000006      46.200000000000003
   227   1      11.549999999999997      55.825000000000003      48.125000000000007
   228   1      13.475000000000003      53.900000000000006      48.125000000000007
   229   1      13.475000000000003      55.825000000000003      46.200000000000003
   230   1      11.549999999999997      53.900000000000006      50.050000000000011
   231   1      11.549999999999997      55.825000000000003      51.975000000000001
   232   1      13.475000000000003      53.900000000000006      51.975000000000001
   233   1      13.475000000000003      55.825000000000003      50.050000000000011
   234   1      11.549999999999997      53.900000000000006      53.900000000000006
   235   1      11.549999999999997      55.825000000000003      55.825000000000003
   236   1      13.475000000000003      53.900000000000006      55.825000000000003
   237   1      13.475000000000003      55.825000000000003      53.900000000000006
   238   1      11.549999999999997      53.900000000000006                   57.75
   239   1      11.549999999999997      55.825000000000003      59.675000000000011
   240   1      13.475000000000003      53.900000000000006      59.675000000000011
   241   1      13.475000000000003      55.825000000000003                   57.75
   242   1      11.549999999999997      53.900000000000006      61.600000000000001
   243   1      11.549999999999997      55.825000000000003      63.525000000000006
   244   1      13.475000000000003      53.900000000000006      63.525000000000006
   245   1      13.475000000000003      55.825000000000003      61.600000000000001
   246   1      11.549999999999997      53.900000000000006      65.450000000000017
   247   1      11.549999999999997      55.825000000000003      67.375000000000014
   248   1      13.475000000000003      53.900000000000006      67.375000000000014
   249   1      13.475000000000003      55.825000000000003      65.450000000000017
   250   1      11.549999999999997      53.900000000000006      69.299999999999997
   251   1      11.549999999999997      55.825000000000003      71.225000000000009
   252   1      13.475000000000003      53.900000000000006      71.225000000000009
   253   1      13.475000000000003      55.825000000000003      69.299999999999997
   254   1      13.475000000000003      55.825000000000003       73.15000000000002
   255   1      11.549999999999997      59.675000000000011      44.275000000000006
   256   1      13.475000000000003                   57.75      44.275000000000006
   257   1      13.475000000000003      59.675000000000011      42.350000000000009
   258   1      11.549999999999997                   57.75      46.200000000000003
   259   1      11.549999999999997      59.675000000000011      48.125000000000007
   260   1      13.475000000000003                   57.75      48.125000000000007
   261   1      13.475000000000003      59.675000000000011      46.200000000000003
   262   1      11.549999999999997                   57.75      50.050000000000011
   263   1      11.549999999999997      59.675000000000011      51.975000000000001
   264   1      13.475000000000003                   57.75      51.975000000000001
   265   1      13.475000000000003      59.675000000000011      50.050000000000011
   266   1      11.549999999999997                   57.75      53.900000000000006
   267   1      11.549999999999997      59.675000000000011      55.825000000000003
   268   1      13.475000000000003                   57.75      55.825000000000003
   269   1      13.475000000000003      59.675000000000011      53.900000000000006
   270   1      11.549999999999997                   57.75                   57.75
   271   1      11.549999999999997      59.675000000000011      59.675000000000011
   272   1      13.475000000000003                   57.75      59.675000000000011
   273   1      13.475000000000003      59.675000000000011                   57.75
   274   1      11.549999999999997                   57.75      61.600000000000001
   275   1      11.549999999999997      59.675000000000011      63.525000000000006
   276   1      13.475000000000003                   57.75      63.525000000000006
   277   1      13.475000000000003      59.675000000000011      61.600000000000001
   278   1      11.549999999999997                   57.75      65.450000000000017
   279   1      11.549999999999997      59.675000000000011      67.375000000000014
   280   1      13.475000000000003                   57.75      67.375000000000014
   281   1      13.475000000000003      59.675000000000011      65.450000000000017
   282   1      11.549999999999997                   57.75      69.299999999999997
   283   1      11.549999999999997      59.675000000000011      71.225000000000009
   284   1      13.475000000000003                   57.75      71.225000000000009
   285   1      13.475000000000003      59.675000000000011      69.299999999999997
   286   1      13.475000000000003      59.675000000000011       73.15000000000002
   287   1      13.475000000000003      61.600000000000001      44.275000000000006
   288   1      13.475000000000003      63.525000000000006      42.350000000000009
   289   1      11.549999999999997      61.600000000000001      46.200000000000003
   290   1      11.549999999999997      63.525000000000006      48.125000000000007
   291   1      13.475000000000003      61.600000000000001      48.125000000000007
   292   1      13.475000000000003      63.525000000000006      46.200000000000003
   293   1      11.549999999999997      61.600000000000001      50.050000000000011
   294   1      11.549999999999997      63.525000000000006      51.975000000000001
   295   1      13.475000000000003      61.600000000000001      51.975000000000001
   296   1      13.475000000000003      63.525000000000006      50.050000000000011
   297   1      11.549999999999997      61.600000000000001      53.900000000000006
   298   1      11.549999999999997      63.525000000000006      55.825000000000003
   299   1      13.475000000000003      61.600000000000001      55.825000000000003
   300   1      13.475000000000003      63.525000000000006      53.900000000000006
   301   1      11.549999999999997      61.600000000000001                   57.75
   302   1      11.549999999999997      63.525000000000006      59.675000000000011
   303   1      13.475000000000003      61.600000000000001      59.675000000000011
   304   1      13.475000000000003      63.525000000000006                   57.75
   305   1      11.549999999999997      61.600000000000001      61.600000000000001
   306   1      11.549999999999997      63.525000000000006      63.525000000000006
   307   1      13.475000000000003      61.600000000000001      63.525000000000006
   308   1      13.475000000000003      63.525000000000006      61.600000000000001
   309   1      11.549999999999997      61.600000000000001      65.450000000000017
   310   1      11.549999999999997      63.525000000000006      67.375000000000014
   311   1      13.475000000000003      61.600000000000001      67.375000000000014
   312   1      13.475000000000003      63.525000000000006      65.450000000000017
   313   1      11.549999999999997      61.600000000000001      69.299999999999997
   314   1      13.475000000000003      61.600000000000001      71.225000000000009
   315   1      13.475000000000003      63.525000000000006      69.299999999999997
   316   1      13.475000000000003      63.525000000000006       73.15000000000002
   317   1      13.475000000000003      65.450000000000017      44.275000000000006
   318   1      11.549999999999997      65.450000000000017      46.200000000000003
   319   1      11.549999999999997      67.375000000000014      48.125000000000007
   320   1      13.475000000000003      65.450000000000017      48.125000000000007
   321   1      13.475000000000003      67.375000000000014      46.200000000000003
   322   1      11.549999999999997      65.450000000000017      50.050000000000011
   323   1      11.549999999999997      67.375000000000014      51.975000000000001
   324   1      13.475000000000003      65.450000000000017      51.975000000000001
   325   1      13.475000000000003      67.375000000000014      50.050000000000011
   326   1      11.549999999999997      65.450000000000017      53.900000000000006
   327   1      11.549999999999997      67.375000000000014      55.825000000000003
   328   1      13.475000000000003      65.450000000000017      55.825000000000003
   329   1      13.475000000000003      67.375000000000014      53.900000000000006
   330   1      11.549999999999997      65.450000000000017                   57.75
   331   1      11.549999999999997      67.375000000000014      59.675000000000011
   332   1      13.475000000000003      65.450000000000017      59.675000000000011
   333   1      13.475000000000003      67.375000000000014                   57.75
   334   1      11.549999999999997      65.450000000000017      61.600000000000001
   335   1      11.549999999999997      67.375000000000014      63.525000000000006
   336   1      13.475000000000003      65.450000000000017      63.525000000000006
   337   1      13.475000000000003      67.375000000000014      61.600000000000001
   338   1      11.549999999999997      65.450000000000017      65.450000000000017
   339   1      11.549999999999997      67.375000000000014      67.375000000000014
   340   1      13.475000000000003      65.450000000000017      67.375000000000014
   341   1      13.475000000000003      67.375000000000014      65.450000000000017
   342   1      11.549999999999997      65.450000000000017      69.299999999999997
   343   1      13.475000000000003      65.450000000000017      71.225000000000009
   344   1      13.475000000000003      67.375000000000014      69.299999999999997
   345   1      13.475000000000003      69.299999999999997      44.275000000000006
   346   1      11.549999999999997      69.299999999999997      46.200000000000003
   347   1      13.475000000000003      69.299999999999997      48.125000000000007
   348   1      13.475000000000003      71.225000000000009      46.200000000000003
   349   1      11.549999999999997      69.299999999999997      50.050000000000011
   350   1      13.475000000000003      69.299999999999997      51.975000000000001
   351   1      13.475000000000003      71.225000000000009      50.050000000000011
   352   1      11.549999999999997      69.299999999999997      53.900000000000006
   353   1      11.549999999999997      71.225000000000009      55.825000000000003
   354   1      13.475000000000003      69.299999999999997      55.825000000000003
   355   1      13.475000000000003      71.225000000000009      53.900000000000006
   356   1      11.549999999999997      69.299999999999997                   57.75
   357   1      11.549999999999997      71.225000000000009      59.675000000000011
   358   1      13.475000000000003      69.299999999999997      59.675000000000011