model_files/NiCoCrFeMn/NiCoCrFeMn_30000/NiCoCrFeMn_431/NiCoCrFeMn_431_fcc_29685_temp.data (written by ASE) 

29685 	 atoms 
5  atom types
0.0                     100  xlo xhi
0.0                     100  ylo yhi
0.0                     100  zlo zhi


Atoms 

     1   1      1.7974999999999994                 44.9375      50.330000000000005
     2   1                       0      48.532500000000006      48.532500000000006
     3   1      1.7974999999999994      46.735000000000007      48.532500000000006
     4   1      1.7974999999999994      48.532500000000006      46.735000000000007
     5   1                       0      46.735000000000007      50.330000000000005
     6   1                       0      48.532500000000006      52.127500000000005
     7   1      1.7974999999999994      46.735000000000007      52.127500000000005
     8   1      1.7974999999999994      48.532500000000006      50.330000000000005
     9   1      1.7974999999999994      48.532500000000006      53.924999999999997
    10   1      1.7974999999999994      50.330000000000005                 44.9375
    11   1                       0      50.330000000000005      46.735000000000007
    12   1                       0      52.127500000000005      48.532500000000006
    13   1      1.7974999999999994      50.330000000000005      48.532500000000006
    14   1      1.7974999999999994      52.127500000000005      46.735000000000007
    15   1                       0      50.330000000000005      50.330000000000005
    16   1                       0      52.127500000000005      52.127500000000005
    17   1      1.7974999999999994      50.330000000000005      52.127500000000005
    18   1      1.7974999999999994      52.127500000000005      50.330000000000005
    19   1                       0      50.330000000000005      53.924999999999997
    20   1      1.7974999999999994      50.330000000000005      55.722500000000011
    21   1      1.7974999999999994      52.127500000000005      53.924999999999997
    22   1      1.7974999999999994      53.924999999999997      48.532500000000006
    23   1                       0      53.924999999999997      50.330000000000005
    24   1      1.7974999999999994      53.924999999999997      52.127500000000005
    25   1      1.7974999999999994      55.722500000000011      50.330000000000005
    26   1      5.3925000000000054      41.342500000000001      46.735000000000007
    27   1      5.3925000000000054      41.342500000000001      50.330000000000005
    28   1      5.3925000000000054      41.342500000000001      53.924999999999997
    29   1      3.5949999999999989                 44.9375                 44.9375
    30   1      5.3925000000000054      43.140000000000001                 44.9375
    31   1      5.3925000000000054                 44.9375      43.140000000000001
    32   1      3.5949999999999989      43.140000000000001      46.735000000000007
    33   1      3.5949999999999989                 44.9375      48.532500000000006
    34   1      5.3925000000000054      43.140000000000001      48.532500000000006
    35   1      5.3925000000000054                 44.9375      46.735000000000007
    36   1      3.5949999999999989      43.140000000000001      50.330000000000005
    37   1      3.5949999999999989                 44.9375      52.127500000000005
    38   1      5.3925000000000054      43.140000000000001      52.127500000000005
    39   1      5.3925000000000054                 44.9375      50.330000000000005
    40   1      3.5949999999999989      43.140000000000001      53.924999999999997
    41   1      3.5949999999999989                 44.9375      55.722500000000011
    42   1      5.3925000000000054      43.140000000000001      55.722500000000011
    43   1      5.3925000000000054                 44.9375      53.924999999999997
    44   1      5.3925000000000054                 44.9375      57.520000000000003
    45   1      5.3925000000000054      46.735000000000007      41.342500000000001
    46   1      3.5949999999999989      46.735000000000007      43.140000000000001
    47   1      3.5949999999999989      48.532500000000006                 44.9375
    48   1      5.3925000000000054      46.735000000000007                 44.9375
    49   1      5.3925000000000054      48.532500000000006      43.140000000000001
    50   1      3.5949999999999989      46.735000000000007      46.735000000000007
    51   1      3.5949999999999989      48.532500000000006      48.532500000000006
    52   1      5.3925000000000054      46.735000000000007      48.532500000000006
    53   1      5.3925000000000054      48.532500000000006      46.735000000000007
    54   1      3.5949999999999989      46.735000000000007      50.330000000000005
    55   1      3.5949999999999989      48.532500000000006      52.127500000000005
    56   1      5.3925000000000054      46.735000000000007      52.127500000000005
    57   1      5.3925000000000054      48.532500000000006      50.330000000000005
    58   1      3.5949999999999989      46.735000000000007      53.924999999999997
    59   1      3.5949999999999989      48.532500000000006      55.722500000000011
    60   1      5.3925000000000054      46.735000000000007      55.722500000000011
    61   1      5.3925000000000054      48.532500000000006      53.924999999999997
    62   1      3.5949999999999989      46.735000000000007      57.520000000000003
    63   1      5.3925000000000054      46.735000000000007      59.317500000000003
    64   1      5.3925000000000054      48.532500000000006      57.520000000000003
    65   1      5.3925000000000054      50.330000000000005      41.342500000000001
    66   1      3.5949999999999989      50.330000000000005      43.140000000000001
    67   1      3.5949999999999989      52.127500000000005                 44.9375
    68   1      5.3925000000000054      50.330000000000005                 44.9375
    69   1      5.3925000000000054      52.127500000000005      43.140000000000001
    70   1      3.5949999999999989      50.330000000000005      46.735000000000007
    71   1      3.5949999999999989      52.127500000000005      48.532500000000006
    72   1      5.3925000000000054      50.330000000000005      48.532500000000006
    73   1      5.3925000000000054      52.127500000000005      46.735000000000007
    74   1      3.5949999999999989      50.330000000000005      50.330000000000005
    75   1      3.5949999999999989      52.127500000000005      52.127500000000005
    76   1      5.3925000000000054      50.330000000000005      52.127500000000005
    77   1      5.3925000000000054      52.127500000000005      50.330000000000005
    78   1      3.5949999999999989      50.330000000000005      53.924999999999997
    79   1      3.5949999999999989      52.127500000000005      55.722500000000011
    80   1      5.3925000000000054      50.330000000000005      55.722500000000011
    81   1      5.3925000000000054      52.127500000000005      53.924999999999997
    82   1      3.5949999999999989      50.330000000000005      57.520000000000003
    83   1      5.3925000000000054      50.330000000000005      59.317500000000003
    84   1      5.3925000000000054      52.127500000000005      57.520000000000003
    85   1      5.3925000000000054      53.924999999999997      41.342500000000001
    86   1      3.5949999999999989      53.924999999999997      43.140000000000001
    87   1      3.5949999999999989      55.722500000000011                 44.9375
    88   1      5.3925000000000054      53.924999999999997                 44.9375
    89   1      5.3925000000000054      55.722500000000011      43.140000000000001
    90   1      3.5949999999999989      53.924999999999997      46.735000000000007
    91   1      3.5949999999999989      55.722500000000011      48.532500000000006
    92   1      5.3925000000000054      53.924999999999997      48.532500000000006
    93   1      5.3925000000000054      55.722500000000011      46.735000000000007
    94   1      3.5949999999999989      53.924999999999997      50.330000000000005
    95   1      3.5949999999999989      55.722500000000011      52.127500000000005
    96   1      5.3925000000000054      53.924999999999997      52.127500000000005
    97   1      5.3925000000000054      55.722500000000011      50.330000000000005
    98   1      3.5949999999999989      53.924999999999997      53.924999999999997
    99   1      3.5949999999999989      55.722500000000011      55.722500000000011
   100   1      5.3925000000000054      53.924999999999997      55.722500000000011
   101   1      5.3925000000000054      55.722500000000011      53.924999999999997
   102   1      3.5949999999999989      53.924999999999997      57.520000000000003
   103   1      5.3925000000000054      53.924999999999997      59.317500000000003
   104   1      5.3925000000000054      55.722500000000011      57.520000000000003
   105   1      5.3925000000000054      57.520000000000003                 44.9375
   106   1      3.5949999999999989      57.520000000000003      46.735000000000007
   107   1      5.3925000000000054      57.520000000000003      48.532500000000006
   108   1      5.3925000000000054      59.317500000000003      46.735000000000007
   109   1      3.5949999999999989      57.520000000000003      50.330000000000005
   110   1      5.3925000000000054      57.520000000000003      52.127500000000005
   111   1      5.3925000000000054      59.317500000000003      50.330000000000005
   112   1      3.5949999999999989      57.520000000000003      53.924999999999997
   113   1      5.3925000000000054      57.520000000000003      55.722500000000011
   114   1      5.3925000000000054      59.317500000000003      53.924999999999997
   115   1      8.9875000000000043      37.747500000000002      43.140000000000001
   116   1      7.1900000000000048      37.747500000000002      48.532500000000006
   117   1      8.9875000000000043      35.950000000000003      48.532500000000006
   118   1      8.9875000000000043      37.747500000000002      46.735000000000007
   119   1      7.1900000000000048      37.747500000000002      52.127500000000005
   120   1      8.9875000000000043      35.950000000000003      52.127500000000005
   121   1      8.9875000000000043      37.747500000000002      50.330000000000005
   122   1      8.9875000000000043      37.747500000000002      53.924999999999997
   123   1      8.9875000000000043      37.747500000000002      57.520000000000003
   124   1      7.1900000000000048      41.342500000000001      41.342500000000001
   125   1      8.9875000000000043      39.545000000000002      41.342500000000001
   126   1      8.9875000000000043      41.342500000000001      39.545000000000002
   127   1      7.1900000000000048      39.545000000000002      43.140000000000001
   128   1      7.1900000000000048      41.342500000000001                 44.9375
   129   1      8.9875000000000043      39.545000000000002                 44.9375
   130   1      8.9875000000000043      41.342500000000001      43.140000000000001
   131   1      7.1900000000000048      39.545000000000002      46.735000000000007
   132   1      7.1900000000000048      41.342500000000001      48.532500000000006
   133   1      8.9875000000000043      39.545000000000002      48.532500000000006
   134   1      8.9875000000000043      41.342500000000001      46.735000000000007
   135   1      7.1900000000000048      39.545000000000002      50.330000000000005
   136   1      7.1900000000000048      41.342500000000001      52.127500000000005
   137   1      8.9875000000000043      39.545000000000002      52.127500000000005
   138   1      8.9875000000000043      41.342500000000001      50.330000000000005
   139   1      7.1900000000000048      39.545000000000002      53.924999999999997
   140   1      7.1900000000000048      41.342500000000001      55.722500000000011
   141   1      8.9875000000000043      39.545000000000002      55.722500000000011
   142   1      8.9875000000000043      41.342500000000001      53.924999999999997
   143   1      7.1900000000000048      39.545000000000002      57.520000000000003
   144   1      7.1900000000000048      41.342500000000001      59.317500000000003
   145   1      8.9875000000000043      39.545000000000002      59.317500000000003
   146   1      8.9875000000000043      41.342500000000001      57.520000000000003
   147   1      8.9875000000000043      41.342500000000001      61.115000000000009
   148   1      8.9875000000000043      43.140000000000001      37.747500000000002
   149   1      7.1900000000000048      43.140000000000001      39.545000000000002
   150   1      7.1900000000000048                 44.9375      41.342500000000001
   151   1      8.9875000000000043      43.140000000000001      41.342500000000001
   152   1      8.9875000000000043                 44.9375      39.545000000000002
   153   1      7.1900000000000048      43.140000000000001      43.140000000000001
   154   1      7.1900000000000048                 44.9375                 44.9375
   155   1      8.9875000000000043      43.140000000000001                 44.9375
   156   1      8.9875000000000043                 44.9375      43.140000000000001
   157   1      7.1900000000000048      43.140000000000001      46.735000000000007
   158   1      7.1900000000000048                 44.9375      48.532500000000006
   159   1      8.9875000000000043      43.140000000000001      48.532500000000006
   160   1      8.9875000000000043                 44.9375      46.735000000000007
   161   1      7.1900000000000048      43.140000000000001      50.330000000000005
   162   1      7.1900000000000048                 44.9375      52.127500000000005
   163   1      8.9875000000000043      43.140000000000001      52.127500000000005
   164   1      8.9875000000000043                 44.9375      50.330000000000005
   165   1      7.1900000000000048      43.140000000000001      53.924999999999997
   166   1      7.1900000000000048                 44.9375      55.722500000000011
   167   1      8.9875000000000043      43.140000000000001      55.722500000000011
   168   1      8.9875000000000043                 44.9375      53.924999999999997
   169   1      7.1900000000000048      43.140000000000001      57.520000000000003
   170   1      7.1900000000000048                 44.9375      59.317500000000003
   171   1      8.9875000000000043      43.140000000000001      59.317500000000003
   172   1      8.9875000000000043                 44.9375      57.520000000000003
   173   1      7.1900000000000048      43.140000000000001      61.115000000000009
   174   1      8.9875000000000043      43.140000000000001      62.912500000000001
   175   1      8.9875000000000043                 44.9375      61.115000000000009
   176   1      7.1900000000000048      48.532500000000006      37.747500000000002
   177   1      8.9875000000000043      46.735000000000007      37.747500000000002
   178   1      8.9875000000000043      48.532500000000006      35.950000000000003
   179   1      7.1900000000000048      46.735000000000007      39.545000000000002
   180   1      7.1900000000000048      48.532500000000006      41.342500000000001
   181   1      8.9875000000000043      46.735000000000007      41.342500000000001
   182   1      8.9875000000000043      48.532500000000006      39.545000000000002
   183   1      7.1900000000000048      46.735000000000007      43.140000000000001
   184   1      7.1900000000000048      48.532500000000006                 44.9375
   185   1      8.9875000000000043      46.735000000000007                 44.9375
   186   1      8.9875000000000043      48.532500000000006      43.140000000000001
   187   1      7.1900000000000048      46.735000000000007      46.735000000000007
   188   1      7.1900000000000048      48.532500000000006      48.532500000000006
   189   1      8.9875000000000043      46.735000000000007      48.532500000000006
   190   1      8.9875000000000043      48.532500000000006      46.735000000000007
   191   1      7.1900000000000048      46.735000000000007      50.330000000000005
   192   1      7.1900000000000048      48.532500000000006      52.127500000000005
   193   1      8.9875000000000043      46.735000000000007      52.127500000000005
   194   1      8.9875000000000043      48.532500000000006      50.330000000000005
   195   1      7.1900000000000048      46.735000000000007      53.924999999999997
   196   1      7.1900000000000048      48.532500000000006      55.722500000000011
   197   1      8.9875000000000043      46.735000000000007      55.722500000000011
   198   1      8.9875000000000043      48.532500000000006      53.924999999999997
   199   1      7.1900000000000048      46.735000000000007      57.520000000000003
   200   1      7.1900000000000048      48.532500000000006      59.317500000000003
   201   1      8.9875000000000043      46.735000000000007      59.317500000000003
   202   1      8.9875000000000043      48.532500000000006      57.520000000000003
   203   1      7.1900000000000048      46.735000000000007      61.115000000000009
   204   1      7.1900000000000048      48.532500000000006      62.912500000000001
   205   1      8.9875000000000043      46.735000000000007      62.912500000000001
   206   1      8.9875000000000043      48.532500000000006      61.115000000000009
   207   1      8.9875000000000043      48.532500000000006      64.710000000000008
   208   1      7.1900000000000048      52.127500000000005      37.747500000000002
   209   1      8.9875000000000043      50.330000000000005      37.747500000000002
   210   1      8.9875000000000043      52.127500000000005      35.950000000000003
   211   1      7.1900000000000048      50.330000000000005      39.545000000000002
   212   1      7.1900000000000048      52.127500000000005      41.342500000000001
   213   1      8.9875000000000043      50.330000000000005      41.342500000000001
   214   1      8.9875000000000043      52.127500000000005      39.545000000000002
   215   1      7.1900000000000048      50.330000000000005      43.140000000000001
   216   1      7.1900000000000048      52.127500000000005                 44.9375
   217   1      8.9875000000000043      50.330000000000005                 44.9375
   218   1      8.9875000000000043      52.127500000000005      43.140000000000001
   219   1      7.1900000000000048      50.330000000000005      46.735000000000007
   220   1      7.1900000000000048      52.127500000000005      48.532500000000006
   221   1      8.9875000000000043      50.330000000000005      48.532500000000006
   222   1      8.9875000000000043      52.127500000000005      46.735000000000007
   223   1      7.1900000000000048      50.330000000000005      50.330000000000005
   224   1      7.1900000000000048      52.127500000000005      52.127500000000005
   225   1      8.9875000000000043      50.330000000000005      52.127500000000005
   226   1      8.9875000000000043      52.127500000000005      50.330000000000005
   227   1      7.1900000000000048      50.330000000000005      53.924999999999997
   228   1      7.1900000000000048      52.127500000000005      55.722500000000011
   229   1      8.9875000000000043      50.330000000000005      55.722500000000011
   230   1      8.9875000000000043      52.127500000000005      53.924999999999997
   231   1      7.1900000000000048      50.330000000000005      57.520000000000003
   232   1      7.1900000000000048      52.127500000000005      59.317500000000003
   233   1      8.9875000000000043      50.330000000000005      59.317500000000003
   234   1      8.9875000000000043      52.127500000000005      57.520000000000003
   235   1      7.1900000000000048      50.330000000000005      61.115000000000009
   236   1      7.1900000000000048      52.127500000000005      62.912500000000001
   237   1      8.9875000000000043      50.330000000000005      62.912500000000001
   238   1      8.9875000000000043      52.127500000000005      61.115000000000009
   239   1      8.9875000000000043      52.127500000000005      64.710000000000008
   240   1      8.9875000000000043      53.924999999999997      37.747500000000002
   241   1      7.1900000000000048      53.924999999999997      39.545000000000002
   242   1      7.1900000000000048      55.722500000000011      41.342500000000001
   243   1      8.9875000000000043      53.924999999999997      41.342500000000001
   244   1      8.9875000000000043      55.722500000000011      39.545000000000002
   245   1      7.1900000000000048      53.924999999999997      43.140000000000001
   246   1      7.1900000000000048      55.722500000000011                 44.9375
   247   1      8.9875000000000043      53.924999999999997                 44.9375
   248   1      8.9875000000000043      55.722500000000011      43.140000000000001
   249   1      7.1900000000000048      53.924999999999997      46.735000000000007
   250   1      7.1900000000000048      55.722500000000011      48.532500000000006
   251   1      8.9875000000000043      53.924999999999997      48.532500000000006
   252   1      8.9875000000000043      55.722500000000011      46.735000000000007
   253   1      7.1900000000000048      53.924999999999997      50.330000000000005
   254   1      7.1900000000000048      55.722500000000011      52.127500000000005
   255   1      8.9875000000000043      53.924999999999997      52.127500000000005
   256   1      8.9875000000000043      55.722500000000011      50.330000000000005
   257   1      7.1900000000000048      53.924999999999997      53.924999999999997
   258   1      7.1900000000000048      55.722500000000011      55.722500000000011
   259   1      8.9875000000000043      53.924999999999997      55.722500000000011
   260   1      8.9875000000000043      55.722500000000011      53.924999999999997
   261   1      7.1900000000000048      53.924999999999997      57.520000000000003
   262   1      7.1900000000000048      55.722500000000011      59.317500000000003
   263   1      8.9875000000000043      53.924999999999997      59.317500000000003
   264   1      8.9875000000000043      55.722500000000011      57.520000000000003
   265   1      7.1900000000000048      53.924999999999997      61.115000000000009
   266   1      8.9875000000000043      53.924999999999997      62.912500000000001
   267   1      8.9875000000000043      55.722500000000011      61.115000000000009
   268   1      8.9875000000000043      57.520000000000003      37.747500000000002
   269   1      7.1900000000000048      57.520000000000003      39.545000000000002
   270   1      7.1900000000000048      59.317500000000003      41.342500000000001
   271   1      8.9875000000000043      57.520000000000003      41.342500000000001
   272   1      8.9875000000000043      59.317500000000003      39.545000000000002
   273   1      7.1900000000000048      57.520000000000003      43.140000000000001
   274   1      7.1900000000000048      59.317500000000003                 44.9375
   275   1      8.9875000000000043      57.520000000000003                 44.9375
   276   1      8.9875000000000043      59.317500000000003      43.140000000000001
   277   1      7.1900000000000048      57.520000000000003      46.735000000000007
   278   1      7.1900000000000048      59.317500000000003      48.532500000000006
   279   1      8.9875000000000043      57.520000000000003      48.532500000000006
   280   1      8.9875000000000043      59.317500000000003      46.735000000000007
   281   1      7.1900000000000048      57.520000000000003      50.330000000000005
   282   1      7.1900000000000048      59.317500000000003      52.127500000000005
   283   1      8.9875000000000043      57.520000000000003      52.127500000000005
   284   1      8.9875000000000043      59.317500000000003      50.330000000000005
   285   1      7.1900000000000048      57.520000000000003      53.924999999999997
   286   1      7.1900000000000048      59.317500000000003      55.722500000000011
   287   1      8.9875000000000043      57.520000000000003      55.722500000000011
   288   1      8.9875000000000043      59.317500000000003      53.924999999999997
   289   1      7.1900000000000048      57.520000000000003      57.520000000000003
   290   1      7.1900000000000048      59.317500000000003      59.317500000000003
   291   1      8.9875000000000043      57.520000000000003      59.317500000000003
   292   1      8.9875000000000043      59.317500000000003      57.520000000000003
   293   1      7.1900000000000048      57.520000000000003      61.115000000000009
   294   1      8.9875000000000043      57.520000000000003      62.912500000000001
   295   1      8.9875000000000043      59.317500000000003      61.115000000000009
   296   1      8.9875000000000043      61.115000000000009      41.342500000000001
   297   1      7.1900000000000048      61.115000000000009      43.140000000000001
   298   1      8.9875000000000043      61.115000000000009                 44.9375
   299   1      8.9875000000000043      62.912500000000001      43.140000000000001
   300   1      7.1900000000000048      61.115000000000009      46.735000000000007
   301   1      7.1900000000000048      62.912500000000001      48.532500000000006
   302   1      8.9875000000000043      61.115000000000009      48.532500000000006
   303   1      8.9875000000000043      62.912500000000001      46.735000000000007
   304   1      7.1900000000000048      61.115000000000009      50.330000000000005
   305   1      7.1900000000000048      62.912500000000001      52.127500000000005
   306   1      8.9875000000000043      61.115000000000009      52.127500000000005
   307   1      8.9875000000000043      62.912500000000001      50.330000000000005
   308   1      7.1900000000000048      61.115000000000009      53.924999999999997
   309   1      8.9875000000000043      61.115000000000009      55.722500000000011
   310   1      8.9875000000000043      62.912500000000001      53.924999999999997
   311   1      7.1900000000000048      61.115000000000009      57.520000000000003
   312   1      8.9875000000000043      61.115000000000009      59.317500000000003
   313   1      8.9875000000000043      62.912500000000001      57.520000000000003
   314   1      8.9875000000000043      64.710000000000008      48.532500000000006
   315   1      8.9875000000000043      64.710000000000008      52.127500000000005
   316   1      12.582500000000001      30.557500000000005      50.330000000000005
   317   1      12.582500000000001      34.152500000000003      39.545000000000002
   318   1      10.785000000000004      34.152500000000003                 44.9375
   319   1      12.582500000000001      32.355000000000004                 44.9375
   320   1      12.582500000000001      34.152500000000003      43.140000000000001
   321   1      10.785000000000004      34.152500000000003      48.532500000000006
   322   1      12.582500000000001      32.355000000000004      48.532500000000006
   323   1      12.582500000000001      34.152500000000003      46.735000000000007
   324   1      10.785000000000004      32.355000000000004      50.330000000000005
   325   1      10.785000000000004      34.152500000000003      52.127500000000005
   326   1      12.582500000000001      32.355000000000004      52.127500000000005
   327   1      12.582500000000001      34.152500000000003      50.330000000000005
   328   1      10.785000000000004      34.152500000000003      55.722500000000011
   329   1      12.582500000000001      32.355000000000004      55.722500000000011
   330   1      12.582500000000001      34.152500000000003      53.924999999999997
   331   1      12.582500000000001      34.152500000000003      57.520000000000003
   332   1      12.582500000000001      34.152500000000003      61.115000000000009
   333   1      10.785000000000004      37.747500000000002      37.747500000000002
   334   1      12.582500000000001      35.950000000000003      37.747500000000002
   335   1      12.582500000000001      37.747500000000002      35.950000000000003
   336   1      10.785000000000004      35.950000000000003      39.545000000000002
   337   1      10.785000000000004      37.747500000000002      41.342500000000001
   338   1      12.582500000000001      35.950000000000003      41.342500000000001
   339   1      12.582500000000001      37.747500000000002      39.545000000000002
   340   1      10.785000000000004      35.950000000000003      43.140000000000001
   341   1      10.785000000000004      37.747500000000002                 44.9375
   342   1      12.582500000000001      35.950000000000003                 44.9375
   343   1      12.582500000000001      37.747500000000002      43.140000000000001
   344   1      10.785000000000004      35.950000000000003      46.735000000000007
   345   1      10.785000000000004      37.747500000000002      48.532500000000006
   346   1      12.582500000000001      35.950000000000003      48.532500000000006
   347   1      12.582500000000001      37.747500000000002      46.735000000000007
   348   1      10.785000000000004      35.950000000000003      50.330000000000005
   349   1      10.785000000000004      37.747500000000002      52.127500000000005
   350   1      12.582500000000001      35.950000000000003      52.127500000000005
   351   1      12.582500000000001      37.747500000000002      50.330000000000005
   352   1      10.785000000000004      35.950000000000003      53.924999999999997
   353   1      10.785000000000004      37.747500000000002      55.722500000000011
   354   1      12.582500000000001      35.950000000000003      55.722500000000011
   355   1      12.582500000000001      37.747500000000002      53.924999999999997
   356   1      10.785000000000004      35.950000000000003      57.520000000000003
   357   1      10.785000000000004      37.747500000000002      59.317500000000003
   358   1      12.582500000000001      35.950000000000003      59.317500000000003