model_files/Pt/Pt_10000/Pt_332/data.Pt_332_fcc_10311 (written by ASE) 

10311 	 atoms 
1  atom types
0.0                      86  xlo xhi
0.0                      86  ylo yhi
0.0                      86  zlo zhi


Atoms 

     1   1                       0      41.159999999999997      41.159999999999997
     2   1      1.9600000000000009      39.199999999999996      41.159999999999997
     3   1      1.9600000000000009      41.159999999999997      39.199999999999996
     4   1                       0      41.159999999999997      45.079999999999998
     5   1      1.9600000000000009      39.199999999999996      45.079999999999998
     6   1      1.9600000000000009      41.159999999999997      43.119999999999997
     7   1      1.9600000000000009      41.159999999999997      47.039999999999999
     8   1                       0      45.079999999999998      41.159999999999997
     9   1      1.9600000000000009      43.119999999999997      41.159999999999997
    10   1      1.9600000000000009      45.079999999999998      39.199999999999996
    11   1                       0      43.119999999999997      43.119999999999997
    12   1                       0      45.079999999999998      45.079999999999998
    13   1      1.9600000000000009      43.119999999999997      45.079999999999998
    14   1      1.9600000000000009      45.079999999999998      43.119999999999997
    15   1      1.9600000000000009      45.079999999999998      47.039999999999999
    16   1      1.9600000000000009      47.039999999999999      41.159999999999997
    17   1      1.9600000000000009      47.039999999999999      45.079999999999998
    18   1      3.9199999999999942      37.240000000000002      41.159999999999997
    19   1      5.8800000000000017      35.280000000000001      41.159999999999997
    20   1      5.8800000000000017      37.240000000000002      39.199999999999996
    21   1      3.9199999999999942      37.240000000000002      45.079999999999998
    22   1      5.8800000000000017      35.280000000000001      45.079999999999998
    23   1      5.8800000000000017      37.240000000000002      43.119999999999997
    24   1      5.8800000000000017      37.240000000000002      47.039999999999999
    25   1      3.9199999999999942      41.159999999999997      37.240000000000002
    26   1      5.8800000000000017      39.199999999999996      37.240000000000002
    27   1      5.8800000000000017      41.159999999999997      35.280000000000001
    28   1      3.9199999999999942      39.199999999999996      39.199999999999996
    29   1      3.9199999999999942      41.159999999999997      41.159999999999997
    30   1      5.8800000000000017      39.199999999999996      41.159999999999997
    31   1      5.8800000000000017      41.159999999999997      39.199999999999996
    32   1      3.9199999999999942      39.199999999999996      43.119999999999997
    33   1      3.9199999999999942      41.159999999999997      45.079999999999998
    34   1      5.8800000000000017      39.199999999999996      45.079999999999998
    35   1      5.8800000000000017      41.159999999999997      43.119999999999997
    36   1      3.9199999999999942      39.199999999999996      47.039999999999999
    37   1      3.9199999999999942      41.159999999999997                      49
    38   1      5.8800000000000017      39.199999999999996                      49
    39   1      5.8800000000000017      41.159999999999997      47.039999999999999
    40   1      5.8800000000000017      41.159999999999997      50.959999999999994
    41   1      3.9199999999999942      45.079999999999998      37.240000000000002
    42   1      5.8800000000000017      43.119999999999997      37.240000000000002
    43   1      5.8800000000000017      45.079999999999998      35.280000000000001
    44   1      3.9199999999999942      43.119999999999997      39.199999999999996
    45   1      3.9199999999999942      45.079999999999998      41.159999999999997
    46   1      5.8800000000000017      43.119999999999997      41.159999999999997
    47   1      5.8800000000000017      45.079999999999998      39.199999999999996
    48   1      3.9199999999999942      43.119999999999997      43.119999999999997
    49   1      3.9199999999999942      45.079999999999998      45.079999999999998
    50   1      5.8800000000000017      43.119999999999997      45.079999999999998
    51   1      5.8800000000000017      45.079999999999998      43.119999999999997
    52   1      3.9199999999999942      43.119999999999997      47.039999999999999
    53   1      3.9199999999999942      45.079999999999998                      49
    54   1      5.8800000000000017      43.119999999999997                      49
    55   1      5.8800000000000017      45.079999999999998      47.039999999999999
    56   1      5.8800000000000017      45.079999999999998      50.959999999999994
    57   1      5.8800000000000017      47.039999999999999      37.240000000000002
    58   1      3.9199999999999942      47.039999999999999      39.199999999999996
    59   1      3.9199999999999942                      49      41.159999999999997
    60   1      5.8800000000000017      47.039999999999999      41.159999999999997
    61   1      5.8800000000000017                      49      39.199999999999996
    62   1      3.9199999999999942      47.039999999999999      43.119999999999997
    63   1      3.9199999999999942                      49      45.079999999999998
    64   1      5.8800000000000017      47.039999999999999      45.079999999999998
    65   1      5.8800000000000017                      49      43.119999999999997
    66   1      3.9199999999999942      47.039999999999999      47.039999999999999
    67   1      5.8800000000000017      47.039999999999999                      49
    68   1      5.8800000000000017                      49      47.039999999999999
    69   1      5.8800000000000017      50.959999999999994      41.159999999999997
    70   1      5.8800000000000017      50.959999999999994      45.079999999999998
    71   1      7.8399999999999954                   33.32      41.159999999999997
    72   1      9.7999999999999972      31.359999999999999      41.159999999999997
    73   1      9.7999999999999972                   33.32      39.199999999999996
    74   1      7.8399999999999954                   33.32      45.079999999999998
    75   1      9.7999999999999972      31.359999999999999      45.079999999999998
    76   1      9.7999999999999972                   33.32      43.119999999999997
    77   1      9.7999999999999972                   33.32      47.039999999999999
    78   1      7.8399999999999954      37.240000000000002      37.240000000000002
    79   1      9.7999999999999972      35.280000000000001      37.240000000000002
    80   1      9.7999999999999972      37.240000000000002      35.280000000000001
    81   1      7.8399999999999954      35.280000000000001      39.199999999999996
    82   1      7.8399999999999954      37.240000000000002      41.159999999999997
    83   1      9.7999999999999972      35.280000000000001      41.159999999999997
    84   1      9.7999999999999972      37.240000000000002      39.199999999999996
    85   1      7.8399999999999954      35.280000000000001      43.119999999999997
    86   1      7.8399999999999954      37.240000000000002      45.079999999999998
    87   1      9.7999999999999972      35.280000000000001      45.079999999999998
    88   1      9.7999999999999972      37.240000000000002      43.119999999999997
    89   1      7.8399999999999954      35.280000000000001      47.039999999999999
    90   1      7.8399999999999954      37.240000000000002                      49
    91   1      9.7999999999999972      35.280000000000001                      49
    92   1      9.7999999999999972      37.240000000000002      47.039999999999999
    93   1      9.7999999999999972      37.240000000000002      50.959999999999994
    94   1      7.8399999999999954      41.159999999999997                   33.32
    95   1      9.7999999999999972      39.199999999999996                   33.32
    96   1      9.7999999999999972      41.159999999999997      31.359999999999999
    97   1      7.8399999999999954      39.199999999999996      35.280000000000001
    98   1      7.8399999999999954      41.159999999999997      37.240000000000002
    99   1      9.7999999999999972      39.199999999999996      37.240000000000002
   100   1      9.7999999999999972      41.159999999999997      35.280000000000001
   101   1      7.8399999999999954      39.199999999999996      39.199999999999996
   102   1      7.8399999999999954      41.159999999999997      41.159999999999997
   103   1      9.7999999999999972      39.199999999999996      41.159999999999997
   104   1      9.7999999999999972      41.159999999999997      39.199999999999996
   105   1      7.8399999999999954      39.199999999999996      43.119999999999997
   106   1      7.8399999999999954      41.159999999999997      45.079999999999998
   107   1      9.7999999999999972      39.199999999999996      45.079999999999998
   108   1      9.7999999999999972      41.159999999999997      43.119999999999997
   109   1      7.8399999999999954      39.199999999999996      47.039999999999999
   110   1      7.8399999999999954      41.159999999999997                      49
   111   1      9.7999999999999972      39.199999999999996                      49
   112   1      9.7999999999999972      41.159999999999997      47.039999999999999
   113   1      7.8399999999999954      39.199999999999996      50.959999999999994
   114   1      7.8399999999999954      41.159999999999997      52.919999999999995
   115   1      9.7999999999999972      39.199999999999996      52.919999999999995
   116   1      9.7999999999999972      41.159999999999997      50.959999999999994
   117   1      9.7999999999999972      41.159999999999997      54.879999999999995
   118   1      7.8399999999999954      45.079999999999998                   33.32
   119   1      9.7999999999999972      43.119999999999997                   33.32
   120   1      9.7999999999999972      45.079999999999998      31.359999999999999
   121   1      7.8399999999999954      43.119999999999997      35.280000000000001
   122   1      7.8399999999999954      45.079999999999998      37.240000000000002
   123   1      9.7999999999999972      43.119999999999997      37.240000000000002
   124   1      9.7999999999999972      45.079999999999998      35.280000000000001
   125   1      7.8399999999999954      43.119999999999997      39.199999999999996
   126   1      7.8399999999999954      45.079999999999998      41.159999999999997
   127   1      9.7999999999999972      43.119999999999997      41.159999999999997
   128   1      9.7999999999999972      45.079999999999998      39.199999999999996
   129   1      7.8399999999999954      43.119999999999997      43.119999999999997
   130   1      7.8399999999999954      45.079999999999998      45.079999999999998
   131   1      9.7999999999999972      43.119999999999997      45.079999999999998
   132   1      9.7999999999999972      45.079999999999998      43.119999999999997
   133   1      7.8399999999999954      43.119999999999997      47.039999999999999
   134   1      7.8399999999999954      45.079999999999998                      49
   135   1      9.7999999999999972      43.119999999999997                      49
   136   1      9.7999999999999972      45.079999999999998      47.039999999999999
   137   1      7.8399999999999954      43.119999999999997      50.959999999999994
   138   1      7.8399999999999954      45.079999999999998      52.919999999999995
   139   1      9.7999999999999972      43.119999999999997      52.919999999999995
   140   1      9.7999999999999972      45.079999999999998      50.959999999999994
   141   1      9.7999999999999972      45.079999999999998      54.879999999999995
   142   1      9.7999999999999972      47.039999999999999                   33.32
   143   1      7.8399999999999954      47.039999999999999      35.280000000000001
   144   1      7.8399999999999954                      49      37.240000000000002
   145   1      9.7999999999999972      47.039999999999999      37.240000000000002
   146   1      9.7999999999999972                      49      35.280000000000001
   147   1      7.8399999999999954      47.039999999999999      39.199999999999996
   148   1      7.8399999999999954                      49      41.159999999999997
   149   1      9.7999999999999972      47.039999999999999      41.159999999999997
   150   1      9.7999999999999972                      49      39.199999999999996
   151   1      7.8399999999999954      47.039999999999999      43.119999999999997
   152   1      7.8399999999999954                      49      45.079999999999998
   153   1      9.7999999999999972      47.039999999999999      45.079999999999998
   154   1      9.7999999999999972                      49      43.119999999999997
   155   1      7.8399999999999954      47.039999999999999      47.039999999999999
   156   1      7.8399999999999954                      49                      49
   157   1      9.7999999999999972      47.039999999999999                      49
   158   1      9.7999999999999972                      49      47.039999999999999
   159   1      7.8399999999999954      47.039999999999999      50.959999999999994
   160   1      9.7999999999999972      47.039999999999999      52.919999999999995
   161   1      9.7999999999999972                      49      50.959999999999994
   162   1      9.7999999999999972      50.959999999999994      37.240000000000002
   163   1      7.8399999999999954      50.959999999999994      39.199999999999996
   164   1      7.8399999999999954      52.919999999999995      41.159999999999997
   165   1      9.7999999999999972      50.959999999999994      41.159999999999997
   166   1      9.7999999999999972      52.919999999999995      39.199999999999996
   167   1      7.8399999999999954      50.959999999999994      43.119999999999997
   168   1      7.8399999999999954      52.919999999999995      45.079999999999998
   169   1      9.7999999999999972      50.959999999999994      45.079999999999998
   170   1      9.7999999999999972      52.919999999999995      43.119999999999997
   171   1      7.8399999999999954      50.959999999999994      47.039999999999999
   172   1      9.7999999999999972      50.959999999999994                      49
   173   1      9.7999999999999972      52.919999999999995      47.039999999999999
   174   1      9.7999999999999972      54.879999999999995      41.159999999999997
   175   1      9.7999999999999972      54.879999999999995      45.079999999999998
   176   1      11.759999999999996      29.399999999999999      41.159999999999997
   177   1      13.719999999999999      27.439999999999998      41.159999999999997
   178   1      13.719999999999999      29.399999999999999      39.199999999999996
   179   1      11.759999999999996      29.399999999999999      45.079999999999998
   180   1      13.719999999999999      27.439999999999998      45.079999999999998
   181   1      13.719999999999999      29.399999999999999      43.119999999999997
   182   1      13.719999999999999      29.399999999999999      47.039999999999999
   183   1      11.759999999999996                   33.32      37.240000000000002
   184   1      13.719999999999999      31.359999999999999      37.240000000000002
   185   1      13.719999999999999                   33.32      35.280000000000001
   186   1      11.759999999999996      31.359999999999999      39.199999999999996
   187   1      11.759999999999996                   33.32      41.159999999999997
   188   1      13.719999999999999      31.359999999999999      41.159999999999997
   189   1      13.719999999999999                   33.32      39.199999999999996
   190   1      11.759999999999996      31.359999999999999      43.119999999999997
   191   1      11.759999999999996                   33.32      45.079999999999998
   192   1      13.719999999999999      31.359999999999999      45.079999999999998
   193   1      13.719999999999999                   33.32      43.119999999999997
   194   1      11.759999999999996      31.359999999999999      47.039999999999999
   195   1      11.759999999999996                   33.32                      49
   196   1      13.719999999999999      31.359999999999999                      49
   197   1      13.719999999999999                   33.32      47.039999999999999
   198   1      13.719999999999999                   33.32      50.959999999999994
   199   1      11.759999999999996      37.240000000000002                   33.32
   200   1      13.719999999999999      35.280000000000001                   33.32
   201   1      13.719999999999999      37.240000000000002      31.359999999999999
   202   1      11.759999999999996      35.280000000000001      35.280000000000001
   203   1      11.759999999999996      37.240000000000002      37.240000000000002
   204   1      13.719999999999999      35.280000000000001      37.240000000000002
   205   1      13.719999999999999      37.240000000000002      35.280000000000001
   206   1      11.759999999999996      35.280000000000001      39.199999999999996
   207   1      11.759999999999996      37.240000000000002      41.159999999999997
   208   1      13.719999999999999      35.280000000000001      41.159999999999997
   209   1      13.719999999999999      37.240000000000002      39.199999999999996
   210   1      11.759999999999996      35.280000000000001      43.119999999999997
   211   1      11.759999999999996      37.240000000000002      45.079999999999998
   212   1      13.719999999999999      35.280000000000001      45.079999999999998
   213   1      13.719999999999999      37.240000000000002      43.119999999999997
   214   1      11.759999999999996      35.280000000000001      47.039999999999999
   215   1      11.759999999999996      37.240000000000002                      49
   216   1      13.719999999999999      35.280000000000001                      49
   217   1      13.719999999999999      37.240000000000002      47.039999999999999
   218   1      11.759999999999996      35.280000000000001      50.959999999999994
   219   1      11.759999999999996      37.240000000000002      52.919999999999995
   220   1      13.719999999999999      35.280000000000001      52.919999999999995
   221   1      13.719999999999999      37.240000000000002      50.959999999999994
   222   1      13.719999999999999      37.240000000000002      54.879999999999995
   223   1      11.759999999999996      41.159999999999997      29.399999999999999
   224   1      13.719999999999999      39.199999999999996      29.399999999999999
   225   1      13.719999999999999      41.159999999999997      27.439999999999998
   226   1      11.759999999999996      39.199999999999996      31.359999999999999
   227   1      11.759999999999996      41.159999999999997                   33.32
   228   1      13.719999999999999      39.199999999999996                   33.32
   229   1      13.719999999999999      41.159999999999997      31.359999999999999
   230   1      11.759999999999996      39.199999999999996      35.280000000000001
   231   1      11.759999999999996      41.159999999999997      37.240000000000002
   232   1      13.719999999999999      39.199999999999996      37.240000000000002
   233   1      13.719999999999999      41.159999999999997      35.280000000000001
   234   1      11.759999999999996      39.199999999999996      39.199999999999996
   235   1      11.759999999999996      41.159999999999997      41.159999999999997
   236   1      13.719999999999999      39.199999999999996      41.159999999999997
   237   1      13.719999999999999      41.159999999999997      39.199999999999996
   238   1      11.759999999999996      39.199999999999996      43.119999999999997
   239   1      11.759999999999996      41.159999999999997      45.079999999999998
   240   1      13.719999999999999      39.199999999999996      45.079999999999998
   241   1      13.719999999999999      41.159999999999997      43.119999999999997
   242   1      11.759999999999996      39.199999999999996      47.039999999999999
   243   1      11.759999999999996      41.159999999999997                      49
   244   1      13.719999999999999      39.199999999999996                      49
   245   1      13.719999999999999      41.159999999999997      47.039999999999999
   246   1      11.759999999999996      39.199999999999996      50.959999999999994
   247   1      11.759999999999996      41.159999999999997      52.919999999999995
   248   1      13.719999999999999      39.199999999999996      52.919999999999995
   249   1      13.719999999999999      41.159999999999997      50.959999999999994
   250   1      11.759999999999996      39.199999999999996      54.879999999999995
   251   1      11.759999999999996      41.159999999999997      56.839999999999989
   252   1      13.719999999999999      39.199999999999996      56.839999999999989
   253   1      13.719999999999999      41.159999999999997      54.879999999999995
   254   1      13.719999999999999      41.159999999999997      58.799999999999997
   255   1      11.759999999999996      45.079999999999998      29.399999999999999
   256   1      13.719999999999999      43.119999999999997      29.399999999999999
   257   1      13.719999999999999      45.079999999999998      27.439999999999998
   258   1      11.759999999999996      43.119999999999997      31.359999999999999
   259   1      11.759999999999996      45.079999999999998                   33.32
   260   1      13.719999999999999      43.119999999999997                   33.32
   261   1      13.719999999999999      45.079999999999998      31.359999999999999
   262   1      11.759999999999996      43.119999999999997      35.280000000000001
   263   1      11.759999999999996      45.079999999999998      37.240000000000002
   264   1      13.719999999999999      43.119999999999997      37.240000000000002
   265   1      13.719999999999999      45.079999999999998      35.280000000000001
   266   1      11.759999999999996      43.119999999999997      39.199999999999996
   267   1      11.759999999999996      45.079999999999998      41.159999999999997
   268   1      13.719999999999999      43.119999999999997      41.159999999999997
   269   1      13.719999999999999      45.079999999999998      39.199999999999996
   270   1      11.759999999999996      43.119999999999997      43.119999999999997
   271   1      11.759999999999996      45.079999999999998      45.079999999999998
   272   1      13.719999999999999      43.119999999999997      45.079999999999998
   273   1      13.719999999999999      45.079999999999998      43.119999999999997
   274   1      11.759999999999996      43.119999999999997      47.039999999999999
   275   1      11.759999999999996      45.079999999999998                      49
   276   1      13.719999999999999      43.119999999999997                      49
   277   1      13.719999999999999      45.079999999999998      47.039999999999999
   278   1      11.759999999999996      43.119999999999997      50.959999999999994
   279   1      11.759999999999996      45.079999999999998      52.919999999999995
   280   1      13.719999999999999      43.119999999999997      52.919999999999995
   281   1      13.719999999999999      45.079999999999998      50.959999999999994
   282   1      11.759999999999996      43.119999999999997      54.879999999999995
   283   1      11.759999999999996      45.079999999999998      56.839999999999989
   284   1      13.719999999999999      43.119999999999997      56.839999999999989
   285   1      13.719999999999999      45.079999999999998      54.879999999999995
   286   1      13.719999999999999      45.079999999999998      58.799999999999997
   287   1      13.719999999999999      47.039999999999999      29.399999999999999
   288   1      11.759999999999996      47.039999999999999      31.359999999999999
   289   1      11.759999999999996                      49                   33.32
   290   1      13.719999999999999      47.039999999999999                   33.32
   291   1      13.719999999999999                      49      31.359999999999999
   292   1      11.759999999999996      47.039999999999999      35.280000000000001
   293   1      11.759999999999996                      49      37.240000000000002
   294   1      13.719999999999999      47.039999999999999      37.240000000000002
   295   1      13.719999999999999                      49      35.280000000000001
   296   1      11.759999999999996      47.039999999999999      39.199999999999996
   297   1      11.759999999999996                      49      41.159999999999997
   298   1      13.719999999999999      47.039999999999999      41.159999999999997
   299   1      13.719999999999999                      49      39.199999999999996
   300   1      11.759999999999996      47.039999999999999      43.119999999999997
   301   1      11.759999999999996                      49      45.079999999999998
   302   1      13.719999999999999      47.039999999999999      45.079999999999998
   303   1      13.719999999999999                      49      43.119999999999997
   304   1      11.759999999999996      47.039999999999999      47.039999999999999
   305   1      11.759999999999996                      49                      49
   306   1      13.719999999999999      47.039999999999999                      49
   307   1      13.719999999999999                      49      47.039999999999999
   308   1      11.759999999999996      47.039999999999999      50.959999999999994
   309   1      11.759999999999996                      49      52.919999999999995
   310   1      13.719999999999999      47.039999999999999      52.919999999999995
   311   1      13.719999999999999                      49      50.959999999999994
   312   1      11.759999999999996      47.039999999999999      54.879999999999995
   313   1      13.719999999999999      47.039999999999999      56.839999999999989
   314   1      13.719999999999999                      49      54.879999999999995
   315   1      13.719999999999999      50.959999999999994                   33.32
   316   1      11.759999999999996      50.959999999999994      35.280000000000001
   317   1      11.759999999999996      52.919999999999995      37.240000000000002
   318   1      13.719999999999999      50.959999999999994      37.240000000000002
   319   1      13.719999999999999      52.919999999999995      35.280000000000001
   320   1      11.759999999999996      50.959999999999994      39.199999999999996
   321   1      11.759999999999996      52.919999999999995      41.159999999999997
   322   1      13.719999999999999      50.959999999999994      41.159999999999997
   323   1      13.719999999999999      52.919999999999995      39.199999999999996
   324   1      11.759999999999996      50.959999999999994      43.119999999999997
   325   1      11.759999999999996      52.919999999999995      45.079999999999998
   326   1      13.719999999999999      50.959999999999994      45.079999999999998
   327   1      13.719999999999999      52.919999999999995      43.119999999999997
   328   1      11.759999999999996      50.959999999999994      47.039999999999999
   329   1      11.759999999999996      52.919999999999995                      49
   330   1      13.719999999999999      50.959999999999994                      49
   331   1      13.719999999999999      52.919999999999995      47.039999999999999
   332   1      11.759999999999996      50.959999999999994      50.959999999999994
   333   1      13.719999999999999      50.959999999999994      52.919999999999995
   334   1      13.719999999999999      52.919999999999995      50.959999999999994
   335   1      13.719999999999999      54.879999999999995      37.240000000000002
   336   1      11.759999999999996      54.879999999999995      39.199999999999996
   337   1      11.759999999999996      56.839999999999989      41.159999999999997
   338   1      13.719999999999999      54.879999999999995      41.159999999999997
   339   1      13.719999999999999      56.839999999999989      39.199999999999996
   340   1      11.759999999999996      54.879999999999995      43.119999999999997
   341   1      11.759999999999996      56.839999999999989      45.079999999999998
   342   1      13.719999999999999      54.879999999999995      45.079999999999998
   343   1      13.719999999999999      56.839999999999989      43.119999999999997
   344   1      11.759999999999996      54.879999999999995      47.039999999999999
   345   1      13.719999999999999      54.879999999999995                      49
   346   1      13.719999999999999      56.839999999999989      47.039999999999999
   347   1      13.719999999999999      58.799999999999997      41.159999999999997
   348   1      13.719999999999999      58.799999999999997      45.079999999999998
   349   1                   15.68      25.479999999999997      41.159999999999997
   350   1      17.640000000000001      23.519999999999992      41.159999999999997
   351   1      17.640000000000001      25.479999999999997      39.199999999999996
   352   1                   15.68      25.479999999999997      45.079999999999998
   353   1      17.640000000000001      23.519999999999992      45.079999999999998
   354   1      17.640000000000001      25.479999999999997      43.119999999999997
   355   1      17.640000000000001      25.479999999999997      47.039999999999999
   356   1                   15.68      29.399999999999999      37.240000000000002
   357   1      17.640000000000001      27.439999999999998      37.240000000000002
   358   1      17.640000000000001      29.399999999999999      35.280000000000001