model_files/PtCo/PtCo_30000/PtCo_432/PtCo_432_fcc_29911_temp.data (written by ASE) 

29911 	 atoms 
2  atom types
0.0                     111  xlo xhi
0.0                     111  ylo yhi
0.0                     111  zlo zhi


Atoms 

     1   1      1.8249999999999955      52.924999999999997      54.749999999999993
     2   1      1.8249999999999955      54.749999999999993      52.924999999999997
     3   1      110.99999999999999      54.749999999999993      54.749999999999993
     4   1      1.8249999999999955      54.749999999999993      56.574999999999996
     5   1      1.8249999999999955      56.574999999999996      54.749999999999993
     6   1      5.4749999999999943      45.624999999999993      54.749999999999993
     7   1       3.649999999999991      49.274999999999999      52.924999999999997
     8   1      5.4749999999999943      47.449999999999996      52.924999999999997
     9   1      5.4749999999999943      49.274999999999999      51.099999999999994
    10   1       3.649999999999991      49.274999999999999      56.574999999999996
    11   1      5.4749999999999943      47.449999999999996      56.574999999999996
    12   1      5.4749999999999943      49.274999999999999      54.749999999999993
    13   1      5.4749999999999943      49.274999999999999      58.399999999999991
    14   1       3.649999999999991      52.924999999999997      49.274999999999999
    15   1      5.4749999999999943      51.099999999999994      49.274999999999999
    16   1      5.4749999999999943      52.924999999999997      47.449999999999996
    17   1       3.649999999999991      51.099999999999994      51.099999999999994
    18   1       3.649999999999991      52.924999999999997      52.924999999999997
    19   1      5.4749999999999943      51.099999999999994      52.924999999999997
    20   1      5.4749999999999943      52.924999999999997      51.099999999999994
    21   1       3.649999999999991      51.099999999999994      54.749999999999993
    22   1       3.649999999999991      52.924999999999997      56.574999999999996
    23   1      5.4749999999999943      51.099999999999994      56.574999999999996
    24   1      5.4749999999999943      52.924999999999997      54.749999999999993
    25   1       3.649999999999991      51.099999999999994      58.399999999999991
    26   1       3.649999999999991      52.924999999999997      60.224999999999994
    27   1      5.4749999999999943      51.099999999999994      60.224999999999994
    28   1      5.4749999999999943      52.924999999999997      58.399999999999991
    29   1      5.4749999999999943      52.924999999999997      62.049999999999997
    30   1      5.4749999999999943      54.749999999999993      45.624999999999993
    31   1       3.649999999999991      56.574999999999996      49.274999999999999
    32   1      5.4749999999999943      54.749999999999993      49.274999999999999
    33   1      5.4749999999999943      56.574999999999996      47.449999999999996
    34   1       3.649999999999991      54.749999999999993      51.099999999999994
    35   1       3.649999999999991      56.574999999999996      52.924999999999997
    36   1      5.4749999999999943      54.749999999999993      52.924999999999997
    37   1      5.4749999999999943      56.574999999999996      51.099999999999994
    38   1       3.649999999999991      54.749999999999993      54.749999999999993
    39   1       3.649999999999991      56.574999999999996      56.574999999999996
    40   1      5.4749999999999943      54.749999999999993      56.574999999999996
    41   1      5.4749999999999943      56.574999999999996      54.749999999999993
    42   1       3.649999999999991      54.749999999999993      58.399999999999991
    43   1       3.649999999999991      56.574999999999996      60.224999999999994
    44   1      5.4749999999999943      54.749999999999993      60.224999999999994
    45   1      5.4749999999999943      56.574999999999996      58.399999999999991
    46   1      5.4749999999999943      54.749999999999993      63.874999999999993
    47   1      5.4749999999999943      56.574999999999996      62.049999999999997
    48   1      5.4749999999999943      58.399999999999991      49.274999999999999
    49   1       3.649999999999991      58.399999999999991      51.099999999999994
    50   1       3.649999999999991      60.224999999999994      52.924999999999997
    51   1      5.4749999999999943      58.399999999999991      52.924999999999997
    52   1      5.4749999999999943      60.224999999999994      51.099999999999994
    53   1       3.649999999999991      58.399999999999991      54.749999999999993
    54   1       3.649999999999991      60.224999999999994      56.574999999999996
    55   1      5.4749999999999943      58.399999999999991      56.574999999999996
    56   1      5.4749999999999943      60.224999999999994      54.749999999999993
    57   1       3.649999999999991      58.399999999999991      58.399999999999991
    58   1      5.4749999999999943      58.399999999999991      60.224999999999994
    59   1      5.4749999999999943      60.224999999999994      58.399999999999991
    60   1      5.4749999999999943      62.049999999999997      52.924999999999997
    61   1      5.4749999999999943      62.049999999999997      56.574999999999996
    62   1      5.4749999999999943      63.874999999999993      54.749999999999993
    63   1      9.1249999999999929      41.974999999999994      54.749999999999993
    64   1      9.1249999999999929      45.624999999999993      47.449999999999996
    65   1      7.2999999999999901      45.624999999999993      52.924999999999997
    66   1      9.1249999999999929       43.79999999999999      52.924999999999997
    67   1      9.1249999999999929      45.624999999999993      51.099999999999994
    68   1      7.2999999999999901       43.79999999999999      54.749999999999993
    69   1      7.2999999999999901      45.624999999999993      56.574999999999996
    70   1      9.1249999999999929       43.79999999999999      56.574999999999996
    71   1      9.1249999999999929      45.624999999999993      54.749999999999993
    72   1      9.1249999999999929      45.624999999999993      58.399999999999991
    73   1      9.1249999999999929      45.624999999999993      62.049999999999997
    74   1      9.1249999999999929      47.449999999999996      45.624999999999993
    75   1      7.2999999999999901      49.274999999999999      49.274999999999999
    76   1      9.1249999999999929      47.449999999999996      49.274999999999999
    77   1      9.1249999999999929      49.274999999999999      47.449999999999996
    78   1      7.2999999999999901      47.449999999999996      51.099999999999994
    79   1      7.2999999999999901      49.274999999999999      52.924999999999997
    80   1      9.1249999999999929      47.449999999999996      52.924999999999997
    81   1      9.1249999999999929      49.274999999999999      51.099999999999994
    82   1      7.2999999999999901      47.449999999999996      54.749999999999993
    83   1      7.2999999999999901      49.274999999999999      56.574999999999996
    84   1      9.1249999999999929      47.449999999999996      56.574999999999996
    85   1      9.1249999999999929      49.274999999999999      54.749999999999993
    86   1      7.2999999999999901      47.449999999999996      58.399999999999991
    87   1      7.2999999999999901      49.274999999999999      60.224999999999994
    88   1      9.1249999999999929      47.449999999999996      60.224999999999994
    89   1      9.1249999999999929      49.274999999999999      58.399999999999991
    90   1      9.1249999999999929      47.449999999999996      63.874999999999993
    91   1      9.1249999999999929      49.274999999999999      62.049999999999997
    92   1      7.2999999999999901      52.924999999999997      45.624999999999993
    93   1      9.1249999999999929      51.099999999999994      45.624999999999993
    94   1      9.1249999999999929      52.924999999999997       43.79999999999999
    95   1      7.2999999999999901      51.099999999999994      47.449999999999996
    96   1      7.2999999999999901      52.924999999999997      49.274999999999999
    97   1      9.1249999999999929      51.099999999999994      49.274999999999999
    98   1      9.1249999999999929      52.924999999999997      47.449999999999996
    99   1      7.2999999999999901      51.099999999999994      51.099999999999994
   100   1      7.2999999999999901      52.924999999999997      52.924999999999997
   101   1      9.1249999999999929      51.099999999999994      52.924999999999997
   102   1      9.1249999999999929      52.924999999999997      51.099999999999994
   103   1      7.2999999999999901      51.099999999999994      54.749999999999993
   104   1      7.2999999999999901      52.924999999999997      56.574999999999996
   105   1      9.1249999999999929      51.099999999999994      56.574999999999996
   106   1      9.1249999999999929      52.924999999999997      54.749999999999993
   107   1      7.2999999999999901      51.099999999999994      58.399999999999991
   108   1      7.2999999999999901      52.924999999999997      60.224999999999994
   109   1      9.1249999999999929      51.099999999999994      60.224999999999994
   110   1      9.1249999999999929      52.924999999999997      58.399999999999991
   111   1      7.2999999999999901      51.099999999999994      62.049999999999997
   112   1      7.2999999999999901      52.924999999999997      63.874999999999993
   113   1      9.1249999999999929      51.099999999999994      63.874999999999993
   114   1      9.1249999999999929      52.924999999999997      62.049999999999997
   115   1      9.1249999999999929      52.924999999999997      65.699999999999989
   116   1      9.1249999999999929      54.749999999999993      41.974999999999994
   117   1      7.2999999999999901      54.749999999999993       43.79999999999999
   118   1      7.2999999999999901      56.574999999999996      45.624999999999993
   119   1      9.1249999999999929      54.749999999999993      45.624999999999993
   120   1      9.1249999999999929      56.574999999999996       43.79999999999999
   121   1      7.2999999999999901      54.749999999999993      47.449999999999996
   122   1      7.2999999999999901      56.574999999999996      49.274999999999999
   123   1      9.1249999999999929      54.749999999999993      49.274999999999999
   124   1      9.1249999999999929      56.574999999999996      47.449999999999996
   125   1      7.2999999999999901      54.749999999999993      51.099999999999994
   126   1      7.2999999999999901      56.574999999999996      52.924999999999997
   127   1      9.1249999999999929      54.749999999999993      52.924999999999997
   128   1      9.1249999999999929      56.574999999999996      51.099999999999994
   129   1      7.2999999999999901      54.749999999999993      54.749999999999993
   130   1      7.2999999999999901      56.574999999999996      56.574999999999996
   131   1      9.1249999999999929      54.749999999999993      56.574999999999996
   132   1      9.1249999999999929      56.574999999999996      54.749999999999993
   133   1      7.2999999999999901      54.749999999999993      58.399999999999991
   134   1      7.2999999999999901      56.574999999999996      60.224999999999994
   135   1      9.1249999999999929      54.749999999999993      60.224999999999994
   136   1      9.1249999999999929      56.574999999999996      58.399999999999991
   137   1      7.2999999999999901      54.749999999999993      62.049999999999997
   138   1      7.2999999999999901      56.574999999999996      63.874999999999993
   139   1      9.1249999999999929      54.749999999999993      63.874999999999993
   140   1      9.1249999999999929      56.574999999999996      62.049999999999997
   141   1      7.2999999999999901      54.749999999999993      65.699999999999989
   142   1      9.1249999999999929      54.749999999999993      67.524999999999991
   143   1      9.1249999999999929      56.574999999999996      65.699999999999989
   144   1      9.1249999999999929      58.399999999999991      45.624999999999993
   145   1      7.2999999999999901      58.399999999999991      47.449999999999996
   146   1      7.2999999999999901      60.224999999999994      49.274999999999999
   147   1      9.1249999999999929      58.399999999999991      49.274999999999999
   148   1      9.1249999999999929      60.224999999999994      47.449999999999996
   149   1      7.2999999999999901      58.399999999999991      51.099999999999994
   150   1      7.2999999999999901      60.224999999999994      52.924999999999997
   151   1      9.1249999999999929      58.399999999999991      52.924999999999997
   152   1      9.1249999999999929      60.224999999999994      51.099999999999994
   153   1      7.2999999999999901      58.399999999999991      54.749999999999993
   154   1      7.2999999999999901      60.224999999999994      56.574999999999996
   155   1      9.1249999999999929      58.399999999999991      56.574999999999996
   156   1      9.1249999999999929      60.224999999999994      54.749999999999993
   157   1      7.2999999999999901      58.399999999999991      58.399999999999991
   158   1      7.2999999999999901      60.224999999999994      60.224999999999994
   159   1      9.1249999999999929      58.399999999999991      60.224999999999994
   160   1      9.1249999999999929      60.224999999999994      58.399999999999991
   161   1      7.2999999999999901      58.399999999999991      62.049999999999997
   162   1      9.1249999999999929      58.399999999999991      63.874999999999993
   163   1      9.1249999999999929      60.224999999999994      62.049999999999997
   164   1      9.1249999999999929      62.049999999999997      45.624999999999993
   165   1      9.1249999999999929      62.049999999999997      49.274999999999999
   166   1      9.1249999999999929      63.874999999999993      47.449999999999996
   167   1      7.2999999999999901      62.049999999999997      51.099999999999994
   168   1      7.2999999999999901      63.874999999999993      52.924999999999997
   169   1      9.1249999999999929      62.049999999999997      52.924999999999997
   170   1      9.1249999999999929      63.874999999999993      51.099999999999994
   171   1      7.2999999999999901      62.049999999999997      54.749999999999993
   172   1      7.2999999999999901      63.874999999999993      56.574999999999996
   173   1      9.1249999999999929      62.049999999999997      56.574999999999996
   174   1      9.1249999999999929      63.874999999999993      54.749999999999993
   175   1      7.2999999999999901      62.049999999999997      58.399999999999991
   176   1      9.1249999999999929      62.049999999999997      60.224999999999994
   177   1      9.1249999999999929      63.874999999999993      58.399999999999991
   178   1      9.1249999999999929      62.049999999999997      63.874999999999993
   179   1      9.1249999999999929      63.874999999999993      62.049999999999997
   180   1      9.1249999999999929      65.699999999999989      52.924999999999997
   181   1      7.2999999999999901      65.699999999999989      54.749999999999993
   182   1      9.1249999999999929      65.699999999999989      56.574999999999996
   183   1      9.1249999999999929      67.524999999999991      54.749999999999993
   184   1      12.774999999999999      38.324999999999996      51.099999999999994
   185   1      12.774999999999999      38.324999999999996      54.749999999999993
   186   1      12.774999999999999      38.324999999999996      58.399999999999991
   187   1      10.949999999999996      41.974999999999994      49.274999999999999
   188   1      12.774999999999999      40.149999999999991      49.274999999999999
   189   1      12.774999999999999      41.974999999999994      47.449999999999996
   190   1      10.949999999999996      41.974999999999994      52.924999999999997
   191   1      12.774999999999999      40.149999999999991      52.924999999999997
   192   1      12.774999999999999      41.974999999999994      51.099999999999994
   193   1      10.949999999999996      40.149999999999991      54.749999999999993
   194   1      10.949999999999996      41.974999999999994      56.574999999999996
   195   1      12.774999999999999      40.149999999999991      56.574999999999996
   196   1      12.774999999999999      41.974999999999994      54.749999999999993
   197   1      10.949999999999996      41.974999999999994      60.224999999999994
   198   1      12.774999999999999      40.149999999999991      60.224999999999994
   199   1      12.774999999999999      41.974999999999994      58.399999999999991
   200   1      12.774999999999999      41.974999999999994      62.049999999999997
   201   1      10.949999999999996      45.624999999999993      45.624999999999993
   202   1      12.774999999999999       43.79999999999999      45.624999999999993
   203   1      12.774999999999999      45.624999999999993       43.79999999999999
   204   1      10.949999999999996       43.79999999999999      47.449999999999996
   205   1      10.949999999999996      45.624999999999993      49.274999999999999
   206   1      12.774999999999999       43.79999999999999      49.274999999999999
   207   1      12.774999999999999      45.624999999999993      47.449999999999996
   208   1      10.949999999999996       43.79999999999999      51.099999999999994
   209   1      10.949999999999996      45.624999999999993      52.924999999999997
   210   1      12.774999999999999       43.79999999999999      52.924999999999997
   211   1      12.774999999999999      45.624999999999993      51.099999999999994
   212   1      10.949999999999996       43.79999999999999      54.749999999999993
   213   1      10.949999999999996      45.624999999999993      56.574999999999996
   214   1      12.774999999999999       43.79999999999999      56.574999999999996
   215   1      12.774999999999999      45.624999999999993      54.749999999999993
   216   1      10.949999999999996       43.79999999999999      58.399999999999991
   217   1      10.949999999999996      45.624999999999993      60.224999999999994
   218   1      12.774999999999999       43.79999999999999      60.224999999999994
   219   1      12.774999999999999      45.624999999999993      58.399999999999991
   220   1      10.949999999999996       43.79999999999999      62.049999999999997
   221   1      10.949999999999996      45.624999999999993      63.874999999999993
   222   1      12.774999999999999       43.79999999999999      63.874999999999993
   223   1      12.774999999999999      45.624999999999993      62.049999999999997
   224   1      12.774999999999999      45.624999999999993      65.699999999999989
   225   1      10.949999999999996      49.274999999999999      41.974999999999994
   226   1      12.774999999999999      47.449999999999996      41.974999999999994
   227   1      12.774999999999999      49.274999999999999      40.149999999999991
   228   1      10.949999999999996      47.449999999999996       43.79999999999999
   229   1      10.949999999999996      49.274999999999999      45.624999999999993
   230   1      12.774999999999999      47.449999999999996      45.624999999999993
   231   1      12.774999999999999      49.274999999999999       43.79999999999999
   232   1      10.949999999999996      47.449999999999996      47.449999999999996
   233   1      10.949999999999996      49.274999999999999      49.274999999999999
   234   1      12.774999999999999      47.449999999999996      49.274999999999999
   235   1      12.774999999999999      49.274999999999999      47.449999999999996
   236   1      10.949999999999996      47.449999999999996      51.099999999999994
   237   1      10.949999999999996      49.274999999999999      52.924999999999997
   238   1      12.774999999999999      47.449999999999996      52.924999999999997
   239   1      12.774999999999999      49.274999999999999      51.099999999999994
   240   1      10.949999999999996      47.449999999999996      54.749999999999993
   241   1      10.949999999999996      49.274999999999999      56.574999999999996
   242   1      12.774999999999999      47.449999999999996      56.574999999999996
   243   1      12.774999999999999      49.274999999999999      54.749999999999993
   244   1      10.949999999999996      47.449999999999996      58.399999999999991
   245   1      10.949999999999996      49.274999999999999      60.224999999999994
   246   1      12.774999999999999      47.449999999999996      60.224999999999994
   247   1      12.774999999999999      49.274999999999999      58.399999999999991
   248   1      10.949999999999996      47.449999999999996      62.049999999999997
   249   1      10.949999999999996      49.274999999999999      63.874999999999993
   250   1      12.774999999999999      47.449999999999996      63.874999999999993
   251   1      12.774999999999999      49.274999999999999      62.049999999999997
   252   1      10.949999999999996      47.449999999999996      65.699999999999989
   253   1      10.949999999999996      49.274999999999999      67.524999999999991
   254   1      12.774999999999999      47.449999999999996      67.524999999999991
   255   1      12.774999999999999      49.274999999999999      65.699999999999989
   256   1      12.774999999999999      49.274999999999999      69.349999999999994
   257   1      12.774999999999999      51.099999999999994      38.324999999999996
   258   1      10.949999999999996      52.924999999999997      41.974999999999994
   259   1      12.774999999999999      51.099999999999994      41.974999999999994
   260   1      12.774999999999999      52.924999999999997      40.149999999999991
   261   1      10.949999999999996      51.099999999999994       43.79999999999999
   262   1      10.949999999999996      52.924999999999997      45.624999999999993
   263   1      12.774999999999999      51.099999999999994      45.624999999999993
   264   1      12.774999999999999      52.924999999999997       43.79999999999999
   265   1      10.949999999999996      51.099999999999994      47.449999999999996
   266   1      10.949999999999996      52.924999999999997      49.274999999999999
   267   1      12.774999999999999      51.099999999999994      49.274999999999999
   268   1      12.774999999999999      52.924999999999997      47.449999999999996
   269   1      10.949999999999996      51.099999999999994      51.099999999999994
   270   1      10.949999999999996      52.924999999999997      52.924999999999997
   271   1      12.774999999999999      51.099999999999994      52.924999999999997
   272   1      12.774999999999999      52.924999999999997      51.099999999999994
   273   1      10.949999999999996      51.099999999999994      54.749999999999993
   274   1      10.949999999999996      52.924999999999997      56.574999999999996
   275   1      12.774999999999999      51.099999999999994      56.574999999999996
   276   1      12.774999999999999      52.924999999999997      54.749999999999993
   277   1      10.949999999999996      51.099999999999994      58.399999999999991
   278   1      10.949999999999996      52.924999999999997      60.224999999999994
   279   1      12.774999999999999      51.099999999999994      60.224999999999994
   280   1      12.774999999999999      52.924999999999997      58.399999999999991
   281   1      10.949999999999996      51.099999999999994      62.049999999999997
   282   1      10.949999999999996      52.924999999999997      63.874999999999993
   283   1      12.774999999999999      51.099999999999994      63.874999999999993
   284   1      12.774999999999999      52.924999999999997      62.049999999999997
   285   1      10.949999999999996      51.099999999999994      65.699999999999989
   286   1      10.949999999999996      52.924999999999997      67.524999999999991
   287   1      12.774999999999999      51.099999999999994      67.524999999999991
   288   1      12.774999999999999      52.924999999999997      65.699999999999989
   289   1      12.774999999999999      51.099999999999994      71.174999999999997
   290   1      12.774999999999999      52.924999999999997      69.349999999999994
   291   1      12.774999999999999      54.749999999999993      38.324999999999996
   292   1      10.949999999999996      54.749999999999993      40.149999999999991
   293   1      10.949999999999996      56.574999999999996      41.974999999999994
   294   1      12.774999999999999      54.749999999999993      41.974999999999994
   295   1      12.774999999999999      56.574999999999996      40.149999999999991
   296   1      10.949999999999996      54.749999999999993       43.79999999999999
   297   1      10.949999999999996      56.574999999999996      45.624999999999993
   298   1      12.774999999999999      54.749999999999993      45.624999999999993
   299   1      12.774999999999999      56.574999999999996       43.79999999999999
   300   1      10.949999999999996      54.749999999999993      47.449999999999996
   301   1      10.949999999999996      56.574999999999996      49.274999999999999
   302   1      12.774999999999999      54.749999999999993      49.274999999999999
   303   1      12.774999999999999      56.574999999999996      47.449999999999996
   304   1      10.949999999999996      54.749999999999993      51.099999999999994
   305   1      10.949999999999996      56.574999999999996      52.924999999999997
   306   1      12.774999999999999      54.749999999999993      52.924999999999997
   307   1      12.774999999999999      56.574999999999996      51.099999999999994
   308   1      10.949999999999996      54.749999999999993      54.749999999999993
   309   1      10.949999999999996      56.574999999999996      56.574999999999996
   310   1      12.774999999999999      54.749999999999993      56.574999999999996
   311   1      12.774999999999999      56.574999999999996      54.749999999999993
   312   1      10.949999999999996      54.749999999999993      58.399999999999991
   313   1      10.949999999999996      56.574999999999996      60.224999999999994
   314   1      12.774999999999999      54.749999999999993      60.224999999999994
   315   1      12.774999999999999      56.574999999999996      58.399999999999991
   316   1      10.949999999999996      54.749999999999993      62.049999999999997
   317   1      10.949999999999996      56.574999999999996      63.874999999999993
   318   1      12.774999999999999      54.749999999999993      63.874999999999993
   319   1      12.774999999999999      56.574999999999996      62.049999999999997
   320   1      10.949999999999996      54.749999999999993      65.699999999999989
   321   1      10.949999999999996      56.574999999999996      67.524999999999991
   322   1      12.774999999999999      54.749999999999993      67.524999999999991
   323   1      12.774999999999999      56.574999999999996      65.699999999999989
   324   1      10.949999999999996      54.749999999999993      69.349999999999994
   325   1      12.774999999999999      54.749999999999993      71.174999999999997
   326   1      12.774999999999999      56.574999999999996      69.349999999999994
   327   1      12.774999999999999      58.399999999999991      38.324999999999996
   328   1      10.949999999999996      60.224999999999994      41.974999999999994
   329   1      12.774999999999999      58.399999999999991      41.974999999999994
   330   1      12.774999999999999      60.224999999999994      40.149999999999991
   331   1      10.949999999999996      58.399999999999991       43.79999999999999
   332   1      10.949999999999996      60.224999999999994      45.624999999999993
   333   1      12.774999999999999      58.399999999999991      45.624999999999993
   334   1      12.774999999999999      60.224999999999994       43.79999999999999
   335   1      10.949999999999996      58.399999999999991      47.449999999999996
   336   1      10.949999999999996      60.224999999999994      49.274999999999999
   337   1      12.774999999999999      58.399999999999991      49.274999999999999
   338   1      12.774999999999999      60.224999999999994      47.449999999999996
   339   1      10.949999999999996      58.399999999999991      51.099999999999994
   340   1      10.949999999999996      60.224999999999994      52.924999999999997
   341   1      12.774999999999999      58.399999999999991      52.924999999999997
   342   1      12.774999999999999      60.224999999999994      51.099999999999994
   343   1      10.949999999999996      58.399999999999991      54.749999999999993
   344   1      10.949999999999996      60.224999999999994      56.574999999999996
   345   1      12.774999999999999      58.399999999999991      56.574999999999996
   346   1      12.774999999999999      60.224999999999994      54.749999999999993
   347   1      10.949999999999996      58.399999999999991      58.399999999999991
   348   1      10.949999999999996      60.224999999999994      60.224999999999994
   349   1      12.774999999999999      58.399999999999991      60.224999999999994
   350   1      12.774999999999999      60.224999999999994      58.399999999999991
   351   1      10.949999999999996      58.399999999999991      62.049999999999997
   352   1      10.949999999999996      60.224999999999994      63.874999999999993
   353   1      12.774999999999999      58.399999999999991      63.874999999999993
   354   1      12.774999999999999      60.224999999999994      62.049999999999997
   355   1      10.949999999999996      58.399999999999991      65.699999999999989
   356   1      10.949999999999996      60.224999999999994      67.524999999999991
   357   1      12.774999999999999      58.399999999999991      67.524999999999991
   358   1      12.774999999999999      60.224999999999994      65.699999999999989