model_files/NiFeCrCoAl/NiFeCrCoAl_30000/NiFeCrCoAl_511/NiFeCrCoAl_511_fcc_30527_temp.data (written by ASE) 

30527 	 atoms 
5  atom types
0.0                      85  xlo xhi
0.0                      85  ylo yhi
0.0                      85  zlo zhi


Atoms 

     1   1  7.1054273576010019e-15      39.710000000000008      41.515000000000008
     2   1  7.1054273576010019e-15      41.515000000000008      39.710000000000008
     3   1  7.1054273576010019e-15      41.515000000000008                   43.32
     4   1  7.1054273576010019e-15                   43.32      41.515000000000008
     5   1       3.610000000000007      21.660000000000007      41.515000000000008
     6   1       3.610000000000007      23.465000000000007      39.710000000000008
     7   1       3.610000000000007      25.270000000000003      37.905000000000008
     8   1       3.610000000000007      23.465000000000007                   43.32
     9   1       3.610000000000007      25.270000000000003      41.515000000000008
    10   1       3.610000000000007      25.270000000000003      45.125000000000007
    11   1       3.610000000000007      27.075000000000006      36.100000000000009
    12   1       3.610000000000007      28.880000000000006      34.295000000000009
    13   1       3.610000000000007      27.075000000000006      39.710000000000008
    14   1       3.610000000000007      28.880000000000006      37.905000000000008
    15   1       3.610000000000007      27.075000000000006                   43.32
    16   1       3.610000000000007      28.880000000000006      41.515000000000008
    17   1       3.610000000000007      27.075000000000006      46.930000000000007
    18   1       3.610000000000007      28.880000000000006      45.125000000000007
    19   1       3.610000000000007      28.880000000000006      48.734999999999999
    20   1       3.610000000000007      30.685000000000009      32.490000000000009
    21   1       3.610000000000007      32.490000000000009      30.685000000000009
    22   1       3.610000000000007      30.685000000000009      36.100000000000009
    23   1       3.610000000000007      32.490000000000009      34.295000000000009
    24   1      1.8050000000000068      32.490000000000009      39.710000000000008
    25   1       3.610000000000007      30.685000000000009      39.710000000000008
    26   1       3.610000000000007      32.490000000000009      37.905000000000008
    27   1      1.8050000000000068      30.685000000000009      41.515000000000008
    28   1      1.8050000000000068      32.490000000000009                   43.32
    29   1       3.610000000000007      30.685000000000009                   43.32
    30   1       3.610000000000007      32.490000000000009      41.515000000000008
    31   1       3.610000000000007      30.685000000000009      46.930000000000007
    32   1       3.610000000000007      32.490000000000009      45.125000000000007
    33   1       3.610000000000007      30.685000000000009      50.540000000000006
    34   1       3.610000000000007      32.490000000000009      48.734999999999999
    35   1       3.610000000000007      32.490000000000009      52.345000000000006
    36   1       3.610000000000007      34.295000000000009      28.880000000000006
    37   1       3.610000000000007      36.100000000000009      27.075000000000006
    38   1       3.610000000000007      34.295000000000009      32.490000000000009
    39   1       3.610000000000007      36.100000000000009      30.685000000000009
    40   1      1.8050000000000068      36.100000000000009      36.100000000000009
    41   1       3.610000000000007      34.295000000000009      36.100000000000009
    42   1       3.610000000000007      36.100000000000009      34.295000000000009
    43   1      1.8050000000000068      34.295000000000009      37.905000000000008
    44   1      1.8050000000000068      36.100000000000009      39.710000000000008
    45   1       3.610000000000007      34.295000000000009      39.710000000000008
    46   1       3.610000000000007      36.100000000000009      37.905000000000008
    47   1      1.8050000000000068      34.295000000000009      41.515000000000008
    48   1      1.8050000000000068      36.100000000000009                   43.32
    49   1       3.610000000000007      34.295000000000009                   43.32
    50   1       3.610000000000007      36.100000000000009      41.515000000000008
    51   1      1.8050000000000068      34.295000000000009      45.125000000000007
    52   1      1.8050000000000068      36.100000000000009      46.930000000000007
    53   1       3.610000000000007      34.295000000000009      46.930000000000007
    54   1       3.610000000000007      36.100000000000009      45.125000000000007
    55   1       3.610000000000007      34.295000000000009      50.540000000000006
    56   1       3.610000000000007      36.100000000000009      48.734999999999999
    57   1       3.610000000000007      34.295000000000009      54.149999999999999
    58   1       3.610000000000007      36.100000000000009      52.345000000000006
    59   1       3.610000000000007      36.100000000000009      55.955000000000005
    60   1       3.610000000000007      37.905000000000008      25.270000000000003
    61   1       3.610000000000007      39.710000000000008      23.465000000000007
    62   1       3.610000000000007      37.905000000000008      28.880000000000006
    63   1       3.610000000000007      39.710000000000008      27.075000000000006
    64   1      1.8050000000000068      39.710000000000008      32.490000000000009
    65   1       3.610000000000007      37.905000000000008      32.490000000000009
    66   1       3.610000000000007      39.710000000000008      30.685000000000009
    67   1      1.8050000000000068      37.905000000000008      34.295000000000009
    68   1      1.8050000000000068      39.710000000000008      36.100000000000009
    69   1       3.610000000000007      37.905000000000008      36.100000000000009
    70   1       3.610000000000007      39.710000000000008      34.295000000000009
    71   1      1.8050000000000068      37.905000000000008      37.905000000000008
    72   1      1.8050000000000068      39.710000000000008      39.710000000000008
    73   1       3.610000000000007      37.905000000000008      39.710000000000008
    74   1       3.610000000000007      39.710000000000008      37.905000000000008
    75   1      1.8050000000000068      37.905000000000008      41.515000000000008
    76   1      1.8050000000000068      39.710000000000008                   43.32
    77   1       3.610000000000007      37.905000000000008                   43.32
    78   1       3.610000000000007      39.710000000000008      41.515000000000008
    79   1      1.8050000000000068      37.905000000000008      45.125000000000007
    80   1      1.8050000000000068      39.710000000000008      46.930000000000007
    81   1       3.610000000000007      37.905000000000008      46.930000000000007
    82   1       3.610000000000007      39.710000000000008      45.125000000000007
    83   1      1.8050000000000068      37.905000000000008      48.734999999999999
    84   1      1.8050000000000068      39.710000000000008      50.540000000000006
    85   1       3.610000000000007      37.905000000000008      50.540000000000006
    86   1       3.610000000000007      39.710000000000008      48.734999999999999
    87   1       3.610000000000007      37.905000000000008      54.149999999999999
    88   1       3.610000000000007      39.710000000000008      52.345000000000006
    89   1       3.610000000000007      37.905000000000008      57.760000000000005
    90   1       3.610000000000007      39.710000000000008      55.955000000000005
    91   1       3.610000000000007      39.710000000000008      59.564999999999998
    92   1       3.610000000000007      41.515000000000008      21.660000000000007
    93   1       3.610000000000007      41.515000000000008      25.270000000000003
    94   1       3.610000000000007                   43.32      23.465000000000007
    95   1       3.610000000000007      41.515000000000008      28.880000000000006
    96   1       3.610000000000007                   43.32      27.075000000000006
    97   1      1.8050000000000068      41.515000000000008      30.685000000000009
    98   1      1.8050000000000068                   43.32      32.490000000000009
    99   1       3.610000000000007      41.515000000000008      32.490000000000009
   100   1       3.610000000000007                   43.32      30.685000000000009
   101   1      1.8050000000000068      41.515000000000008      34.295000000000009
   102   1      1.8050000000000068                   43.32      36.100000000000009
   103   1       3.610000000000007      41.515000000000008      36.100000000000009
   104   1       3.610000000000007                   43.32      34.295000000000009
   105   1      1.8050000000000068      41.515000000000008      37.905000000000008
   106   1      1.8050000000000068                   43.32      39.710000000000008
   107   1       3.610000000000007      41.515000000000008      39.710000000000008
   108   1       3.610000000000007                   43.32      37.905000000000008
   109   1      1.8050000000000068      41.515000000000008      41.515000000000008
   110   1      1.8050000000000068                   43.32                   43.32
   111   1       3.610000000000007      41.515000000000008                   43.32
   112   1       3.610000000000007                   43.32      41.515000000000008
   113   1      1.8050000000000068      41.515000000000008      45.125000000000007
   114   1      1.8050000000000068                   43.32      46.930000000000007
   115   1       3.610000000000007      41.515000000000008      46.930000000000007
   116   1       3.610000000000007                   43.32      45.125000000000007
   117   1      1.8050000000000068      41.515000000000008      48.734999999999999
   118   1      1.8050000000000068                   43.32      50.540000000000006
   119   1       3.610000000000007      41.515000000000008      50.540000000000006
   120   1       3.610000000000007                   43.32      48.734999999999999
   121   1      1.8050000000000068      41.515000000000008      52.345000000000006
   122   1       3.610000000000007      41.515000000000008      54.149999999999999
   123   1       3.610000000000007                   43.32      52.345000000000006
   124   1       3.610000000000007      41.515000000000008      57.760000000000005
   125   1       3.610000000000007                   43.32      55.955000000000005
   126   1       3.610000000000007      41.515000000000008      61.370000000000005
   127   1       3.610000000000007                   43.32      59.564999999999998
   128   1       3.610000000000007      45.125000000000007      25.270000000000003
   129   1       3.610000000000007      45.125000000000007      28.880000000000006
   130   1       3.610000000000007      46.930000000000007      27.075000000000006
   131   1       3.610000000000007      45.125000000000007      32.490000000000009
   132   1       3.610000000000007      46.930000000000007      30.685000000000009
   133   1      1.8050000000000068      45.125000000000007      34.295000000000009
   134   1      1.8050000000000068      46.930000000000007      36.100000000000009
   135   1       3.610000000000007      45.125000000000007      36.100000000000009
   136   1       3.610000000000007      46.930000000000007      34.295000000000009
   137   1      1.8050000000000068      45.125000000000007      37.905000000000008
   138   1      1.8050000000000068      46.930000000000007      39.710000000000008
   139   1       3.610000000000007      45.125000000000007      39.710000000000008
   140   1       3.610000000000007      46.930000000000007      37.905000000000008
   141   1      1.8050000000000068      45.125000000000007      41.515000000000008
   142   1      1.8050000000000068      46.930000000000007                   43.32
   143   1       3.610000000000007      45.125000000000007                   43.32
   144   1       3.610000000000007      46.930000000000007      41.515000000000008
   145   1      1.8050000000000068      45.125000000000007      45.125000000000007
   146   1      1.8050000000000068      46.930000000000007      46.930000000000007
   147   1       3.610000000000007      45.125000000000007      46.930000000000007
   148   1       3.610000000000007      46.930000000000007      45.125000000000007
   149   1      1.8050000000000068      45.125000000000007      48.734999999999999
   150   1       3.610000000000007      45.125000000000007      50.540000000000006
   151   1       3.610000000000007      46.930000000000007      48.734999999999999
   152   1       3.610000000000007      45.125000000000007      54.149999999999999
   153   1       3.610000000000007      46.930000000000007      52.345000000000006
   154   1       3.610000000000007      45.125000000000007      57.760000000000005
   155   1       3.610000000000007      46.930000000000007      55.955000000000005
   156   1       3.610000000000007      48.734999999999999      28.880000000000006
   157   1       3.610000000000007      48.734999999999999      32.490000000000009
   158   1       3.610000000000007      50.540000000000006      30.685000000000009
   159   1       3.610000000000007      48.734999999999999      36.100000000000009
   160   1       3.610000000000007      50.540000000000006      34.295000000000009
   161   1      1.8050000000000068      48.734999999999999      37.905000000000008
   162   1      1.8050000000000068      50.540000000000006      39.710000000000008
   163   1       3.610000000000007      48.734999999999999      39.710000000000008
   164   1       3.610000000000007      50.540000000000006      37.905000000000008
   165   1      1.8050000000000068      48.734999999999999      41.515000000000008
   166   1      1.8050000000000068      50.540000000000006                   43.32
   167   1       3.610000000000007      48.734999999999999                   43.32
   168   1       3.610000000000007      50.540000000000006      41.515000000000008
   169   1      1.8050000000000068      48.734999999999999      45.125000000000007
   170   1       3.610000000000007      48.734999999999999      46.930000000000007
   171   1       3.610000000000007      50.540000000000006      45.125000000000007
   172   1       3.610000000000007      48.734999999999999      50.540000000000006
   173   1       3.610000000000007      50.540000000000006      48.734999999999999
   174   1       3.610000000000007      48.734999999999999      54.149999999999999
   175   1       3.610000000000007      50.540000000000006      52.345000000000006
   176   1       3.610000000000007      52.345000000000006      32.490000000000009
   177   1       3.610000000000007      52.345000000000006      36.100000000000009
   178   1       3.610000000000007      54.149999999999999      34.295000000000009
   179   1       3.610000000000007      52.345000000000006      39.710000000000008
   180   1       3.610000000000007      54.149999999999999      37.905000000000008
   181   1      1.8050000000000068      52.345000000000006      41.515000000000008
   182   1       3.610000000000007      52.345000000000006                   43.32
   183   1       3.610000000000007      54.149999999999999      41.515000000000008
   184   1       3.610000000000007      52.345000000000006      46.930000000000007
   185   1       3.610000000000007      54.149999999999999      45.125000000000007
   186   1       3.610000000000007      52.345000000000006      50.540000000000006
   187   1       3.610000000000007      54.149999999999999      48.734999999999999
   188   1       3.610000000000007      55.955000000000005      36.100000000000009
   189   1       3.610000000000007      55.955000000000005      39.710000000000008
   190   1       3.610000000000007      57.760000000000005      37.905000000000008
   191   1       3.610000000000007      55.955000000000005                   43.32
   192   1       3.610000000000007      57.760000000000005      41.515000000000008
   193   1       3.610000000000007      55.955000000000005      46.930000000000007
   194   1       3.610000000000007      57.760000000000005      45.125000000000007
   195   1       3.610000000000007      59.564999999999998      39.710000000000008
   196   1       3.610000000000007      59.564999999999998                   43.32
   197   1       3.610000000000007      61.370000000000005      41.515000000000008
   198   1      7.2200000000000051      7.2200000000000051      37.905000000000008
   199   1      7.2200000000000051      7.2200000000000051      41.515000000000008
   200   1      7.2200000000000051      7.2200000000000051      45.125000000000007
   201   1      7.2200000000000051      9.0250000000000057      36.100000000000009
   202   1      7.2200000000000051      10.830000000000005      34.295000000000009
   203   1      7.2200000000000051      9.0250000000000057      39.710000000000008
   204   1      7.2200000000000051      10.830000000000005      37.905000000000008
   205   1      7.2200000000000051      9.0250000000000057                   43.32
   206   1      7.2200000000000051      10.830000000000005      41.515000000000008
   207   1      7.2200000000000051      9.0250000000000057      46.930000000000007
   208   1      7.2200000000000051      10.830000000000005      45.125000000000007
   209   1      7.2200000000000051      10.830000000000005      48.734999999999999
   210   1      7.2200000000000051      12.635000000000005      32.490000000000009
   211   1      7.2200000000000051      14.440000000000008      30.685000000000009
   212   1      7.2200000000000051      12.635000000000005      36.100000000000009
   213   1      7.2200000000000051      14.440000000000008      34.295000000000009
   214   1      5.4150000000000063      14.440000000000008      39.710000000000008
   215   1      7.2200000000000051      12.635000000000005      39.710000000000008
   216   1      7.2200000000000051      14.440000000000008      37.905000000000008
   217   1      5.4150000000000063      12.635000000000005      41.515000000000008
   218   1      5.4150000000000063      14.440000000000008                   43.32
   219   1      7.2200000000000051      12.635000000000005                   43.32
   220   1      7.2200000000000051      14.440000000000008      41.515000000000008
   221   1      7.2200000000000051      12.635000000000005      46.930000000000007
   222   1      7.2200000000000051      14.440000000000008      45.125000000000007
   223   1      7.2200000000000051      12.635000000000005      50.540000000000006
   224   1      7.2200000000000051      14.440000000000008      48.734999999999999
   225   1      7.2200000000000051      14.440000000000008      52.345000000000006
   226   1      7.2200000000000051      16.245000000000008      28.880000000000006
   227   1      7.2200000000000051      18.050000000000008      27.075000000000006
   228   1      7.2200000000000051      16.245000000000008      32.490000000000009
   229   1      7.2200000000000051      18.050000000000008      30.685000000000009
   230   1      5.4150000000000063      18.050000000000008      36.100000000000009
   231   1      7.2200000000000051      16.245000000000008      36.100000000000009
   232   1      7.2200000000000051      18.050000000000008      34.295000000000009
   233   1      5.4150000000000063      16.245000000000008      37.905000000000008
   234   1      5.4150000000000063      18.050000000000008      39.710000000000008
   235   1      7.2200000000000051      16.245000000000008      39.710000000000008
   236   1      7.2200000000000051      18.050000000000008      37.905000000000008
   237   1      5.4150000000000063      16.245000000000008      41.515000000000008
   238   1      5.4150000000000063      18.050000000000008                   43.32
   239   1      7.2200000000000051      16.245000000000008                   43.32
   240   1      7.2200000000000051      18.050000000000008      41.515000000000008
   241   1      5.4150000000000063      16.245000000000008      45.125000000000007
   242   1      5.4150000000000063      18.050000000000008      46.930000000000007
   243   1      7.2200000000000051      16.245000000000008      46.930000000000007
   244   1      7.2200000000000051      18.050000000000008      45.125000000000007
   245   1      7.2200000000000051      16.245000000000008      50.540000000000006
   246   1      7.2200000000000051      18.050000000000008      48.734999999999999
   247   1      7.2200000000000051      16.245000000000008      54.149999999999999
   248   1      7.2200000000000051      18.050000000000008      52.345000000000006
   249   1      7.2200000000000051      18.050000000000008      55.955000000000005
   250   1      7.2200000000000051      19.855000000000008      25.270000000000003
   251   1      7.2200000000000051      21.660000000000007      23.465000000000007
   252   1      7.2200000000000051      19.855000000000008      28.880000000000006
   253   1      7.2200000000000051      21.660000000000007      27.075000000000006
   254   1      5.4150000000000063      21.660000000000007      32.490000000000009
   255   1      7.2200000000000051      19.855000000000008      32.490000000000009
   256   1      7.2200000000000051      21.660000000000007      30.685000000000009
   257   1      5.4150000000000063      19.855000000000008      34.295000000000009
   258   1      5.4150000000000063      21.660000000000007      36.100000000000009
   259   1      7.2200000000000051      19.855000000000008      36.100000000000009
   260   1      7.2200000000000051      21.660000000000007      34.295000000000009
   261   1      5.4150000000000063      19.855000000000008      37.905000000000008
   262   1      5.4150000000000063      21.660000000000007      39.710000000000008
   263   1      7.2200000000000051      19.855000000000008      39.710000000000008
   264   1      7.2200000000000051      21.660000000000007      37.905000000000008
   265   1      5.4150000000000063      19.855000000000008      41.515000000000008
   266   1      5.4150000000000063      21.660000000000007                   43.32
   267   1      7.2200000000000051      19.855000000000008                   43.32
   268   1      7.2200000000000051      21.660000000000007      41.515000000000008
   269   1      5.4150000000000063      19.855000000000008      45.125000000000007
   270   1      5.4150000000000063      21.660000000000007      46.930000000000007
   271   1      7.2200000000000051      19.855000000000008      46.930000000000007
   272   1      7.2200000000000051      21.660000000000007      45.125000000000007
   273   1      5.4150000000000063      19.855000000000008      48.734999999999999
   274   1      5.4150000000000063      21.660000000000007      50.540000000000006
   275   1      7.2200000000000051      19.855000000000008      50.540000000000006
   276   1      7.2200000000000051      21.660000000000007      48.734999999999999
   277   1      7.2200000000000051      19.855000000000008      54.149999999999999
   278   1      7.2200000000000051      21.660000000000007      52.345000000000006
   279   1      7.2200000000000051      19.855000000000008      57.760000000000005
   280   1      7.2200000000000051      21.660000000000007      55.955000000000005
   281   1      7.2200000000000051      21.660000000000007      59.564999999999998
   282   1      7.2200000000000051      23.465000000000007      21.660000000000007
   283   1      7.2200000000000051      25.270000000000003      19.855000000000008
   284   1      7.2200000000000051      23.465000000000007      25.270000000000003
   285   1      7.2200000000000051      25.270000000000003      23.465000000000007
   286   1      5.4150000000000063      25.270000000000003      28.880000000000006
   287   1      7.2200000000000051      23.465000000000007      28.880000000000006
   288   1      7.2200000000000051      25.270000000000003      27.075000000000006
   289   1      5.4150000000000063      23.465000000000007      30.685000000000009
   290   1      5.4150000000000063      25.270000000000003      32.490000000000009
   291   1      7.2200000000000051      23.465000000000007      32.490000000000009
   292   1      7.2200000000000051      25.270000000000003      30.685000000000009
   293   1      5.4150000000000063      23.465000000000007      34.295000000000009
   294   1      5.4150000000000063      25.270000000000003      36.100000000000009
   295   1      7.2200000000000051      23.465000000000007      36.100000000000009
   296   1      7.2200000000000051      25.270000000000003      34.295000000000009
   297   1      5.4150000000000063      23.465000000000007      37.905000000000008
   298   1      5.4150000000000063      25.270000000000003      39.710000000000008
   299   1      7.2200000000000051      23.465000000000007      39.710000000000008
   300   1      7.2200000000000051      25.270000000000003      37.905000000000008
   301   1      5.4150000000000063      23.465000000000007      41.515000000000008
   302   1      5.4150000000000063      25.270000000000003                   43.32
   303   1      7.2200000000000051      23.465000000000007                   43.32
   304   1      7.2200000000000051      25.270000000000003      41.515000000000008
   305   1      5.4150000000000063      23.465000000000007      45.125000000000007
   306   1      5.4150000000000063      25.270000000000003      46.930000000000007
   307   1      7.2200000000000051      23.465000000000007      46.930000000000007
   308   1      7.2200000000000051      25.270000000000003      45.125000000000007
   309   1      5.4150000000000063      23.465000000000007      48.734999999999999
   310   1      5.4150000000000063      25.270000000000003      50.540000000000006
   311   1      7.2200000000000051      23.465000000000007      50.540000000000006
   312   1      7.2200000000000051      25.270000000000003      48.734999999999999
   313   1      5.4150000000000063      23.465000000000007      52.345000000000006
   314   1      5.4150000000000063      25.270000000000003      54.149999999999999
   315   1      7.2200000000000051      23.465000000000007      54.149999999999999
   316   1      7.2200000000000051      25.270000000000003      52.345000000000006
   317   1      7.2200000000000051      23.465000000000007      57.760000000000005
   318   1      7.2200000000000051      25.270000000000003      55.955000000000005
   319   1      7.2200000000000051      23.465000000000007      61.370000000000005
   320   1      7.2200000000000051      25.270000000000003      59.564999999999998
   321   1      7.2200000000000051      25.270000000000003      63.175000000000011
   322   1      7.2200000000000051      27.075000000000006      18.050000000000008
   323   1      7.2200000000000051      28.880000000000006      16.245000000000008
   324   1      7.2200000000000051      27.075000000000006      21.660000000000007
   325   1      7.2200000000000051      28.880000000000006      19.855000000000008
   326   1      5.4150000000000063      28.880000000000006      25.270000000000003
   327   1      7.2200000000000051      27.075000000000006      25.270000000000003
   328   1      7.2200000000000051      28.880000000000006      23.465000000000007
   329   1      5.4150000000000063      27.075000000000006      27.075000000000006
   330   1      5.4150000000000063      28.880000000000006      28.880000000000006
   331   1      7.2200000000000051      27.075000000000006      28.880000000000006
   332   1      7.2200000000000051      28.880000000000006      27.075000000000006
   333   1      5.4150000000000063      27.075000000000006      30.685000000000009
   334   1      5.4150000000000063      28.880000000000006      32.490000000000009
   335   1      7.2200000000000051      27.075000000000006      32.490000000000009
   336   1      7.2200000000000051      28.880000000000006      30.685000000000009
   337   1      5.4150000000000063      27.075000000000006      34.295000000000009
   338   1      5.4150000000000063      28.880000000000006      36.100000000000009
   339   1      7.2200000000000051      27.075000000000006      36.100000000000009
   340   1      7.2200000000000051      28.880000000000006      34.295000000000009
   341   1      5.4150000000000063      27.075000000000006      37.905000000000008
   342   1      5.4150000000000063      28.880000000000006      39.710000000000008
   343   1      7.2200000000000051      27.075000000000006      39.710000000000008
   344   1      7.2200000000000051      28.880000000000006      37.905000000000008
   345   1      5.4150000000000063      27.075000000000006      41.515000000000008
   346   1      5.4150000000000063      28.880000000000006                   43.32
   347   1      7.2200000000000051      27.075000000000006                   43.32
   348   1      7.2200000000000051      28.880000000000006      41.515000000000008
   349   1      5.4150000000000063      27.075000000000006      45.125000000000007
   350   1      5.4150000000000063      28.880000000000006      46.930000000000007
   351   1      7.2200000000000051      27.075000000000006      46.930000000000007
   352   1      7.2200000000000051      28.880000000000006      45.125000000000007
   353   1      5.4150000000000063      27.075000000000006      48.734999999999999
   354   1      5.4150000000000063      28.880000000000006      50.540000000000006
   355   1      7.2200000000000051      27.075000000000006      50.540000000000006
   356   1      7.2200000000000051      28.880000000000006      48.734999999999999
   357   1      5.4150000000000063      27.075000000000006      52.345000000000006
   358   1      5.4150000000000063      28.880000000000006      54.149999999999999