LAMMPS data file via write_data, version 30 Nov 2020, timestep = 0

30187 atoms
5 atom types

0 109 xlo xhi
0 109 ylo yhi
0 109 zlo zhi

Masses

1 58.69
2 58.933
3 51.96
4 55.847
5 54.94

Atoms # atomic

1 4 1.7974999999999997 52.12750000000001 53.925000000000004 0 0 0
2 3 1.7974999999999997 53.925000000000004 52.12750000000001 0 0 0
3 2 0 53.925000000000004 53.925000000000004 0 0 0
6 5 5.392500000000005 44.93750000000001 53.925000000000004 0 0 0
7 4 3.5949999999999993 48.53250000000001 52.12750000000001 0 0 0
8 1 5.392500000000005 46.73500000000001 52.12750000000001 0 0 0
9 2 5.392500000000005 48.53250000000001 50.330000000000005 0 0 0
10 1 3.5949999999999993 46.73500000000001 53.925000000000004 0 0 0
13 2 5.392500000000005 48.53250000000001 53.925000000000004 0 0 0
15 3 3.5949999999999993 52.12750000000001 48.53250000000001 0 0 0
16 3 5.392500000000005 50.330000000000005 48.53250000000001 0 0 0
17 2 5.392500000000005 52.12750000000001 46.73500000000001 0 0 0
18 5 3.5949999999999993 50.330000000000005 50.330000000000005 0 0 0
19 5 3.5949999999999993 52.12750000000001 52.12750000000001 0 0 0
20 3 5.392500000000005 50.330000000000005 52.12750000000001 0 0 0
21 5 5.392500000000005 52.12750000000001 50.330000000000005 0 0 0
22 1 3.5949999999999993 50.330000000000005 53.925000000000004 0 0 0
25 1 5.392500000000005 52.12750000000001 53.925000000000004 0 0 0
31 3 5.392500000000005 53.925000000000004 44.93750000000001 0 0 0
32 5 3.5949999999999993 53.925000000000004 46.73500000000001 0 0 0
34 3 5.392500000000005 53.925000000000004 48.53250000000001 0 0 0
36 2 3.5949999999999993 53.925000000000004 50.330000000000005 0 0 0
38 5 5.392500000000005 53.925000000000004 52.12750000000001 0 0 0
40 5 3.5949999999999993 53.925000000000004 53.925000000000004 0 0 0
67 5 8.987500000000006 41.34250000000001 53.925000000000004 0 0 0
68 1 7.190000000000006 44.93750000000001 52.12750000000001 0 0 0
69 5 8.987500000000006 43.14 52.12750000000001 0 0 0
70 2 8.987500000000006 44.93750000000001 50.330000000000005 0 0 0
71 1 7.190000000000006 43.14 53.925000000000004 0 0 0
74 1 8.987500000000006 44.93750000000001 53.925000000000004 0 0 0
76 5 7.190000000000006 48.53250000000001 48.53250000000001 0 0 0
77 3 8.987500000000006 46.73500000000001 48.53250000000001 0 0 0
78 5 8.987500000000006 48.53250000000001 46.73500000000001 0 0 0
79 5 7.190000000000006 46.73500000000001 50.330000000000005 0 0 0
80 1 7.190000000000006 48.53250000000001 52.12750000000001 0 0 0
81 4 8.987500000000006 46.73500000000001 52.12750000000001 0 0 0
82 5 8.987500000000006 48.53250000000001 50.330000000000005 0 0 0
83 3 7.190000000000006 46.73500000000001 53.925000000000004 0 0 0
86 5 8.987500000000006 48.53250000000001 53.925000000000004 0 0 0
92 1 7.190000000000006 52.12750000000001 44.93750000000001 0 0 0
93 5 8.987500000000006 50.330000000000005 44.93750000000001 0 0 0
94 5 8.987500000000006 52.12750000000001 43.14 0 0 0
95 3 7.190000000000006 50.330000000000005 46.73500000000001 0 0 0
96 5 7.190000000000006 52.12750000000001 48.53250000000001 0 0 0
97 1 8.987500000000006 50.330000000000005 48.53250000000001 0 0 0
98 3 8.987500000000006 52.12750000000001 46.73500000000001 0 0 0
99 3 7.190000000000006 50.330000000000005 50.330000000000005 0 0 0
100 4 7.190000000000006 52.12750000000001 52.12750000000001 0 0 0
101 1 8.987500000000006 50.330000000000005 52.12750000000001 0 0 0
102 3 8.987500000000006 52.12750000000001 50.330000000000005 0 0 0
103 4 7.190000000000006 50.330000000000005 53.925000000000004 0 0 0
106 5 8.987500000000006 52.12750000000001 53.925000000000004 0 0 0
116 4 8.987500000000006 53.925000000000004 41.34250000000001 0 0 0
117 2 7.190000000000006 53.925000000000004 43.14 0 0 0
119 5 8.987500000000006 53.925000000000004 44.93750000000001 0 0 0
121 5 7.190000000000006 53.925000000000004 46.73500000000001 0 0 0
123 4 8.987500000000006 53.925000000000004 48.53250000000001 0 0 0
125 5 7.190000000000006 53.925000000000004 50.330000000000005 0 0 0
127 4 8.987500000000006 53.925000000000004 52.12750000000001 0 0 0
129 3 7.190000000000006 53.925000000000004 53.925000000000004 0 0 0
180 5 12.582500000000005 34.1525 53.925000000000004 0 0 0
181 4 10.785000000000005 37.74750000000001 52.12750000000001 0 0 0
182 4 12.582500000000005 35.95 52.12750000000001 0 0 0
183 3 12.582500000000005 37.74750000000001 50.330000000000005 0 0 0
184 3 10.785000000000005 35.95 53.925000000000004 0 0 0
187 4 12.582500000000005 37.74750000000001 53.925000000000004 0 0 0
189 2 10.785000000000005 41.34250000000001 48.53250000000001 0 0 0
190 5 12.582500000000005 39.545 48.53250000000001 0 0 0
191 1 12.582500000000005 41.34250000000001 46.73500000000001 0 0 0
192 2 10.785000000000005 39.545 50.330000000000005 0 0 0
193 5 10.785000000000005 41.34250000000001 52.12750000000001 0 0 0
194 5 12.582500000000005 39.545 52.12750000000001 0 0 0
195 1 12.582500000000005 41.34250000000001 50.330000000000005 0 0 0
196 4 10.785000000000005 39.545 53.925000000000004 0 0 0
199 4 12.582500000000005 41.34250000000001 53.925000000000004 0 0 0
205 2 10.785000000000005 44.93750000000001 44.93750000000001 0 0 0
206 2 12.582500000000005 43.14 44.93750000000001 0 0 0
207 5 12.582500000000005 44.93750000000001 43.14 0 0 0
208 1 10.785000000000005 43.14 46.73500000000001 0 0 0
209 4 10.785000000000005 44.93750000000001 48.53250000000001 0 0 0
210 1 12.582500000000005 43.14 48.53250000000001 0 0 0
211 1 12.582500000000005 44.93750000000001 46.73500000000001 0 0 0
212 2 10.785000000000005 43.14 50.330000000000005 0 0 0
213 5 10.785000000000005 44.93750000000001 52.12750000000001 0 0 0
214 1 12.582500000000005 43.14 52.12750000000001 0 0 0
215 1 12.582500000000005 44.93750000000001 50.330000000000005 0 0 0
216 3 10.785000000000005 43.14 53.925000000000004 0 0 0
219 4 12.582500000000005 44.93750000000001 53.925000000000004 0 0 0
229 4 10.785000000000005 48.53250000000001 41.34250000000001 0 0 0
230 2 12.582500000000005 46.73500000000001 41.34250000000001 0 0 0
231 2 12.582500000000005 48.53250000000001 39.545 0 0 0
232 2 10.785000000000005 46.73500000000001 43.14 0 0 0
233 2 10.785000000000005 48.53250000000001 44.93750000000001 0 0 0
234 3 12.582500000000005 46.73500000000001 44.93750000000001 0 0 0
235 4 12.582500000000005 48.53250000000001 43.14 0 0 0
236 1 10.785000000000005 46.73500000000001 46.73500000000001 0 0 0
237 4 10.785000000000005 48.53250000000001 48.53250000000001 0 0 0
238 5 12.582500000000005 46.73500000000001 48.53250000000001 0 0 0
239 1 12.582500000000005 48.53250000000001 46.73500000000001 0 0 0
240 3 10.785000000000005 46.73500000000001 50.330000000000005 0 0 0
241 3 10.785000000000005 48.53250000000001 52.12750000000001 0 0 0
242 5 12.582500000000005 46.73500000000001 52.12750000000001 0 0 0
243 4 12.582500000000005 48.53250000000001 50.330000000000005 0 0 0
244 4 10.785000000000005 46.73500000000001 53.925000000000004 0 0 0
247 5 12.582500000000005 48.53250000000001 53.925000000000004 0 0 0
261 3 10.785000000000005 52.12750000000001 37.74750000000001 0 0 0
262 2 12.582500000000005 50.330000000000005 37.74750000000001 0 0 0
263 2 12.582500000000005 52.12750000000001 35.95 0 0 0
264 1 10.785000000000005 50.330000000000005 39.545 0 0 0
265 1 10.785000000000005 52.12750000000001 41.34250000000001 0 0 0
266 5 12.582500000000005 50.330000000000005 41.34250000000001 0 0 0
267 5 12.582500000000005 52.12750000000001 39.545 0 0 0
268 1 10.785000000000005 50.330000000000005 43.14 0 0 0
269 3 10.785000000000005 52.12750000000001 44.93750000000001 0 0 0
270 5 12.582500000000005 50.330000000000005 44.93750000000001 0 0 0
271 2 12.582500000000005 52.12750000000001 43.14 0 0 0
272 3 10.785000000000005 50.330000000000005 46.73500000000001 0 0 0
273 2 10.785000000000005 52.12750000000001 48.53250000000001 0 0 0
274 4 12.582500000000005 50.330000000000005 48.53250000000001 0 0 0
275 2 12.582500000000005 52.12750000000001 46.73500000000001 0 0 0
276 2 10.785000000000005 50.330000000000005 50.330000000000005 0 0 0
277 5 10.785000000000005 52.12750000000001 52.12750000000001 0 0 0
278 5 12.582500000000005 50.330000000000005 52.12750000000001 0 0 0
279 5 12.582500000000005 52.12750000000001 50.330000000000005 0 0 0
280 1 10.785000000000005 50.330000000000005 53.925000000000004 0 0 0
283 1 12.582500000000005 52.12750000000001 53.925000000000004 0 0 0
301 4 12.582500000000005 53.925000000000004 34.1525 0 0 0
302 5 10.785000000000005 53.925000000000004 35.95 0 0 0
304 4 12.582500000000005 53.925000000000004 37.74750000000001 0 0 0
306 4 10.785000000000005 53.925000000000004 39.545 0 0 0
308 5 12.582500000000005 53.925000000000004 41.34250000000001 0 0 0
310 5 10.785000000000005 53.925000000000004 43.14 0 0 0
312 5 12.582500000000005 53.925000000000004 44.93750000000001 0 0 0
314 5 10.785000000000005 53.925000000000004 46.73500000000001 0 0 0
316 3 12.582500000000005 53.925000000000004 48.53250000000001 0 0 0
318 2 10.785000000000005 53.925000000000004 50.330000000000005 0 0 0
320 5 12.582500000000005 53.925000000000004 52.12750000000001 0 0 0
322 4 10.785000000000005 53.925000000000004 53.925000000000004 0 0 0
445 3 16.177500000000002 30.557500000000008 53.925000000000004 0 0 0
446 5 14.380000000000003 34.1525 52.12750000000001 0 0 0
447 1 16.177500000000002 32.355000000000004 52.12750000000001 0 0 0
448 4 16.177500000000002 34.1525 50.330000000000005 0 0 0
449 2 14.380000000000003 32.355000000000004 53.925000000000004 0 0 0
452 4 16.177500000000002 34.1525 53.925000000000004 0 0 0
454 5 14.380000000000003 37.74750000000001 48.53250000000001 0 0 0
455 4 16.177500000000002 35.95 48.53250000000001 0 0 0
456 4 16.177500000000002 37.74750000000001 46.73500000000001 0 0 0
457 3 14.380000000000003 35.95 50.330000000000005 0 0 0
458 2 14.380000000000003 37.74750000000001 52.12750000000001 0 0 0
459 2 16.177500000000002 35.95 52.12750000000001 0 0 0
460 3 16.177500000000002 37.74750000000001 50.330000000000005 0 0 0
461 2 14.380000000000003 35.95 53.925000000000004 0 0 0
464 5 16.177500000000002 37.74750000000001 53.925000000000004 0 0 0
470 1 14.380000000000003 41.34250000000001 44.93750000000001 0 0 0
471 3 16.177500000000002 39.545 44.93750000000001 0 0 0
472 3 16.177500000000002 41.34250000000001 43.14 0 0 0
473 4 14.380000000000003 39.545 46.73500000000001 0 0 0
474 5 14.380000000000003 41.34250000000001 48.53250000000001 0 0 0
475 4 16.177500000000002 39.545 48.53250000000001 0 0 0
476 5 16.177500000000002 41.34250000000001 46.73500000000001 0 0 0
477 4 14.380000000000003 39.545 50.330000000000005 0 0 0
478 2 14.380000000000003 41.34250000000001 52.12750000000001 0 0 0
479 4 16.177500000000002 39.545 52.12750000000001 0 0 0
480 3 16.177500000000002 41.34250000000001 50.330000000000005 0 0 0
481 5 14.380000000000003 39.545 53.925000000000004 0 0 0
484 4 16.177500000000002 41.34250000000001 53.925000000000004 0 0 0
494 3 14.380000000000003 44.93750000000001 41.34250000000001 0 0 0
495 2 16.177500000000002 43.14 41.34250000000001 0 0 0
496 5 16.177500000000002 44.93750000000001 39.545 0 0 0
497 3 14.380000000000003 43.14 43.14 0 0 0
498 4 14.380000000000003 44.93750000000001 44.93750000000001 0 0 0
499 5 16.177500000000002 43.14 44.93750000000001 0 0 0
500 2 16.177500000000002 44.93750000000001 43.14 0 0 0
501 3 14.380000000000003 43.14 46.73500000000001 0 0 0
502 3 14.380000000000003 44.93750000000001 48.53250000000001 0 0 0
503 3 16.177500000000002 43.14 48.53250000000001 0 0 0
504 3 16.177500000000002 44.93750000000001 46.73500000000001 0 0 0
505 1 14.380000000000003 43.14 50.330000000000005 0 0 0
506 2 14.380000000000003 44.93750000000001 52.12750000000001 0 0 0
507 3 16.177500000000002 43.14 52.12750000000001 0 0 0
508 3 16.177500000000002 44.93750000000001 50.330000000000005 0 0 0
509 5 14.380000000000003 43.14 53.925000000000004 0 0 0
512 3 16.177500000000002 44.93750000000001 53.925000000000004 0 0 0
526 4 14.380000000000003 48.53250000000001 37.74750000000001 0 0 0
527 2 16.177500000000002 46.73500000000001 37.74750000000001 0 0 0
528 3 16.177500000000002 48.53250000000001 35.95 0 0 0
529 1 14.380000000000003 46.73500000000001 39.545 0 0 0
530 4 14.380000000000003 48.53250000000001 41.34250000000001 0 0 0
531 2 16.177500000000002 46.73500000000001 41.34250000000001 0 0 0
532 3 16.177500000000002 48.53250000000001 39.545 0 0 0
533 5 14.380000000000003 46.73500000000001 43.14 0 0 0
534 2 14.380000000000003 48.53250000000001 44.93750000000001 0 0 0
535 2 16.177500000000002 46.73500000000001 44.93750000000001 0 0 0
536 1 16.177500000000002 48.53250000000001 43.14 0 0 0
537 5 14.380000000000003 46.73500000000001 46.73500000000001 0 0 0
538 1 14.380000000000003 48.53250000000001 48.53250000000001 0 0 0
539 2 16.177500000000002 46.73500000000001 48.53250000000001 0 0 0
540 4 16.177500000000002 48.53250000000001 46.73500000000001 0 0 0
541 3 14.380000000000003 46.73500000000001 50.330000000000005 0 0 0
542 5 14.380000000000003 48.53250000000001 52.12750000000001 0 0 0
543 3 16.177500000000002 46.73500000000001 52.12750000000001 0 0 0
544 5 16.177500000000002 48.53250000000001 50.330000000000005 0 0 0
545 4 14.380000000000003 46.73500000000001 53.925000000000004 0 0 0
548 3 16.177500000000002 48.53250000000001 53.925000000000004 0 0 0
566 4 14.380000000000003 52.12750000000001 34.1525 0 0 0
567 2 16.177500000000002 50.330000000000005 34.1525 0 0 0
568 5 16.177500000000002 52.12750000000001 32.355000000000004 0 0 0
569 2 14.380000000000003 50.330000000000005 35.95 0 0 0
570 3 14.380000000000003 52.12750000000001 37.74750000000001 0 0 0
571 2 16.177500000000002 50.330000000000005 37.74750000000001 0 0 0
572 3 16.177500000000002 52.12750000000001 35.95 0 0 0
573 4 14.380000000000003 50.330000000000005 39.545 0 0 0
574 3 14.380000000000003 52.12750000000001 41.34250000000001 0 0 0
575 3 16.177500000000002 50.330000000000005 41.34250000000001 0 0 0
576 3 16.177500000000002 52.12750000000001 39.545 0 0 0
577 4 14.380000000000003 50.330000000000005 43.14 0 0 0
578 5 14.380000000000003 52.12750000000001 44.93750000000001 0 0 0
579 1 16.177500000000002 50.330000000000005 44.93750000000001 0 0 0
580 1 16.177500000000002 52.12750000000001 43.14 0 0 0
581 5 14.380000000000003 50.330000000000005 46.73500000000001 0 0 0
582 4 14.380000000000003 52.12750000000001 48.53250000000001 0 0 0
583 2 16.177500000000002 50.330000000000005 48.53250000000001 0 0 0
584 5 16.177500000000002 52.12750000000001 46.73500000000001 0 0 0
585 4 14.380000000000003 50.330000000000005 50.330000000000005 0 0 0
586 1 14.380000000000003 52.12750000000001 52.12750000000001 0 0 0
587 5 16.177500000000002 50.330000000000005 52.12750000000001 0 0 0
588 2 16.177500000000002 52.12750000000001 50.330000000000005 0 0 0
589 3 14.380000000000003 50.330000000000005 53.925000000000004 0 0 0
592 2 16.177500000000002 52.12750000000001 53.925000000000004 0 0 0
614 5 16.177500000000002 53.925000000000004 30.557500000000008 0 0 0
615 3 14.380000000000003 53.925000000000004 32.355000000000004 0 0 0
617 2 16.177500000000002 53.925000000000004 34.1525 0 0 0
619 1 14.380000000000003 53.925000000000004 35.95 0 0 0
621 1 16.177500000000002 53.925000000000004 37.74750000000001 0 0 0
623 5 14.380000000000003 53.925000000000004 39.545 0 0 0
625 4 16.177500000000002 53.925000000000004 41.34250000000001 0 0 0
627 3 14.380000000000003 53.925000000000004 43.14 0 0 0
629 3 16.177500000000002 53.925000000000004 44.93750000000001 0 0 0
631 2 14.380000000000003 53.925000000000004 46.73500000000001 0 0 0
633 2 16.177500000000002 53.925000000000004 48.53250000000001 0 0 0
635 2 14.380000000000003 53.925000000000004 50.330000000000005 0 0 0
637 5 16.177500000000002 53.925000000000004 52.12750000000001 0 0 0
639 2 14.380000000000003 53.925000000000004 53.925000000000004 0 0 0
810 5 19.7725 23.367500000000003 53.925000000000004 0 0 0
811 4 17.975 26.962500000000002 52.12750000000001 0 0 0
812 2 19.7725 25.165000000000003 52.12750000000001 0 0 0
813 3 19.7725 26.962500000000002 50.330000000000005 0 0 0
814 5 17.975 25.165000000000003 53.925000000000004 0 0 0
817 5 19.7725 26.962500000000002 53.925000000000004 0 0 0
819 5 17.975 30.557500000000008 48.53250000000001 0 0 0
820 2 19.7725 28.760000000000005 48.53250000000001 0 0 0
821 3 19.7725 30.557500000000008 46.73500000000001 0 0 0
822 1 17.975 28.760000000000005 50.330000000000005 0 0 0
823 5 17.975 30.557500000000008 52.12750000000001 0 0 0
824 1 19.7725 28.760000000000005 52.12750000000001 0 0 0
825 5 19.7725 30.557500000000008 50.330000000000005 0 0 0
826 4 17.975 28.760000000000005 53.925000000000004 0 0 0
829 5 19.7725 30.557500000000008 53.925000000000004 0 0 0
835 5 17.975 34.1525 44.93750000000001 0 0 0
836 2 19.7725 32.355000000000004 44.93750000000001 0 0 0
837 2 19.7725 34.1525 43.14 0 0 0
838 5 17.975 32.355000000000004 46.73500000000001 0 0 0
839 4 17.975 34.1525 48.53250000000001 0 0 0
840 5 19.7725 32.355000000000004 48.53250000000001 0 0 0
841 5 19.7725 34.1525 46.73500000000001 0 0 0
842 3 17.975 32.355000000000004 50.330000000000005 0 0 0
843 3 17.975 34.1525 52.12750000000001 0 0 0
844 1 19.7725 32.355000000000004 52.12750000000001 0 0 0
845 4 19.7725 34.1525 50.330000000000005 0 0 0
846 4 17.975 32.355000000000004 53.925000000000004 0 0 0
849 4 19.7725 34.1525 53.925000000000004 0 0 0
859 5 17.975 37.74750000000001 41.34250000000001 0 0 0
860 5 19.7725 35.95 41.34250000000001 0 0 0
861 2 19.7725 37.74750000000001 39.545 0 0 0
862 4 17.975 35.95 43.14 0 0 0
863 1 17.975 37.74750000000001 44.93750000000001 0 0 0
864 2 19.7725 35.95 44.93750000000001 0 0 0
865 4 19.7725 37.74750000000001 43.14 0 0 0
866 2 17.975 35.95 46.73500000000001 0 0 0
867 5 17.975 37.74750000000001 48.53250000000001 0 0 0
868 4 19.7725 35.95 48.53250000000001 0 0 0
869 1 19.7725 37.74750000000001 46.73500000000001 0 0 0
870 3 17.975 35.95 50.330000000000005 0 0 0
871 5 17.975 37.74750000000001 52.12750000000001 0 0 0
872 4 19.7725 35.95 52.12750000000001 0 0 0
873 4 19.7725 37.74750000000001 50.330000000000005 0 0 0
874 1 17.975 35.95 53.925000000000004 0 0 0
877 1 19.7725 37.74750000000001 53.925000000000004 0 0 0
891 1 17.975 41.34250000000001 37.74750000000001 0 0 0
892 4 19.7725 39.545 37.74750000000001 0 0 0
893 3 19.7725 41.34250000000001 35.95 0 0 0
894 1 17.975 39.545 39.545 0 0 0
895 2 17.975 41.34250000000001 41.34250000000001 0 0 0
896 5 19.7725 39.545 41.34250000000001 0 0 0
897 1 19.7725 41.34250000000001 39.545 0 0 0
898 4 17.975 39.545 43.14 0 0 0
899 5 17.975 41.34250000000001 44.93750000000001 0 0 0
900 1 19.7725 39.545 44.93750000000001 0 0 0
901 4 19.7725 41.34250000000001 43.14 0 0 0
902 2 17.975 39.545 46.73500000000001 0 0 0
903 2 17.975 41.34250000000001 48.53250000000001 0 0 0
904 3 19.7725 39.545 48.53250000000001 0 0 0
905 5 19.7725 41.34250000000001 46.73500000000001 0 0 0
906 2 17.975 39.545 50.330000000000005 0 0 0
907 5 17.975 41.34250000000001 52.12750000000001 0 0 0
908 1 19.7725 39.545 52.12750000000001 0 0 0
909 2 19.7725 41.34250000000001 50.330000000000005 0 0 0
910 5 17.975 39.545 53.925000000000004 0 0 0
913 2 19.7725 41.34250000000001 53.925000000000004 0 0 0
931 5 17.975 44.93750000000001 34.1525 0 0 0
932 4 19.7725 43.14 34.1525 0 0 0
933 1 19.7725 44.93750000000001 32.355000000000004 0 0 0
934 1 17.975 43.14 35.95 0 0 0
935 4 17.975 44.93750000000001 37.74750000000001 0 0 0
936 2 19.7725 43.14 37.74750000000001 0 0 0
937 5 19.7725 44.93750000000001 35.95 0 0 0
938 3 17.975 43.14 39.545 0 0 0
939 4 17.975 44.93750000000001 41.34250000000001 0 0 0
940 3 19.7725 43.14 41.34250000000001 0 0 0
941 2 19.7725 44.93750000000001 39.545 0 0 0
942 3 17.975 43.14 43.14 0 0 0
943 2 17.975 44.93750000000001 44.93750000000001 0 0 0
944 5 19.7725 43.14 44.93750000000001 0 0 0
945 4 19.7725 44.93750000000001 43.14 0 0 0
946 5 17.975 43.14 46.73500000000001 0 0 0
947 1 17.975 44.93750000000001 48.53250000000001 0 0 0
948 2 19.7725 43.14 48.53250000000001 0 0 0
949 1 19.7725 44.93750000000001 46.73500000000001 0 0 0
950 2 17.975 43.14 50.330000000000005 0 0 0
951 1 17.975 44.93750000000001 52.12750000000001 0 0 0
952 2 19.7725 43.14 52.12750000000001 0 0 0
953 4 19.7725 44.93750000000001 50.330000000000005 0 0 0
954 3 17.975 43.14 53.925000000000004 0 0 0
957 4 19.7725 44.93750000000001 53.925000000000004 0 0 0
979 5 17.975 48.53250000000001 30.557500000000008 0 0 0
980 5 19.7725 46.73500000000001 30.557500000000008 0 0 0
981 1 19.7725 48.53250000000001 28.760000000000005 0 0 0
982 1 17.975 46.73500000000001 32.355000000000004 0 0 0
983 5 17.975 48.53250000000001 34.1525 0 0 0
984 4 19.7725 46.73500000000001 34.1525 0 0 0
985 1 19.7725 48.53250000000001 32.355000000000004 0 0 0
986 4 17.975 46.73500000000001 35.95 0 0 0
987 3 17.975 48.53250000000001 37.74750000000001 0 0 0
988 3 19.7725 46.73500000000001 37.74750000000001 0 0 0
989 4 19.7725 48.53250000000001 35.95 0 0 0
990 3 17.975 46.73500000000001 39.545 0 0 0
991 4 17.975 48.53250000000001 41.34250000000001 0 0 0
992 5 19.7725 46.73500000000001 41.34250000000001 0 0 0
993 1 19.7725 48.53250000000001 39.545 0 0 0
994 5 17.975 46.73500000000001 43.14 0 0 0
995 4 17.975 48.53250000000001 44.93750000000001 0 0 0
996 2 19.7725 46.73500000000001 44.93750000000001 0 0 0
997 4 19.7725 48.53250000000001 43.14 0 0 0
998 1 17.975 46.73500000000001 46.73500000000001 0 0 0
999 3 17.975 48.53250000000001 48.53250000000001 0 0 0
1000 3 19.7725 46.73500000000001 48.53250000000001 0 0 0
1001 5 19.7725 48.53250000000001 46.73500000000001 0 0 0
1002 5 17.975 46.73500000000001 50.330000000000005 0 0 0
1003 5 17.975 48.53250000000001 52.12750000000001 0 0 0
1004 1 19.7725 46.73500000000001 52.12750000000001 0 0 0
1005 3 19.7725 48.53250000000001 50.330000000000005 0 0 0
1006 4 17.975 46.73500000000001 53.925000000000004 0 0 0
1009 5 19.7725 48.53250000000001 53.925000000000004 0 0 0
1035 3 17.975 52.12750000000001 26.962500000000002 0 0 0
1036 3 19.7725 50.330000000000005 26.962500000000002 0 0 0
1037 1 19.7725 52.12750000000001 25.165000000000003 0 0 0
1038 2 17.975 50.330000000000005 28.760000000000005 0 0 0
1039 2 17.975 52.12750000000001 30.557500000000008 0 0 0
1040 2 19.7725 50.330000000000005 30.557500000000008 0 0 0
1041 1 19.7725 52.12750000000001 28.760000000000005 0 0 0
1042 4 17.975 50.330000000000005 32.355000000000004 0 0 0
1043 1 17.975 52.12750000000001 34.1525 0 0 0
1044 2 19.7725 50.330000000000005 34.1525 0 0 0
1045 5 19.7725 52.12750000000001 32.355000000000004 0 0 0
1046 3 17.975 50.330000000000005 35.95 0 0 0
1047 1 17.975 52.12750000000001 37.74750000000001 0 0 0
1048 3 19.7725 50.330000000000005 37.74750000000001 0 0 0
1049 3 19.7725 52.12750000000001 35.95 0 0 0
1050 2 17.975 50.330000000000005 39.545 0 0 0
1051 1 17.975 52.12750000000001 41.34250000000001 0 0 0
1052 2 19.7725 50.330000000000005 41.34250000000001 0 0 0
1053 1 19.7725 52.12750000000001 39.545 0 0 0
1054 4 17.975 50.330000000000005 43.14 0 0 0
1055 4 17.975 52.12750000000001 44.93750000000001 0 0 0
1056 1 19.7725 50.330000000000005 44.93750000000001 0 0 0
1057 4 19.7725 52.12750000000001 43.14 0 0 0
1058 2 17.975 50.330000000000005 46.73500000000001 0 0 0
1059 2 17.975 52.12750000000001 48.53250000000001 0 0 0
1060 5 19.7725 50.330000000000005 48.53250000000001 0 0 0
1061 3 19.7725 52.12750000000001 46.73500000000001 0 0 0
1062 3 17.975 50.330000000000005 50.330000000000005 0 0 0
1063 1 17.975 52.12750000000001 52.12750000000001 0 0 0
1064 1 19.7725 50.330000000000005 52.12750000000001 0 0 0
1065 2 19.7725 52.12750000000001 50.330000000000005 0 0 0
1066 4 17.975 50.330000000000005 53.925000000000004 0 0 0
1069 4 19.7725 52.12750000000001 53.925000000000004 0 0 0
1099 1 19.7725 53.925000000000004 23.367500000000003 0 0 0
1100 1 17.975 53.925000000000004 25.165000000000003 0 0 0
1102 2 19.7725 53.925000000000004 26.962500000000002 0 0 0
1104 1 17.975 53.925000000000004 28.760000000000005 0 0 0
1106 2 19.7725 53.925000000000004 30.557500000000008 0 0 0
1108 1 17.975 53.925000000000004 32.355000000000004 0 0 0
1110 1 19.7725 53.925000000000004 34.1525 0 0 0
1112 3 17.975 53.925000000000004 35.95 0 0 0
1114 1 19.7725 53.925000000000004 37.74750000000001 0 0 0
1116 3 17.975 53.925000000000004 39.545 0 0 0
1118 5 19.7725 53.925000000000004 41.34250000000001 0 0 0
1120 2 17.975 53.925000000000004 43.14 0 0 0
1122 3 19.7725 53.925000000000004 44.93750000000001 0 0 0
1124 4 17.975 53.925000000000004 46.73500000000001 0 0 0
1126 1 19.7725 53.925000000000004 48.53250000000001 0 0 0
1128 4 17.975 53.925000000000004 50.330000000000005 0 0 0
1130 3 19.7725 53.925000000000004 52.12750000000001 0 0 0
1132 5 17.975 53.925000000000004 53.925000000000004 0 0 0
1423 4 23.367500000000003 19.7725 53.925000000000004 0 0 0
1424 3 21.57 23.367500000000003 52.12750000000001 0 0 0
1425 4 23.367500000000003 21.57 52.12750000000001 0 0 0
1426 4 23.367500000000003 23.367500000000003 50.330000000000005 0 0 0
1427 4 21.57 21.57 53.925000000000004 0 0 0
1430 4 23.367500000000003 23.367500000000003 53.925000000000004 0 0 0
1432 2 21.57 26.962500000000002 48.53250000000001 0 0 0
1433 5 23.367500000000003 25.165000000000003 48.53250000000001 0 0 0
1434 3 23.367500000000003 26.962500000000002 46.73500000000001 0 0 0
1435 4 21.57 25.165000000000003 50.330000000000005 0 0 0
1436 4 21.57 26.962500000000002 52.12750000000001 0 0 0
1437 1 23.367500000000003 25.165000000000003 52.12750000000001 0 0 0
1438 5 23.367500000000003 26.962500000000002 50.330000000000005 0 0 0
1439 5 21.57 25.165000000000003 53.925000000000004 0 0 0
1442 4 23.367500000000003 26.962500000000002 53.925000000000004 0 0 0
1448 5 21.57 30.557500000000008 44.93750000000001 0 0 0
1449 1 23.367500000000003 28.760000000000005 44.93750000000001 0 0 0
1450 4 23.367500000000003 30.557500000000008 43.14 0 0 0
1451 4 21.57 28.760000000000005 46.73500000000001 0 0 0
1452 1 21.57 30.557500000000008 48.53250000000001 0 0 0
1453 2 23.367500000000003 28.760000000000005 48.53250000000001 0 0 0
1454 1 23.367500000000003 30.557500000000008 46.73500000000001 0 0 0
1455 3 21.57 28.760000000000005 50.330000000000005 0 0 0
1456 4 21.57 30.557500000000008 52.12750000000001 0 0 0
1457 4 23.367500000000003 28.760000000000005 52.12750000000001 0 0 0
1458 2 23.367500000000003 30.557500000000008 50.330000000000005 0 0 0
1459 1 21.57 28.760000000000005 53.925000000000004 0 0 0
1462 5 23.367500000000003 30.557500000000008 53.925000000000004 0 0 0
1472 3 21.57 34.1525 41.34250000000001 0 0 0
1473 4 23.367500000000003 32.355000000000004 41.34250000000001 0 0 0
1474 5 23.367500000000003 34.1525 39.545 0 0 0
1475 2 21.57 32.355000000000004 43.14 0 0 0
1476 1 21.57 34.1525 44.93750000000001 0 0 0
1477 3 23.367500000000003 32.355000000000004 44.93750000000001 0 0 0
1478 4 23.367500000000003 34.1525 43.14 0 0 0
1479 4 21.57 32.355000000000004 46.73500000000001 0 0 0
1480 4 21.57 34.1525 48.53250000000001 0 0 0
1481 2 23.367500000000003 32.355000000000004 48.53250000000001 0 0 0
1482 4 23.367500000000003 34.1525 46.73500000000001 0 0 0
1483 1 21.57 32.355000000000004 50.330000000000005 0 0 0
1484 3 21.57 34.1525 52.12750000000001 0 0 0
1485 2 23.367500000000003 32.355000000000004 52.12750000000001 0 0 0
1486 2 23.367500000000003 34.1525 50.330000000000005 0 0 0
1487 2 21.57 32.355000000000004 53.925000000000004 0 0 0
1490 2 23.367500000000003 34.1525 53.925000000000004 0 0 0
1504 4 21.57 37.74750000000001 37.74750000000001 0 0 0
1505 5 23.367500000000003 35.95 37.74750000000001 0 0 0
1506 3 23.367500000000003 37.74750000000001 35.95 0 0 0
1507 4 21.57 35.95 39.545 0 0 0
1508 1 21.57 37.74750000000001 41.34250000000001 0 0 0
1509 3 23.367500000000003 35.95 41.34250000000001 0 0 0
1510 4 23.367500000000003 37.74750000000001 39.545 0 0 0
1511 3 21.57 35.95 43.14 0 0 0
1512 3 21.57 37.74750000000001 44.93750000000001 0 0 0
1513 4 23.367500000000003 35.95 44.93750000000001 0 0 0
1514 2 23.367500000000003 37.74750000000001 43.14 0 0 0
1515 1 21.57 35.95 46.73500000000001 0 0 0
1516 3 21.57 37.74750000000001 48.53250000000001 0 0 0
1517 4 23.367500000000003 35.95 48.53250000000001 0 0 0
1518 1 23.367500000000003 37.74750000000001 46.73500000000001 0 0 0
1519 4 21.57 35.95 50.330000000000005 0 0 0
1520 1 21.57 37.74750000000001 52.12750000000001 0 0 0
1521 4 23.367500000000003 35.95 52.12750000000001 0 0 0
1522 1 23.367500000000003 37.74750000000001 50.330000000000005 0 0 0
1523 5 21.57 35.95 53.925000000000004 0 0 0
1526 2 23.367500000000003 37.74750000000001 53.925000000000004 0 0 0
1544 5 21.57 41.34250000000001 34.1525 0 0 0
1545 2 23.367500000000003 39.545 34.1525 0 0 0
1546 2 23.367500000000003 41.34250000000001 32.355000000000004 0 0 0
1547 4 21.57 39.545 35.95 0 0 0
1548 1 21.57 41.34250000000001 37.74750000000001 0 0 0
1549 2 23.367500000000003 39.545 37.74750000000001 0 0 0
1550 1 23.367500000000003 41.34250000000001 35.95 0 0 0
1551 2 21.57 39.545 39.545 0 0 0
1552 5 21.57 41.34250000000001 41.34250000000001 0 0 0
1553 5 23.367500000000003 39.545 41.34250000000001 0 0 0
1554 3 23.367500000000003 41.34250000000001 39.545 0 0 0
1555 2 21.57 39.545 43.14 0 0 0
1556 5 21.57 41.34250000000001 44.93750000000001 0 0 0
1557 2 23.367500000000003 39.545 44.93750000000001 0 0 0
1558 3 23.367500000000003 41.34250000000001 43.14 0 0 0
1559 5 21.57 39.545 46.73500000000001 0 0 0
1560 3 21.57 41.34250000000001 48.53250000000001 0 0 0
1561 2 23.367500000000003 39.545 48.53250000000001 0 0 0
1562 5 23.367500000000003 41.34250000000001 46.73500000000001 0 0 0
1563 5 21.57 39.545 50.330000000000005 0 0 0
1564 2 21.57 41.34250000000001 52.12750000000001 0 0 0
1565 3 23.367500000000003 39.545 52.12750000000001 0 0 0
1566 3 23.367500000000003 41.34250000000001 50.330000000000005 0 0 0
1567 4 21.57 39.545 53.925000000000004 0 0 0
1570 1 23.367500000000003 41.34250000000001 53.925000000000004 0 0 0
1592 2 21.57 44.93750000000001 30.557500000000008 0 0 0
1593 5 23.367500000000003 43.14 30.557500000000008 0 0 0
1594 2 23.367500000000003 44.93750000000001 28.760000000000005 0 0 0
1595 2 21.57 43.14 32.355000000000004 0 0 0
1596 5 21.57 44.93750000000001 34.1525 0 0 0
1597 5 23.367500000000003 43.14 34.1525 0 0 0