model_files/NiCoCrFeMn/NiCoCrFeMn_30000/NiCoCrFeMn_322/NiCoCrFeMn_322_fcc_30187_temp.data (written by ASE) 

30187 	 atoms 
5  atom types
0.0                     109  xlo xhi
0.0                     109  ylo yhi
0.0                     109  zlo zhi


Atoms 

     1   1      1.7974999999999997      52.127500000000012      53.925000000000004
     2   1      1.7974999999999997      53.925000000000004      52.127500000000012
     3   1                       0      53.925000000000004      53.925000000000004
     4   1      1.7974999999999997      53.925000000000004      55.722500000000004
     5   1      1.7974999999999997      55.722500000000004      53.925000000000004
     6   1      5.3925000000000054      44.937500000000007      53.925000000000004
     7   1      3.5949999999999993      48.532500000000013      52.127500000000012
     8   1      5.3925000000000054      46.735000000000007      52.127500000000012
     9   1      5.3925000000000054      48.532500000000013      50.330000000000005
    10   1      3.5949999999999993      46.735000000000007      53.925000000000004
    11   1      3.5949999999999993      48.532500000000013      55.722500000000004
    12   1      5.3925000000000054      46.735000000000007      55.722500000000004
    13   1      5.3925000000000054      48.532500000000013      53.925000000000004
    14   1      5.3925000000000054      48.532500000000013       57.52000000000001
    15   1      3.5949999999999993      52.127500000000012      48.532500000000013
    16   1      5.3925000000000054      50.330000000000005      48.532500000000013
    17   1      5.3925000000000054      52.127500000000012      46.735000000000007
    18   1      3.5949999999999993      50.330000000000005      50.330000000000005
    19   1      3.5949999999999993      52.127500000000012      52.127500000000012
    20   1      5.3925000000000054      50.330000000000005      52.127500000000012
    21   1      5.3925000000000054      52.127500000000012      50.330000000000005
    22   1      3.5949999999999993      50.330000000000005      53.925000000000004
    23   1      3.5949999999999993      52.127500000000012      55.722500000000004
    24   1      5.3925000000000054      50.330000000000005      55.722500000000004
    25   1      5.3925000000000054      52.127500000000012      53.925000000000004
    26   1      3.5949999999999993      50.330000000000005       57.52000000000001
    27   1      3.5949999999999993      52.127500000000012       59.31750000000001
    28   1      5.3925000000000054      50.330000000000005       59.31750000000001
    29   1      5.3925000000000054      52.127500000000012       57.52000000000001
    30   1      5.3925000000000054      52.127500000000012      61.115000000000016
    31   1      5.3925000000000054      53.925000000000004      44.937500000000007
    32   1      3.5949999999999993      53.925000000000004      46.735000000000007
    33   1      3.5949999999999993      55.722500000000004      48.532500000000013
    34   1      5.3925000000000054      53.925000000000004      48.532500000000013
    35   1      5.3925000000000054      55.722500000000004      46.735000000000007
    36   1      3.5949999999999993      53.925000000000004      50.330000000000005
    37   1      3.5949999999999993      55.722500000000004      52.127500000000012
    38   1      5.3925000000000054      53.925000000000004      52.127500000000012
    39   1      5.3925000000000054      55.722500000000004      50.330000000000005
    40   1      3.5949999999999993      53.925000000000004      53.925000000000004
    41   1      3.5949999999999993      55.722500000000004      55.722500000000004
    42   1      5.3925000000000054      53.925000000000004      55.722500000000004
    43   1      5.3925000000000054      55.722500000000004      53.925000000000004
    44   1      3.5949999999999993      53.925000000000004       57.52000000000001
    45   1      3.5949999999999993      55.722500000000004       59.31750000000001
    46   1      5.3925000000000054      53.925000000000004       59.31750000000001
    47   1      5.3925000000000054      55.722500000000004       57.52000000000001
    48   1      3.5949999999999993      53.925000000000004      61.115000000000016
    49   1      5.3925000000000054      53.925000000000004      62.912500000000016
    50   1      5.3925000000000054      55.722500000000004      61.115000000000016
    51   1      5.3925000000000054       57.52000000000001      48.532500000000013
    52   1      3.5949999999999993       57.52000000000001      50.330000000000005
    53   1      3.5949999999999993       59.31750000000001      52.127500000000012
    54   1      5.3925000000000054       57.52000000000001      52.127500000000012
    55   1      5.3925000000000054       59.31750000000001      50.330000000000005
    56   1      3.5949999999999993       57.52000000000001      53.925000000000004
    57   1      3.5949999999999993       59.31750000000001      55.722500000000004
    58   1      5.3925000000000054       57.52000000000001      55.722500000000004
    59   1      5.3925000000000054       59.31750000000001      53.925000000000004
    60   1      3.5949999999999993       57.52000000000001       57.52000000000001
    61   1      5.3925000000000054       57.52000000000001       59.31750000000001
    62   1      5.3925000000000054       59.31750000000001       57.52000000000001
    63   1      5.3925000000000054      61.115000000000016      52.127500000000012
    64   1      3.5949999999999993      61.115000000000016      53.925000000000004
    65   1      5.3925000000000054      61.115000000000016      55.722500000000004
    66   1      5.3925000000000054      62.912500000000016      53.925000000000004
    67   1       8.987500000000006      41.342500000000008      53.925000000000004
    68   1      7.1900000000000057      44.937500000000007      52.127500000000012
    69   1       8.987500000000006      43.140000000000001      52.127500000000012
    70   1       8.987500000000006      44.937500000000007      50.330000000000005
    71   1      7.1900000000000057      43.140000000000001      53.925000000000004
    72   1      7.1900000000000057      44.937500000000007      55.722500000000004
    73   1       8.987500000000006      43.140000000000001      55.722500000000004
    74   1       8.987500000000006      44.937500000000007      53.925000000000004
    75   1       8.987500000000006      44.937500000000007       57.52000000000001
    76   1      7.1900000000000057      48.532500000000013      48.532500000000013
    77   1       8.987500000000006      46.735000000000007      48.532500000000013
    78   1       8.987500000000006      48.532500000000013      46.735000000000007
    79   1      7.1900000000000057      46.735000000000007      50.330000000000005
    80   1      7.1900000000000057      48.532500000000013      52.127500000000012
    81   1       8.987500000000006      46.735000000000007      52.127500000000012
    82   1       8.987500000000006      48.532500000000013      50.330000000000005
    83   1      7.1900000000000057      46.735000000000007      53.925000000000004
    84   1      7.1900000000000057      48.532500000000013      55.722500000000004
    85   1       8.987500000000006      46.735000000000007      55.722500000000004
    86   1       8.987500000000006      48.532500000000013      53.925000000000004
    87   1      7.1900000000000057      46.735000000000007       57.52000000000001
    88   1      7.1900000000000057      48.532500000000013       59.31750000000001
    89   1       8.987500000000006      46.735000000000007       59.31750000000001
    90   1       8.987500000000006      48.532500000000013       57.52000000000001
    91   1       8.987500000000006      48.532500000000013      61.115000000000016
    92   1      7.1900000000000057      52.127500000000012      44.937500000000007
    93   1       8.987500000000006      50.330000000000005      44.937500000000007
    94   1       8.987500000000006      52.127500000000012      43.140000000000001
    95   1      7.1900000000000057      50.330000000000005      46.735000000000007
    96   1      7.1900000000000057      52.127500000000012      48.532500000000013
    97   1       8.987500000000006      50.330000000000005      48.532500000000013
    98   1       8.987500000000006      52.127500000000012      46.735000000000007
    99   1      7.1900000000000057      50.330000000000005      50.330000000000005
   100   1      7.1900000000000057      52.127500000000012      52.127500000000012
   101   1       8.987500000000006      50.330000000000005      52.127500000000012
   102   1       8.987500000000006      52.127500000000012      50.330000000000005
   103   1      7.1900000000000057      50.330000000000005      53.925000000000004
   104   1      7.1900000000000057      52.127500000000012      55.722500000000004
   105   1       8.987500000000006      50.330000000000005      55.722500000000004
   106   1       8.987500000000006      52.127500000000012      53.925000000000004
   107   1      7.1900000000000057      50.330000000000005       57.52000000000001
   108   1      7.1900000000000057      52.127500000000012       59.31750000000001
   109   1       8.987500000000006      50.330000000000005       59.31750000000001
   110   1       8.987500000000006      52.127500000000012       57.52000000000001
   111   1      7.1900000000000057      50.330000000000005      61.115000000000016
   112   1      7.1900000000000057      52.127500000000012      62.912500000000016
   113   1       8.987500000000006      50.330000000000005      62.912500000000016
   114   1       8.987500000000006      52.127500000000012      61.115000000000016
   115   1       8.987500000000006      52.127500000000012      64.710000000000008
   116   1       8.987500000000006      53.925000000000004      41.342500000000008
   117   1      7.1900000000000057      53.925000000000004      43.140000000000001
   118   1      7.1900000000000057      55.722500000000004      44.937500000000007
   119   1       8.987500000000006      53.925000000000004      44.937500000000007
   120   1       8.987500000000006      55.722500000000004      43.140000000000001
   121   1      7.1900000000000057      53.925000000000004      46.735000000000007
   122   1      7.1900000000000057      55.722500000000004      48.532500000000013
   123   1       8.987500000000006      53.925000000000004      48.532500000000013
   124   1       8.987500000000006      55.722500000000004      46.735000000000007
   125   1      7.1900000000000057      53.925000000000004      50.330000000000005
   126   1      7.1900000000000057      55.722500000000004      52.127500000000012
   127   1       8.987500000000006      53.925000000000004      52.127500000000012
   128   1       8.987500000000006      55.722500000000004      50.330000000000005
   129   1      7.1900000000000057      53.925000000000004      53.925000000000004
   130   1      7.1900000000000057      55.722500000000004      55.722500000000004
   131   1       8.987500000000006      53.925000000000004      55.722500000000004
   132   1       8.987500000000006      55.722500000000004      53.925000000000004
   133   1      7.1900000000000057      53.925000000000004       57.52000000000001
   134   1      7.1900000000000057      55.722500000000004       59.31750000000001
   135   1       8.987500000000006      53.925000000000004       59.31750000000001
   136   1       8.987500000000006      55.722500000000004       57.52000000000001
   137   1      7.1900000000000057      53.925000000000004      61.115000000000016
   138   1      7.1900000000000057      55.722500000000004      62.912500000000016
   139   1       8.987500000000006      53.925000000000004      62.912500000000016
   140   1       8.987500000000006      55.722500000000004      61.115000000000016
   141   1      7.1900000000000057      53.925000000000004      64.710000000000008
   142   1       8.987500000000006      53.925000000000004      66.507500000000007
   143   1       8.987500000000006      55.722500000000004      64.710000000000008
   144   1       8.987500000000006       57.52000000000001      44.937500000000007
   145   1      7.1900000000000057       57.52000000000001      46.735000000000007
   146   1      7.1900000000000057       59.31750000000001      48.532500000000013
   147   1       8.987500000000006       57.52000000000001      48.532500000000013
   148   1       8.987500000000006       59.31750000000001      46.735000000000007
   149   1      7.1900000000000057       57.52000000000001      50.330000000000005
   150   1      7.1900000000000057       59.31750000000001      52.127500000000012
   151   1       8.987500000000006       57.52000000000001      52.127500000000012
   152   1       8.987500000000006       59.31750000000001      50.330000000000005
   153   1      7.1900000000000057       57.52000000000001      53.925000000000004
   154   1      7.1900000000000057       59.31750000000001      55.722500000000004
   155   1       8.987500000000006       57.52000000000001      55.722500000000004
   156   1       8.987500000000006       59.31750000000001      53.925000000000004
   157   1      7.1900000000000057       57.52000000000001       57.52000000000001
   158   1      7.1900000000000057       59.31750000000001       59.31750000000001
   159   1       8.987500000000006       57.52000000000001       59.31750000000001
   160   1       8.987500000000006       59.31750000000001       57.52000000000001
   161   1      7.1900000000000057       57.52000000000001      61.115000000000016
   162   1       8.987500000000006       57.52000000000001      62.912500000000016
   163   1       8.987500000000006       59.31750000000001      61.115000000000016
   164   1       8.987500000000006      61.115000000000016      48.532500000000013
   165   1      7.1900000000000057      61.115000000000016      50.330000000000005
   166   1      7.1900000000000057      62.912500000000016      52.127500000000012
   167   1       8.987500000000006      61.115000000000016      52.127500000000012
   168   1       8.987500000000006      62.912500000000016      50.330000000000005
   169   1      7.1900000000000057      61.115000000000016      53.925000000000004
   170   1      7.1900000000000057      62.912500000000016      55.722500000000004
   171   1       8.987500000000006      61.115000000000016      55.722500000000004
   172   1       8.987500000000006      62.912500000000016      53.925000000000004
   173   1      7.1900000000000057      61.115000000000016       57.52000000000001
   174   1       8.987500000000006      61.115000000000016       59.31750000000001
   175   1       8.987500000000006      62.912500000000016       57.52000000000001
   176   1       8.987500000000006      64.710000000000008      52.127500000000012
   177   1      7.1900000000000057      64.710000000000008      53.925000000000004
   178   1       8.987500000000006      64.710000000000008      55.722500000000004
   179   1       8.987500000000006      66.507500000000007      53.925000000000004
   180   1      12.582500000000005      34.152500000000003      53.925000000000004
   181   1      10.785000000000005      37.747500000000009      52.127500000000012
   182   1      12.582500000000005      35.950000000000003      52.127500000000012
   183   1      12.582500000000005      37.747500000000009      50.330000000000005
   184   1      10.785000000000005      35.950000000000003      53.925000000000004
   185   1      10.785000000000005      37.747500000000009      55.722500000000004
   186   1      12.582500000000005      35.950000000000003      55.722500000000004
   187   1      12.582500000000005      37.747500000000009      53.925000000000004
   188   1      12.582500000000005      37.747500000000009       57.52000000000001
   189   1      10.785000000000005      41.342500000000008      48.532500000000013
   190   1      12.582500000000005      39.545000000000002      48.532500000000013
   191   1      12.582500000000005      41.342500000000008      46.735000000000007
   192   1      10.785000000000005      39.545000000000002      50.330000000000005
   193   1      10.785000000000005      41.342500000000008      52.127500000000012
   194   1      12.582500000000005      39.545000000000002      52.127500000000012
   195   1      12.582500000000005      41.342500000000008      50.330000000000005
   196   1      10.785000000000005      39.545000000000002      53.925000000000004
   197   1      10.785000000000005      41.342500000000008      55.722500000000004
   198   1      12.582500000000005      39.545000000000002      55.722500000000004
   199   1      12.582500000000005      41.342500000000008      53.925000000000004
   200   1      10.785000000000005      39.545000000000002       57.52000000000001
   201   1      10.785000000000005      41.342500000000008       59.31750000000001
   202   1      12.582500000000005      39.545000000000002       59.31750000000001
   203   1      12.582500000000005      41.342500000000008       57.52000000000001
   204   1      12.582500000000005      41.342500000000008      61.115000000000016
   205   1      10.785000000000005      44.937500000000007      44.937500000000007
   206   1      12.582500000000005      43.140000000000001      44.937500000000007
   207   1      12.582500000000005      44.937500000000007      43.140000000000001
   208   1      10.785000000000005      43.140000000000001      46.735000000000007
   209   1      10.785000000000005      44.937500000000007      48.532500000000013
   210   1      12.582500000000005      43.140000000000001      48.532500000000013
   211   1      12.582500000000005      44.937500000000007      46.735000000000007
   212   1      10.785000000000005      43.140000000000001      50.330000000000005
   213   1      10.785000000000005      44.937500000000007      52.127500000000012
   214   1      12.582500000000005      43.140000000000001      52.127500000000012
   215   1      12.582500000000005      44.937500000000007      50.330000000000005
   216   1      10.785000000000005      43.140000000000001      53.925000000000004
   217   1      10.785000000000005      44.937500000000007      55.722500000000004
   218   1      12.582500000000005      43.140000000000001      55.722500000000004
   219   1      12.582500000000005      44.937500000000007      53.925000000000004
   220   1      10.785000000000005      43.140000000000001       57.52000000000001
   221   1      10.785000000000005      44.937500000000007       59.31750000000001
   222   1      12.582500000000005      43.140000000000001       59.31750000000001
   223   1      12.582500000000005      44.937500000000007       57.52000000000001
   224   1      10.785000000000005      43.140000000000001      61.115000000000016
   225   1      10.785000000000005      44.937500000000007      62.912500000000016
   226   1      12.582500000000005      43.140000000000001      62.912500000000016
   227   1      12.582500000000005      44.937500000000007      61.115000000000016
   228   1      12.582500000000005      44.937500000000007      64.710000000000008
   229   1      10.785000000000005      48.532500000000013      41.342500000000008
   230   1      12.582500000000005      46.735000000000007      41.342500000000008
   231   1      12.582500000000005      48.532500000000013      39.545000000000002
   232   1      10.785000000000005      46.735000000000007      43.140000000000001
   233   1      10.785000000000005      48.532500000000013      44.937500000000007
   234   1      12.582500000000005      46.735000000000007      44.937500000000007
   235   1      12.582500000000005      48.532500000000013      43.140000000000001
   236   1      10.785000000000005      46.735000000000007      46.735000000000007
   237   1      10.785000000000005      48.532500000000013      48.532500000000013
   238   1      12.582500000000005      46.735000000000007      48.532500000000013
   239   1      12.582500000000005      48.532500000000013      46.735000000000007
   240   1      10.785000000000005      46.735000000000007      50.330000000000005
   241   1      10.785000000000005      48.532500000000013      52.127500000000012
   242   1      12.582500000000005      46.735000000000007      52.127500000000012
   243   1      12.582500000000005      48.532500000000013      50.330000000000005
   244   1      10.785000000000005      46.735000000000007      53.925000000000004
   245   1      10.785000000000005      48.532500000000013      55.722500000000004
   246   1      12.582500000000005      46.735000000000007      55.722500000000004
   247   1      12.582500000000005      48.532500000000013      53.925000000000004
   248   1      10.785000000000005      46.735000000000007       57.52000000000001
   249   1      10.785000000000005      48.532500000000013       59.31750000000001
   250   1      12.582500000000005      46.735000000000007       59.31750000000001
   251   1      12.582500000000005      48.532500000000013       57.52000000000001
   252   1      10.785000000000005      46.735000000000007      61.115000000000016
   253   1      10.785000000000005      48.532500000000013      62.912500000000016
   254   1      12.582500000000005      46.735000000000007      62.912500000000016
   255   1      12.582500000000005      48.532500000000013      61.115000000000016
   256   1      10.785000000000005      46.735000000000007      64.710000000000008
   257   1      10.785000000000005      48.532500000000013      66.507500000000007
   258   1      12.582500000000005      46.735000000000007      66.507500000000007
   259   1      12.582500000000005      48.532500000000013      64.710000000000008
   260   1      12.582500000000005      48.532500000000013      68.305000000000007
   261   1      10.785000000000005      52.127500000000012      37.747500000000009
   262   1      12.582500000000005      50.330000000000005      37.747500000000009
   263   1      12.582500000000005      52.127500000000012      35.950000000000003
   264   1      10.785000000000005      50.330000000000005      39.545000000000002
   265   1      10.785000000000005      52.127500000000012      41.342500000000008
   266   1      12.582500000000005      50.330000000000005      41.342500000000008
   267   1      12.582500000000005      52.127500000000012      39.545000000000002
   268   1      10.785000000000005      50.330000000000005      43.140000000000001
   269   1      10.785000000000005      52.127500000000012      44.937500000000007
   270   1      12.582500000000005      50.330000000000005      44.937500000000007
   271   1      12.582500000000005      52.127500000000012      43.140000000000001
   272   1      10.785000000000005      50.330000000000005      46.735000000000007
   273   1      10.785000000000005      52.127500000000012      48.532500000000013
   274   1      12.582500000000005      50.330000000000005      48.532500000000013
   275   1      12.582500000000005      52.127500000000012      46.735000000000007
   276   1      10.785000000000005      50.330000000000005      50.330000000000005
   277   1      10.785000000000005      52.127500000000012      52.127500000000012
   278   1      12.582500000000005      50.330000000000005      52.127500000000012
   279   1      12.582500000000005      52.127500000000012      50.330000000000005
   280   1      10.785000000000005      50.330000000000005      53.925000000000004
   281   1      10.785000000000005      52.127500000000012      55.722500000000004
   282   1      12.582500000000005      50.330000000000005      55.722500000000004
   283   1      12.582500000000005      52.127500000000012      53.925000000000004
   284   1      10.785000000000005      50.330000000000005       57.52000000000001
   285   1      10.785000000000005      52.127500000000012       59.31750000000001
   286   1      12.582500000000005      50.330000000000005       59.31750000000001
   287   1      12.582500000000005      52.127500000000012       57.52000000000001
   288   1      10.785000000000005      50.330000000000005      61.115000000000016
   289   1      10.785000000000005      52.127500000000012      62.912500000000016
   290   1      12.582500000000005      50.330000000000005      62.912500000000016
   291   1      12.582500000000005      52.127500000000012      61.115000000000016
   292   1      10.785000000000005      50.330000000000005      64.710000000000008
   293   1      10.785000000000005      52.127500000000012      66.507500000000007
   294   1      12.582500000000005      50.330000000000005      66.507500000000007
   295   1      12.582500000000005      52.127500000000012      64.710000000000008
   296   1      10.785000000000005      50.330000000000005      68.305000000000007
   297   1      10.785000000000005      52.127500000000012      70.102500000000006
   298   1      12.582500000000005      50.330000000000005      70.102500000000006
   299   1      12.582500000000005      52.127500000000012      68.305000000000007
   300   1      12.582500000000005      52.127500000000012      71.900000000000006
   301   1      12.582500000000005      53.925000000000004      34.152500000000003
   302   1      10.785000000000005      53.925000000000004      35.950000000000003
   303   1      10.785000000000005      55.722500000000004      37.747500000000009
   304   1      12.582500000000005      53.925000000000004      37.747500000000009
   305   1      12.582500000000005      55.722500000000004      35.950000000000003
   306   1      10.785000000000005      53.925000000000004      39.545000000000002
   307   1      10.785000000000005      55.722500000000004      41.342500000000008
   308   1      12.582500000000005      53.925000000000004      41.342500000000008
   309   1      12.582500000000005      55.722500000000004      39.545000000000002
   310   1      10.785000000000005      53.925000000000004      43.140000000000001
   311   1      10.785000000000005      55.722500000000004      44.937500000000007
   312   1      12.582500000000005      53.925000000000004      44.937500000000007
   313   1      12.582500000000005      55.722500000000004      43.140000000000001
   314   1      10.785000000000005      53.925000000000004      46.735000000000007
   315   1      10.785000000000005      55.722500000000004      48.532500000000013
   316   1      12.582500000000005      53.925000000000004      48.532500000000013
   317   1      12.582500000000005      55.722500000000004      46.735000000000007
   318   1      10.785000000000005      53.925000000000004      50.330000000000005
   319   1      10.785000000000005      55.722500000000004      52.127500000000012
   320   1      12.582500000000005      53.925000000000004      52.127500000000012
   321   1      12.582500000000005      55.722500000000004      50.330000000000005
   322   1      10.785000000000005      53.925000000000004      53.925000000000004
   323   1      10.785000000000005      55.722500000000004      55.722500000000004
   324   1      12.582500000000005      53.925000000000004      55.722500000000004
   325   1      12.582500000000005      55.722500000000004      53.925000000000004
   326   1      10.785000000000005      53.925000000000004       57.52000000000001
   327   1      10.785000000000005      55.722500000000004       59.31750000000001
   328   1      12.582500000000005      53.925000000000004       59.31750000000001
   329   1      12.582500000000005      55.722500000000004       57.52000000000001
   330   1      10.785000000000005      53.925000000000004      61.115000000000016
   331   1      10.785000000000005      55.722500000000004      62.912500000000016
   332   1      12.582500000000005      53.925000000000004      62.912500000000016
   333   1      12.582500000000005      55.722500000000004      61.115000000000016
   334   1      10.785000000000005      53.925000000000004      64.710000000000008
   335   1      10.785000000000005      55.722500000000004      66.507500000000007
   336   1      12.582500000000005      53.925000000000004      66.507500000000007
   337   1      12.582500000000005      55.722500000000004      64.710000000000008
   338   1      10.785000000000005      53.925000000000004      68.305000000000007
   339   1      10.785000000000005      55.722500000000004      70.102500000000006
   340   1      12.582500000000005      53.925000000000004      70.102500000000006
   341   1      12.582500000000005      55.722500000000004      68.305000000000007
   342   1      10.785000000000005      53.925000000000004      71.900000000000006
   343   1      12.582500000000005      53.925000000000004      73.697500000000005
   344   1      12.582500000000005      55.722500000000004      71.900000000000006
   345   1      12.582500000000005       57.52000000000001      37.747500000000009
   346   1      10.785000000000005       57.52000000000001      39.545000000000002
   347   1      10.785000000000005       59.31750000000001      41.342500000000008
   348   1      12.582500000000005       57.52000000000001      41.342500000000008
   349   1      12.582500000000005       59.31750000000001      39.545000000000002
   350   1      10.785000000000005       57.52000000000001      43.140000000000001
   351   1      10.785000000000005       59.31750000000001      44.937500000000007
   352   1      12.582500000000005       57.52000000000001      44.937500000000007
   353   1      12.582500000000005       59.31750000000001      43.140000000000001
   354   1      10.785000000000005       57.52000000000001      46.735000000000007
   355   1      10.785000000000005       59.31750000000001      48.532500000000013
   356   1      12.582500000000005       57.52000000000001      48.532500000000013
   357   1      12.582500000000005       59.31750000000001      46.735000000000007
   358   1      10.785000000000005       57.52000000000001      50.330000000000005