model_files/PdCu/PdCu_30000/PdCu_431/PdCu_431_fcc_29685_temp.data (written by ASE) 

29685 	 atoms 
2  atom types
0.0                     107  xlo xhi
0.0                     107  ylo yhi
0.0                     107  zlo zhi


Atoms 

     1   1      1.8874999999999955      47.187499999999986      52.849999999999994
     2   1      106.99999999999999      50.962499999999999      50.962499999999999
     3   1      1.8874999999999955      49.074999999999996      50.962499999999999
     4   1      1.8874999999999955      50.962499999999999      49.074999999999996
     5   1      106.99999999999999      49.074999999999996      52.849999999999994
     6   1      106.99999999999999      50.962499999999999      54.737499999999997
     7   1      1.8874999999999955      49.074999999999996      54.737499999999997
     8   1      1.8874999999999955      50.962499999999999      52.849999999999994
     9   1      1.8874999999999955      50.962499999999999      56.624999999999986
    10   1      1.8874999999999955      52.849999999999994      47.187499999999986
    11   1      106.99999999999999      52.849999999999994      49.074999999999996
    12   1      106.99999999999999      54.737499999999997      50.962499999999999
    13   1      1.8874999999999955      52.849999999999994      50.962499999999999
    14   1      1.8874999999999955      54.737499999999997      49.074999999999996
    15   1      106.99999999999999      52.849999999999994      52.849999999999994
    16   1      106.99999999999999      54.737499999999997      54.737499999999997
    17   1      1.8874999999999955      52.849999999999994      54.737499999999997
    18   1      1.8874999999999955      54.737499999999997      52.849999999999994
    19   1      106.99999999999999      52.849999999999994      56.624999999999986
    20   1      1.8874999999999955      52.849999999999994      58.512499999999989
    21   1      1.8874999999999955      54.737499999999997      56.624999999999986
    22   1      1.8874999999999955      56.624999999999986      50.962499999999999
    23   1      106.99999999999999      56.624999999999986      52.849999999999994
    24   1      1.8874999999999955      56.624999999999986      54.737499999999997
    25   1      1.8874999999999955      58.512499999999989      52.849999999999994
    26   1      5.6624999999999934      43.412499999999987      49.074999999999996
    27   1      5.6624999999999934      43.412499999999987      52.849999999999994
    28   1      5.6624999999999934      43.412499999999987      56.624999999999986
    29   1       3.774999999999991      47.187499999999986      47.187499999999986
    30   1      5.6624999999999934      45.299999999999983      47.187499999999986
    31   1      5.6624999999999934      47.187499999999986      45.299999999999983
    32   1       3.774999999999991      45.299999999999983      49.074999999999996
    33   1       3.774999999999991      47.187499999999986      50.962499999999999
    34   1      5.6624999999999934      45.299999999999983      50.962499999999999
    35   1      5.6624999999999934      47.187499999999986      49.074999999999996
    36   1       3.774999999999991      45.299999999999983      52.849999999999994
    37   1       3.774999999999991      47.187499999999986      54.737499999999997
    38   1      5.6624999999999934      45.299999999999983      54.737499999999997
    39   1      5.6624999999999934      47.187499999999986      52.849999999999994
    40   1       3.774999999999991      45.299999999999983      56.624999999999986
    41   1       3.774999999999991      47.187499999999986      58.512499999999989
    42   1      5.6624999999999934      45.299999999999983      58.512499999999989
    43   1      5.6624999999999934      47.187499999999986      56.624999999999986
    44   1      5.6624999999999934      47.187499999999986      60.399999999999984
    45   1      5.6624999999999934      49.074999999999996      43.412499999999987
    46   1       3.774999999999991      49.074999999999996      45.299999999999983
    47   1       3.774999999999991      50.962499999999999      47.187499999999986
    48   1      5.6624999999999934      49.074999999999996      47.187499999999986
    49   1      5.6624999999999934      50.962499999999999      45.299999999999983
    50   1       3.774999999999991      49.074999999999996      49.074999999999996
    51   1       3.774999999999991      50.962499999999999      50.962499999999999
    52   1      5.6624999999999934      49.074999999999996      50.962499999999999
    53   1      5.6624999999999934      50.962499999999999      49.074999999999996
    54   1       3.774999999999991      49.074999999999996      52.849999999999994
    55   1       3.774999999999991      50.962499999999999      54.737499999999997
    56   1      5.6624999999999934      49.074999999999996      54.737499999999997
    57   1      5.6624999999999934      50.962499999999999      52.849999999999994
    58   1       3.774999999999991      49.074999999999996      56.624999999999986
    59   1       3.774999999999991      50.962499999999999      58.512499999999989
    60   1      5.6624999999999934      49.074999999999996      58.512499999999989
    61   1      5.6624999999999934      50.962499999999999      56.624999999999986
    62   1       3.774999999999991      49.074999999999996      60.399999999999984
    63   1      5.6624999999999934      49.074999999999996      62.287499999999987
    64   1      5.6624999999999934      50.962499999999999      60.399999999999984
    65   1      5.6624999999999934      52.849999999999994      43.412499999999987
    66   1       3.774999999999991      52.849999999999994      45.299999999999983
    67   1       3.774999999999991      54.737499999999997      47.187499999999986
    68   1      5.6624999999999934      52.849999999999994      47.187499999999986
    69   1      5.6624999999999934      54.737499999999997      45.299999999999983
    70   1       3.774999999999991      52.849999999999994      49.074999999999996
    71   1       3.774999999999991      54.737499999999997      50.962499999999999
    72   1      5.6624999999999934      52.849999999999994      50.962499999999999
    73   1      5.6624999999999934      54.737499999999997      49.074999999999996
    74   1       3.774999999999991      52.849999999999994      52.849999999999994
    75   1       3.774999999999991      54.737499999999997      54.737499999999997
    76   1      5.6624999999999934      52.849999999999994      54.737499999999997
    77   1      5.6624999999999934      54.737499999999997      52.849999999999994
    78   1       3.774999999999991      52.849999999999994      56.624999999999986
    79   1       3.774999999999991      54.737499999999997      58.512499999999989
    80   1      5.6624999999999934      52.849999999999994      58.512499999999989
    81   1      5.6624999999999934      54.737499999999997      56.624999999999986
    82   1       3.774999999999991      52.849999999999994      60.399999999999984
    83   1      5.6624999999999934      52.849999999999994      62.287499999999987
    84   1      5.6624999999999934      54.737499999999997      60.399999999999984
    85   1      5.6624999999999934      56.624999999999986      43.412499999999987
    86   1       3.774999999999991      56.624999999999986      45.299999999999983
    87   1       3.774999999999991      58.512499999999989      47.187499999999986
    88   1      5.6624999999999934      56.624999999999986      47.187499999999986
    89   1      5.6624999999999934      58.512499999999989      45.299999999999983
    90   1       3.774999999999991      56.624999999999986      49.074999999999996
    91   1       3.774999999999991      58.512499999999989      50.962499999999999
    92   1      5.6624999999999934      56.624999999999986      50.962499999999999
    93   1      5.6624999999999934      58.512499999999989      49.074999999999996
    94   1       3.774999999999991      56.624999999999986      52.849999999999994
    95   1       3.774999999999991      58.512499999999989      54.737499999999997
    96   1      5.6624999999999934      56.624999999999986      54.737499999999997
    97   1      5.6624999999999934      58.512499999999989      52.849999999999994
    98   1       3.774999999999991      56.624999999999986      56.624999999999986
    99   1       3.774999999999991      58.512499999999989      58.512499999999989
   100   1      5.6624999999999934      56.624999999999986      58.512499999999989
   101   1      5.6624999999999934      58.512499999999989      56.624999999999986
   102   1       3.774999999999991      56.624999999999986      60.399999999999984
   103   1      5.6624999999999934      56.624999999999986      62.287499999999987
   104   1      5.6624999999999934      58.512499999999989      60.399999999999984
   105   1      5.6624999999999934      60.399999999999984      47.187499999999986
   106   1       3.774999999999991      60.399999999999984      49.074999999999996
   107   1      5.6624999999999934      60.399999999999984      50.962499999999999
   108   1      5.6624999999999934      62.287499999999987      49.074999999999996
   109   1       3.774999999999991      60.399999999999984      52.849999999999994
   110   1      5.6624999999999934      60.399999999999984      54.737499999999997
   111   1      5.6624999999999934      62.287499999999987      52.849999999999994
   112   1       3.774999999999991      60.399999999999984      56.624999999999986
   113   1      5.6624999999999934      60.399999999999984      58.512499999999989
   114   1      5.6624999999999934      62.287499999999987      56.624999999999986
   115   1      9.4374999999999929      39.637499999999989      45.299999999999983
   116   1      7.5499999999999972      39.637499999999989      50.962499999999999
   117   1      9.4374999999999929      37.749999999999986      50.962499999999999
   118   1      9.4374999999999929      39.637499999999989      49.074999999999996
   119   1      7.5499999999999972      39.637499999999989      54.737499999999997
   120   1      9.4374999999999929      37.749999999999986      54.737499999999997
   121   1      9.4374999999999929      39.637499999999989      52.849999999999994
   122   1      9.4374999999999929      39.637499999999989      56.624999999999986
   123   1      9.4374999999999929      39.637499999999989      60.399999999999984
   124   1      7.5499999999999972      43.412499999999987      43.412499999999987
   125   1      9.4374999999999929      41.524999999999984      43.412499999999987
   126   1      9.4374999999999929      43.412499999999987      41.524999999999984
   127   1      7.5499999999999972      41.524999999999984      45.299999999999983
   128   1      7.5499999999999972      43.412499999999987      47.187499999999986
   129   1      9.4374999999999929      41.524999999999984      47.187499999999986
   130   1      9.4374999999999929      43.412499999999987      45.299999999999983
   131   1      7.5499999999999972      41.524999999999984      49.074999999999996
   132   1      7.5499999999999972      43.412499999999987      50.962499999999999
   133   1      9.4374999999999929      41.524999999999984      50.962499999999999
   134   1      9.4374999999999929      43.412499999999987      49.074999999999996
   135   1      7.5499999999999972      41.524999999999984      52.849999999999994
   136   1      7.5499999999999972      43.412499999999987      54.737499999999997
   137   1      9.4374999999999929      41.524999999999984      54.737499999999997
   138   1      9.4374999999999929      43.412499999999987      52.849999999999994
   139   1      7.5499999999999972      41.524999999999984      56.624999999999986
   140   1      7.5499999999999972      43.412499999999987      58.512499999999989
   141   1      9.4374999999999929      41.524999999999984      58.512499999999989
   142   1      9.4374999999999929      43.412499999999987      56.624999999999986
   143   1      7.5499999999999972      41.524999999999984      60.399999999999984
   144   1      7.5499999999999972      43.412499999999987      62.287499999999987
   145   1      9.4374999999999929      41.524999999999984      62.287499999999987
   146   1      9.4374999999999929      43.412499999999987      60.399999999999984
   147   1      9.4374999999999929      43.412499999999987      64.174999999999997
   148   1      9.4374999999999929      45.299999999999983      39.637499999999989
   149   1      7.5499999999999972      45.299999999999983      41.524999999999984
   150   1      7.5499999999999972      47.187499999999986      43.412499999999987
   151   1      9.4374999999999929      45.299999999999983      43.412499999999987
   152   1      9.4374999999999929      47.187499999999986      41.524999999999984
   153   1      7.5499999999999972      45.299999999999983      45.299999999999983
   154   1      7.5499999999999972      47.187499999999986      47.187499999999986
   155   1      9.4374999999999929      45.299999999999983      47.187499999999986
   156   1      9.4374999999999929      47.187499999999986      45.299999999999983
   157   1      7.5499999999999972      45.299999999999983      49.074999999999996
   158   1      7.5499999999999972      47.187499999999986      50.962499999999999
   159   1      9.4374999999999929      45.299999999999983      50.962499999999999
   160   1      9.4374999999999929      47.187499999999986      49.074999999999996
   161   1      7.5499999999999972      45.299999999999983      52.849999999999994
   162   1      7.5499999999999972      47.187499999999986      54.737499999999997
   163   1      9.4374999999999929      45.299999999999983      54.737499999999997
   164   1      9.4374999999999929      47.187499999999986      52.849999999999994
   165   1      7.5499999999999972      45.299999999999983      56.624999999999986
   166   1      7.5499999999999972      47.187499999999986      58.512499999999989
   167   1      9.4374999999999929      45.299999999999983      58.512499999999989
   168   1      9.4374999999999929      47.187499999999986      56.624999999999986
   169   1      7.5499999999999972      45.299999999999983      60.399999999999984
   170   1      7.5499999999999972      47.187499999999986      62.287499999999987
   171   1      9.4374999999999929      45.299999999999983      62.287499999999987
   172   1      9.4374999999999929      47.187499999999986      60.399999999999984
   173   1      7.5499999999999972      45.299999999999983      64.174999999999997
   174   1      9.4374999999999929      45.299999999999983                 66.0625
   175   1      9.4374999999999929      47.187499999999986      64.174999999999997
   176   1      7.5499999999999972      50.962499999999999      39.637499999999989
   177   1      9.4374999999999929      49.074999999999996      39.637499999999989
   178   1      9.4374999999999929      50.962499999999999      37.749999999999986
   179   1      7.5499999999999972      49.074999999999996      41.524999999999984
   180   1      7.5499999999999972      50.962499999999999      43.412499999999987
   181   1      9.4374999999999929      49.074999999999996      43.412499999999987
   182   1      9.4374999999999929      50.962499999999999      41.524999999999984
   183   1      7.5499999999999972      49.074999999999996      45.299999999999983
   184   1      7.5499999999999972      50.962499999999999      47.187499999999986
   185   1      9.4374999999999929      49.074999999999996      47.187499999999986
   186   1      9.4374999999999929      50.962499999999999      45.299999999999983
   187   1      7.5499999999999972      49.074999999999996      49.074999999999996
   188   1      7.5499999999999972      50.962499999999999      50.962499999999999
   189   1      9.4374999999999929      49.074999999999996      50.962499999999999
   190   1      9.4374999999999929      50.962499999999999      49.074999999999996
   191   1      7.5499999999999972      49.074999999999996      52.849999999999994
   192   1      7.5499999999999972      50.962499999999999      54.737499999999997
   193   1      9.4374999999999929      49.074999999999996      54.737499999999997
   194   1      9.4374999999999929      50.962499999999999      52.849999999999994
   195   1      7.5499999999999972      49.074999999999996      56.624999999999986
   196   1      7.5499999999999972      50.962499999999999      58.512499999999989
   197   1      9.4374999999999929      49.074999999999996      58.512499999999989
   198   1      9.4374999999999929      50.962499999999999      56.624999999999986
   199   1      7.5499999999999972      49.074999999999996      60.399999999999984
   200   1      7.5499999999999972      50.962499999999999      62.287499999999987
   201   1      9.4374999999999929      49.074999999999996      62.287499999999987
   202   1      9.4374999999999929      50.962499999999999      60.399999999999984
   203   1      7.5499999999999972      49.074999999999996      64.174999999999997
   204   1      7.5499999999999972      50.962499999999999                 66.0625
   205   1      9.4374999999999929      49.074999999999996                 66.0625
   206   1      9.4374999999999929      50.962499999999999      64.174999999999997
   207   1      9.4374999999999929      50.962499999999999      67.949999999999989
   208   1      7.5499999999999972      54.737499999999997      39.637499999999989
   209   1      9.4374999999999929      52.849999999999994      39.637499999999989
   210   1      9.4374999999999929      54.737499999999997      37.749999999999986
   211   1      7.5499999999999972      52.849999999999994      41.524999999999984
   212   1      7.5499999999999972      54.737499999999997      43.412499999999987
   213   1      9.4374999999999929      52.849999999999994      43.412499999999987
   214   1      9.4374999999999929      54.737499999999997      41.524999999999984
   215   1      7.5499999999999972      52.849999999999994      45.299999999999983
   216   1      7.5499999999999972      54.737499999999997      47.187499999999986
   217   1      9.4374999999999929      52.849999999999994      47.187499999999986
   218   1      9.4374999999999929      54.737499999999997      45.299999999999983
   219   1      7.5499999999999972      52.849999999999994      49.074999999999996
   220   1      7.5499999999999972      54.737499999999997      50.962499999999999
   221   1      9.4374999999999929      52.849999999999994      50.962499999999999
   222   1      9.4374999999999929      54.737499999999997      49.074999999999996
   223   1      7.5499999999999972      52.849999999999994      52.849999999999994
   224   1      7.5499999999999972      54.737499999999997      54.737499999999997
   225   1      9.4374999999999929      52.849999999999994      54.737499999999997
   226   1      9.4374999999999929      54.737499999999997      52.849999999999994
   227   1      7.5499999999999972      52.849999999999994      56.624999999999986
   228   1      7.5499999999999972      54.737499999999997      58.512499999999989
   229   1      9.4374999999999929      52.849999999999994      58.512499999999989
   230   1      9.4374999999999929      54.737499999999997      56.624999999999986
   231   1      7.5499999999999972      52.849999999999994      60.399999999999984
   232   1      7.5499999999999972      54.737499999999997      62.287499999999987
   233   1      9.4374999999999929      52.849999999999994      62.287499999999987
   234   1      9.4374999999999929      54.737499999999997      60.399999999999984
   235   1      7.5499999999999972      52.849999999999994      64.174999999999997
   236   1      7.5499999999999972      54.737499999999997                 66.0625
   237   1      9.4374999999999929      52.849999999999994                 66.0625
   238   1      9.4374999999999929      54.737499999999997      64.174999999999997
   239   1      9.4374999999999929      54.737499999999997      67.949999999999989
   240   1      9.4374999999999929      56.624999999999986      39.637499999999989
   241   1      7.5499999999999972      56.624999999999986      41.524999999999984
   242   1      7.5499999999999972      58.512499999999989      43.412499999999987
   243   1      9.4374999999999929      56.624999999999986      43.412499999999987
   244   1      9.4374999999999929      58.512499999999989      41.524999999999984
   245   1      7.5499999999999972      56.624999999999986      45.299999999999983
   246   1      7.5499999999999972      58.512499999999989      47.187499999999986
   247   1      9.4374999999999929      56.624999999999986      47.187499999999986
   248   1      9.4374999999999929      58.512499999999989      45.299999999999983
   249   1      7.5499999999999972      56.624999999999986      49.074999999999996
   250   1      7.5499999999999972      58.512499999999989      50.962499999999999
   251   1      9.4374999999999929      56.624999999999986      50.962499999999999
   252   1      9.4374999999999929      58.512499999999989      49.074999999999996
   253   1      7.5499999999999972      56.624999999999986      52.849999999999994
   254   1      7.5499999999999972      58.512499999999989      54.737499999999997
   255   1      9.4374999999999929      56.624999999999986      54.737499999999997
   256   1      9.4374999999999929      58.512499999999989      52.849999999999994
   257   1      7.5499999999999972      56.624999999999986      56.624999999999986
   258   1      7.5499999999999972      58.512499999999989      58.512499999999989
   259   1      9.4374999999999929      56.624999999999986      58.512499999999989
   260   1      9.4374999999999929      58.512499999999989      56.624999999999986
   261   1      7.5499999999999972      56.624999999999986      60.399999999999984
   262   1      7.5499999999999972      58.512499999999989      62.287499999999987
   263   1      9.4374999999999929      56.624999999999986      62.287499999999987
   264   1      9.4374999999999929      58.512499999999989      60.399999999999984
   265   1      7.5499999999999972      56.624999999999986      64.174999999999997
   266   1      9.4374999999999929      56.624999999999986                 66.0625
   267   1      9.4374999999999929      58.512499999999989      64.174999999999997
   268   1      9.4374999999999929      60.399999999999984      39.637499999999989
   269   1      7.5499999999999972      60.399999999999984      41.524999999999984
   270   1      7.5499999999999972      62.287499999999987      43.412499999999987
   271   1      9.4374999999999929      60.399999999999984      43.412499999999987
   272   1      9.4374999999999929      62.287499999999987      41.524999999999984
   273   1      7.5499999999999972      60.399999999999984      45.299999999999983
   274   1      7.5499999999999972      62.287499999999987      47.187499999999986
   275   1      9.4374999999999929      60.399999999999984      47.187499999999986
   276   1      9.4374999999999929      62.287499999999987      45.299999999999983
   277   1      7.5499999999999972      60.399999999999984      49.074999999999996
   278   1      7.5499999999999972      62.287499999999987      50.962499999999999
   279   1      9.4374999999999929      60.399999999999984      50.962499999999999
   280   1      9.4374999999999929      62.287499999999987      49.074999999999996
   281   1      7.5499999999999972      60.399999999999984      52.849999999999994
   282   1      7.5499999999999972      62.287499999999987      54.737499999999997
   283   1      9.4374999999999929      60.399999999999984      54.737499999999997
   284   1      9.4374999999999929      62.287499999999987      52.849999999999994
   285   1      7.5499999999999972      60.399999999999984      56.624999999999986
   286   1      7.5499999999999972      62.287499999999987      58.512499999999989
   287   1      9.4374999999999929      60.399999999999984      58.512499999999989
   288   1      9.4374999999999929      62.287499999999987      56.624999999999986
   289   1      7.5499999999999972      60.399999999999984      60.399999999999984
   290   1      7.5499999999999972      62.287499999999987      62.287499999999987
   291   1      9.4374999999999929      60.399999999999984      62.287499999999987
   292   1      9.4374999999999929      62.287499999999987      60.399999999999984
   293   1      7.5499999999999972      60.399999999999984      64.174999999999997
   294   1      9.4374999999999929      60.399999999999984                 66.0625
   295   1      9.4374999999999929      62.287499999999987      64.174999999999997
   296   1      9.4374999999999929      64.174999999999997      43.412499999999987
   297   1      7.5499999999999972      64.174999999999997      45.299999999999983
   298   1      9.4374999999999929      64.174999999999997      47.187499999999986
   299   1      9.4374999999999929                 66.0625      45.299999999999983
   300   1      7.5499999999999972      64.174999999999997      49.074999999999996
   301   1      7.5499999999999972                 66.0625      50.962499999999999
   302   1      9.4374999999999929      64.174999999999997      50.962499999999999
   303   1      9.4374999999999929                 66.0625      49.074999999999996
   304   1      7.5499999999999972      64.174999999999997      52.849999999999994
   305   1      7.5499999999999972                 66.0625      54.737499999999997
   306   1      9.4374999999999929      64.174999999999997      54.737499999999997
   307   1      9.4374999999999929                 66.0625      52.849999999999994
   308   1      7.5499999999999972      64.174999999999997      56.624999999999986
   309   1      9.4374999999999929      64.174999999999997      58.512499999999989
   310   1      9.4374999999999929                 66.0625      56.624999999999986
   311   1      7.5499999999999972      64.174999999999997      60.399999999999984
   312   1      9.4374999999999929      64.174999999999997      62.287499999999987
   313   1      9.4374999999999929                 66.0625      60.399999999999984
   314   1      9.4374999999999929      67.949999999999989      50.962499999999999
   315   1      9.4374999999999929      67.949999999999989      54.737499999999997
   316   1      13.212499999999991      32.087499999999999      52.849999999999994
   317   1      13.212499999999991       35.86249999999999      41.524999999999984
   318   1      11.324999999999994       35.86249999999999      47.187499999999986
   319   1      13.212499999999991      33.974999999999994      47.187499999999986
   320   1      13.212499999999991       35.86249999999999      45.299999999999983
   321   1      11.324999999999994       35.86249999999999      50.962499999999999
   322   1      13.212499999999991      33.974999999999994      50.962499999999999
   323   1      13.212499999999991       35.86249999999999      49.074999999999996
   324   1      11.324999999999994      33.974999999999994      52.849999999999994
   325   1      11.324999999999994       35.86249999999999      54.737499999999997
   326   1      13.212499999999991      33.974999999999994      54.737499999999997
   327   1      13.212499999999991       35.86249999999999      52.849999999999994
   328   1      11.324999999999994       35.86249999999999      58.512499999999989
   329   1      13.212499999999991      33.974999999999994      58.512499999999989
   330   1      13.212499999999991       35.86249999999999      56.624999999999986
   331   1      13.212499999999991       35.86249999999999      60.399999999999984
   332   1      13.212499999999991       35.86249999999999      64.174999999999997
   333   1      11.324999999999994      39.637499999999989      39.637499999999989
   334   1      13.212499999999991      37.749999999999986      39.637499999999989
   335   1      13.212499999999991      39.637499999999989      37.749999999999986
   336   1      11.324999999999994      37.749999999999986      41.524999999999984
   337   1      11.324999999999994      39.637499999999989      43.412499999999987
   338   1      13.212499999999991      37.749999999999986      43.412499999999987
   339   1      13.212499999999991      39.637499999999989      41.524999999999984
   340   1      11.324999999999994      37.749999999999986      45.299999999999983
   341   1      11.324999999999994      39.637499999999989      47.187499999999986
   342   1      13.212499999999991      37.749999999999986      47.187499999999986
   343   1      13.212499999999991      39.637499999999989      45.299999999999983
   344   1      11.324999999999994      37.749999999999986      49.074999999999996
   345   1      11.324999999999994      39.637499999999989      50.962499999999999
   346   1      13.212499999999991      37.749999999999986      50.962499999999999
   347   1      13.212499999999991      39.637499999999989      49.074999999999996
   348   1      11.324999999999994      37.749999999999986      52.849999999999994
   349   1      11.324999999999994      39.637499999999989      54.737499999999997
   350   1      13.212499999999991      37.749999999999986      54.737499999999997
   351   1      13.212499999999991      39.637499999999989      52.849999999999994
   352   1      11.324999999999994      37.749999999999986      56.624999999999986
   353   1      11.324999999999994      39.637499999999989      58.512499999999989
   354   1      13.212499999999991      37.749999999999986      58.512499999999989
   355   1      13.212499999999991      39.637499999999989      56.624999999999986
   356   1      11.324999999999994      37.749999999999986      60.399999999999984
   357   1      11.324999999999994      39.637499999999989      62.287499999999987
   358   1      13.212499999999991      37.749999999999986      62.287499999999987