model_files/PdNi/PdNi_30000/PdNi_511/PdNi_511_fcc_30527_temp.data (written by ASE) 

30527 	 atoms 
2  atom types
0.0                      87  xlo xhi
0.0                      87  ylo yhi
0.0                      87  zlo zhi


Atoms 

     1   1      86.999999999999986      40.974999999999987      42.837499999999991
     2   1      86.999999999999986      42.837499999999991      40.974999999999987
     3   1      86.999999999999986      42.837499999999991      44.699999999999996
     4   1      86.999999999999986      44.699999999999996      42.837499999999991
     5   1      3.7249999999999872      22.349999999999991      42.837499999999991
     6   1      3.7249999999999872      24.212499999999988      40.974999999999987
     7   1      3.7249999999999872      26.074999999999989       39.11249999999999
     8   1      3.7249999999999872      24.212499999999988      44.699999999999996
     9   1      3.7249999999999872      26.074999999999989      42.837499999999991
    10   1      3.7249999999999872      26.074999999999989      46.562499999999993
    11   1      3.7249999999999872      27.937499999999986      37.249999999999986
    12   1      3.7249999999999872       29.79999999999999      35.387499999999989
    13   1      3.7249999999999872      27.937499999999986      40.974999999999987
    14   1      3.7249999999999872       29.79999999999999       39.11249999999999
    15   1      3.7249999999999872      27.937499999999986      44.699999999999996
    16   1      3.7249999999999872       29.79999999999999      42.837499999999991
    17   1      3.7249999999999872      27.937499999999986      48.424999999999983
    18   1      3.7249999999999872       29.79999999999999      46.562499999999993
    19   1      3.7249999999999872       29.79999999999999      50.287499999999987
    20   1      3.7249999999999872      31.662499999999987      33.524999999999984
    21   1      3.7249999999999872      33.524999999999984      31.662499999999987
    22   1      3.7249999999999872      31.662499999999987      37.249999999999986
    23   1      3.7249999999999872      33.524999999999984      35.387499999999989
    24   1      1.8624999999999898      33.524999999999984      40.974999999999987
    25   1      3.7249999999999872      31.662499999999987      40.974999999999987
    26   1      3.7249999999999872      33.524999999999984       39.11249999999999
    27   1      1.8624999999999898      31.662499999999987      42.837499999999991
    28   1      1.8624999999999898      33.524999999999984      44.699999999999996
    29   1      3.7249999999999872      31.662499999999987      44.699999999999996
    30   1      3.7249999999999872      33.524999999999984      42.837499999999991
    31   1      3.7249999999999872      31.662499999999987      48.424999999999983
    32   1      3.7249999999999872      33.524999999999984      46.562499999999993
    33   1      3.7249999999999872      31.662499999999987      52.149999999999977
    34   1      3.7249999999999872      33.524999999999984      50.287499999999987
    35   1      3.7249999999999872      33.524999999999984      54.012499999999989
    36   1      3.7249999999999872      35.387499999999989       29.79999999999999
    37   1      3.7249999999999872      37.249999999999986      27.937499999999986
    38   1      3.7249999999999872      35.387499999999989      33.524999999999984
    39   1      3.7249999999999872      37.249999999999986      31.662499999999987
    40   1      1.8624999999999898      37.249999999999986      37.249999999999986
    41   1      3.7249999999999872      35.387499999999989      37.249999999999986
    42   1      3.7249999999999872      37.249999999999986      35.387499999999989
    43   1      1.8624999999999898      35.387499999999989       39.11249999999999
    44   1      1.8624999999999898      37.249999999999986      40.974999999999987
    45   1      3.7249999999999872      35.387499999999989      40.974999999999987
    46   1      3.7249999999999872      37.249999999999986       39.11249999999999
    47   1      1.8624999999999898      35.387499999999989      42.837499999999991
    48   1      1.8624999999999898      37.249999999999986      44.699999999999996
    49   1      3.7249999999999872      35.387499999999989      44.699999999999996
    50   1      3.7249999999999872      37.249999999999986      42.837499999999991
    51   1      1.8624999999999898      35.387499999999989      46.562499999999993
    52   1      1.8624999999999898      37.249999999999986      48.424999999999983
    53   1      3.7249999999999872      35.387499999999989      48.424999999999983
    54   1      3.7249999999999872      37.249999999999986      46.562499999999993
    55   1      3.7249999999999872      35.387499999999989      52.149999999999977
    56   1      3.7249999999999872      37.249999999999986      50.287499999999987
    57   1      3.7249999999999872      35.387499999999989      55.874999999999986
    58   1      3.7249999999999872      37.249999999999986      54.012499999999989
    59   1      3.7249999999999872      37.249999999999986      57.737499999999983
    60   1      3.7249999999999872       39.11249999999999      26.074999999999989
    61   1      3.7249999999999872      40.974999999999987      24.212499999999988
    62   1      3.7249999999999872       39.11249999999999       29.79999999999999
    63   1      3.7249999999999872      40.974999999999987      27.937499999999986
    64   1      1.8624999999999898      40.974999999999987      33.524999999999984
    65   1      3.7249999999999872       39.11249999999999      33.524999999999984
    66   1      3.7249999999999872      40.974999999999987      31.662499999999987
    67   1      1.8624999999999898       39.11249999999999      35.387499999999989
    68   1      1.8624999999999898      40.974999999999987      37.249999999999986
    69   1      3.7249999999999872       39.11249999999999      37.249999999999986
    70   1      3.7249999999999872      40.974999999999987      35.387499999999989
    71   1      1.8624999999999898       39.11249999999999       39.11249999999999
    72   1      1.8624999999999898      40.974999999999987      40.974999999999987
    73   1      3.7249999999999872       39.11249999999999      40.974999999999987
    74   1      3.7249999999999872      40.974999999999987       39.11249999999999
    75   1      1.8624999999999898       39.11249999999999      42.837499999999991
    76   1      1.8624999999999898      40.974999999999987      44.699999999999996
    77   1      3.7249999999999872       39.11249999999999      44.699999999999996
    78   1      3.7249999999999872      40.974999999999987      42.837499999999991
    79   1      1.8624999999999898       39.11249999999999      46.562499999999993
    80   1      1.8624999999999898      40.974999999999987      48.424999999999983
    81   1      3.7249999999999872       39.11249999999999      48.424999999999983
    82   1      3.7249999999999872      40.974999999999987      46.562499999999993
    83   1      1.8624999999999898       39.11249999999999      50.287499999999987
    84   1      1.8624999999999898      40.974999999999987      52.149999999999977
    85   1      3.7249999999999872       39.11249999999999      52.149999999999977
    86   1      3.7249999999999872      40.974999999999987      50.287499999999987
    87   1      3.7249999999999872       39.11249999999999      55.874999999999986
    88   1      3.7249999999999872      40.974999999999987      54.012499999999989
    89   1      3.7249999999999872       39.11249999999999      59.599999999999987
    90   1      3.7249999999999872      40.974999999999987      57.737499999999983
    91   1      3.7249999999999872      40.974999999999987      61.462499999999991
    92   1      3.7249999999999872      42.837499999999991      22.349999999999991
    93   1      3.7249999999999872      42.837499999999991      26.074999999999989
    94   1      3.7249999999999872      44.699999999999996      24.212499999999988
    95   1      3.7249999999999872      42.837499999999991       29.79999999999999
    96   1      3.7249999999999872      44.699999999999996      27.937499999999986
    97   1      1.8624999999999898      42.837499999999991      31.662499999999987
    98   1      1.8624999999999898      44.699999999999996      33.524999999999984
    99   1      3.7249999999999872      42.837499999999991      33.524999999999984
   100   1      3.7249999999999872      44.699999999999996      31.662499999999987
   101   1      1.8624999999999898      42.837499999999991      35.387499999999989
   102   1      1.8624999999999898      44.699999999999996      37.249999999999986
   103   1      3.7249999999999872      42.837499999999991      37.249999999999986
   104   1      3.7249999999999872      44.699999999999996      35.387499999999989
   105   1      1.8624999999999898      42.837499999999991       39.11249999999999
   106   1      1.8624999999999898      44.699999999999996      40.974999999999987
   107   1      3.7249999999999872      42.837499999999991      40.974999999999987
   108   1      3.7249999999999872      44.699999999999996       39.11249999999999
   109   1      1.8624999999999898      42.837499999999991      42.837499999999991
   110   1      1.8624999999999898      44.699999999999996      44.699999999999996
   111   1      3.7249999999999872      42.837499999999991      44.699999999999996
   112   1      3.7249999999999872      44.699999999999996      42.837499999999991
   113   1      1.8624999999999898      42.837499999999991      46.562499999999993
   114   1      1.8624999999999898      44.699999999999996      48.424999999999983
   115   1      3.7249999999999872      42.837499999999991      48.424999999999983
   116   1      3.7249999999999872      44.699999999999996      46.562499999999993
   117   1      1.8624999999999898      42.837499999999991      50.287499999999987
   118   1      1.8624999999999898      44.699999999999996      52.149999999999977
   119   1      3.7249999999999872      42.837499999999991      52.149999999999977
   120   1      3.7249999999999872      44.699999999999996      50.287499999999987
   121   1      1.8624999999999898      42.837499999999991      54.012499999999989
   122   1      3.7249999999999872      42.837499999999991      55.874999999999986
   123   1      3.7249999999999872      44.699999999999996      54.012499999999989
   124   1      3.7249999999999872      42.837499999999991      59.599999999999987
   125   1      3.7249999999999872      44.699999999999996      57.737499999999983
   126   1      3.7249999999999872      42.837499999999991      63.324999999999989
   127   1      3.7249999999999872      44.699999999999996      61.462499999999991
   128   1      3.7249999999999872      46.562499999999993      26.074999999999989
   129   1      3.7249999999999872      46.562499999999993       29.79999999999999
   130   1      3.7249999999999872      48.424999999999983      27.937499999999986
   131   1      3.7249999999999872      46.562499999999993      33.524999999999984
   132   1      3.7249999999999872      48.424999999999983      31.662499999999987
   133   1      1.8624999999999898      46.562499999999993      35.387499999999989
   134   1      1.8624999999999898      48.424999999999983      37.249999999999986
   135   1      3.7249999999999872      46.562499999999993      37.249999999999986
   136   1      3.7249999999999872      48.424999999999983      35.387499999999989
   137   1      1.8624999999999898      46.562499999999993       39.11249999999999
   138   1      1.8624999999999898      48.424999999999983      40.974999999999987
   139   1      3.7249999999999872      46.562499999999993      40.974999999999987
   140   1      3.7249999999999872      48.424999999999983       39.11249999999999
   141   1      1.8624999999999898      46.562499999999993      42.837499999999991
   142   1      1.8624999999999898      48.424999999999983      44.699999999999996
   143   1      3.7249999999999872      46.562499999999993      44.699999999999996
   144   1      3.7249999999999872      48.424999999999983      42.837499999999991
   145   1      1.8624999999999898      46.562499999999993      46.562499999999993
   146   1      1.8624999999999898      48.424999999999983      48.424999999999983
   147   1      3.7249999999999872      46.562499999999993      48.424999999999983
   148   1      3.7249999999999872      48.424999999999983      46.562499999999993
   149   1      1.8624999999999898      46.562499999999993      50.287499999999987
   150   1      3.7249999999999872      46.562499999999993      52.149999999999977
   151   1      3.7249999999999872      48.424999999999983      50.287499999999987
   152   1      3.7249999999999872      46.562499999999993      55.874999999999986
   153   1      3.7249999999999872      48.424999999999983      54.012499999999989
   154   1      3.7249999999999872      46.562499999999993      59.599999999999987
   155   1      3.7249999999999872      48.424999999999983      57.737499999999983
   156   1      3.7249999999999872      50.287499999999987       29.79999999999999
   157   1      3.7249999999999872      50.287499999999987      33.524999999999984
   158   1      3.7249999999999872      52.149999999999977      31.662499999999987
   159   1      3.7249999999999872      50.287499999999987      37.249999999999986
   160   1      3.7249999999999872      52.149999999999977      35.387499999999989
   161   1      1.8624999999999898      50.287499999999987       39.11249999999999
   162   1      1.8624999999999898      52.149999999999977      40.974999999999987
   163   1      3.7249999999999872      50.287499999999987      40.974999999999987
   164   1      3.7249999999999872      52.149999999999977       39.11249999999999
   165   1      1.8624999999999898      50.287499999999987      42.837499999999991
   166   1      1.8624999999999898      52.149999999999977      44.699999999999996
   167   1      3.7249999999999872      50.287499999999987      44.699999999999996
   168   1      3.7249999999999872      52.149999999999977      42.837499999999991
   169   1      1.8624999999999898      50.287499999999987      46.562499999999993
   170   1      3.7249999999999872      50.287499999999987      48.424999999999983
   171   1      3.7249999999999872      52.149999999999977      46.562499999999993
   172   1      3.7249999999999872      50.287499999999987      52.149999999999977
   173   1      3.7249999999999872      52.149999999999977      50.287499999999987
   174   1      3.7249999999999872      50.287499999999987      55.874999999999986
   175   1      3.7249999999999872      52.149999999999977      54.012499999999989
   176   1      3.7249999999999872      54.012499999999989      33.524999999999984
   177   1      3.7249999999999872      54.012499999999989      37.249999999999986
   178   1      3.7249999999999872      55.874999999999986      35.387499999999989
   179   1      3.7249999999999872      54.012499999999989      40.974999999999987
   180   1      3.7249999999999872      55.874999999999986       39.11249999999999
   181   1      1.8624999999999898      54.012499999999989      42.837499999999991
   182   1      3.7249999999999872      54.012499999999989      44.699999999999996
   183   1      3.7249999999999872      55.874999999999986      42.837499999999991
   184   1      3.7249999999999872      54.012499999999989      48.424999999999983
   185   1      3.7249999999999872      55.874999999999986      46.562499999999993
   186   1      3.7249999999999872      54.012499999999989      52.149999999999977
   187   1      3.7249999999999872      55.874999999999986      50.287499999999987
   188   1      3.7249999999999872      57.737499999999983      37.249999999999986
   189   1      3.7249999999999872      57.737499999999983      40.974999999999987
   190   1      3.7249999999999872      59.599999999999987       39.11249999999999
   191   1      3.7249999999999872      57.737499999999983      44.699999999999996
   192   1      3.7249999999999872      59.599999999999987      42.837499999999991
   193   1      3.7249999999999872      57.737499999999983      48.424999999999983
   194   1      3.7249999999999872      59.599999999999987      46.562499999999993
   195   1      3.7249999999999872      61.462499999999991      40.974999999999987
   196   1      3.7249999999999872      61.462499999999991      44.699999999999996
   197   1      3.7249999999999872      63.324999999999989      42.837499999999991
   198   1      7.4499999999999886      7.4499999999999886       39.11249999999999
   199   1      7.4499999999999886      7.4499999999999886      42.837499999999991
   200   1      7.4499999999999886      7.4499999999999886      46.562499999999993
   201   1      7.4499999999999886      9.3124999999999858      37.249999999999986
   202   1      7.4499999999999886       11.17499999999999      35.387499999999989
   203   1      7.4499999999999886      9.3124999999999858      40.974999999999987
   204   1      7.4499999999999886       11.17499999999999       39.11249999999999
   205   1      7.4499999999999886      9.3124999999999858      44.699999999999996
   206   1      7.4499999999999886       11.17499999999999      42.837499999999991
   207   1      7.4499999999999886      9.3124999999999858      48.424999999999983
   208   1      7.4499999999999886       11.17499999999999      46.562499999999993
   209   1      7.4499999999999886       11.17499999999999      50.287499999999987
   210   1      7.4499999999999886      13.037499999999987      33.524999999999984
   211   1      7.4499999999999886      14.899999999999988      31.662499999999987
   212   1      7.4499999999999886      13.037499999999987      37.249999999999986
   213   1      7.4499999999999886      14.899999999999988      35.387499999999989
   214   1      5.5874999999999915      14.899999999999988      40.974999999999987
   215   1      7.4499999999999886      13.037499999999987      40.974999999999987
   216   1      7.4499999999999886      14.899999999999988       39.11249999999999
   217   1      5.5874999999999915      13.037499999999987      42.837499999999991
   218   1      5.5874999999999915      14.899999999999988      44.699999999999996
   219   1      7.4499999999999886      13.037499999999987      44.699999999999996
   220   1      7.4499999999999886      14.899999999999988      42.837499999999991
   221   1      7.4499999999999886      13.037499999999987      48.424999999999983
   222   1      7.4499999999999886      14.899999999999988      46.562499999999993
   223   1      7.4499999999999886      13.037499999999987      52.149999999999977
   224   1      7.4499999999999886      14.899999999999988      50.287499999999987
   225   1      7.4499999999999886      14.899999999999988      54.012499999999989
   226   1      7.4499999999999886      16.762499999999989       29.79999999999999
   227   1      7.4499999999999886      18.624999999999989      27.937499999999986
   228   1      7.4499999999999886      16.762499999999989      33.524999999999984
   229   1      7.4499999999999886      18.624999999999989      31.662499999999987
   230   1      5.5874999999999915      18.624999999999989      37.249999999999986
   231   1      7.4499999999999886      16.762499999999989      37.249999999999986
   232   1      7.4499999999999886      18.624999999999989      35.387499999999989
   233   1      5.5874999999999915      16.762499999999989       39.11249999999999
   234   1      5.5874999999999915      18.624999999999989      40.974999999999987
   235   1      7.4499999999999886      16.762499999999989      40.974999999999987
   236   1      7.4499999999999886      18.624999999999989       39.11249999999999
   237   1      5.5874999999999915      16.762499999999989      42.837499999999991
   238   1      5.5874999999999915      18.624999999999989      44.699999999999996
   239   1      7.4499999999999886      16.762499999999989      44.699999999999996
   240   1      7.4499999999999886      18.624999999999989      42.837499999999991
   241   1      5.5874999999999915      16.762499999999989      46.562499999999993
   242   1      5.5874999999999915      18.624999999999989      48.424999999999983
   243   1      7.4499999999999886      16.762499999999989      48.424999999999983
   244   1      7.4499999999999886      18.624999999999989      46.562499999999993
   245   1      7.4499999999999886      16.762499999999989      52.149999999999977
   246   1      7.4499999999999886      18.624999999999989      50.287499999999987
   247   1      7.4499999999999886      16.762499999999989      55.874999999999986
   248   1      7.4499999999999886      18.624999999999989      54.012499999999989
   249   1      7.4499999999999886      18.624999999999989      57.737499999999983
   250   1      7.4499999999999886       20.48749999999999      26.074999999999989
   251   1      7.4499999999999886      22.349999999999991      24.212499999999988
   252   1      7.4499999999999886       20.48749999999999       29.79999999999999
   253   1      7.4499999999999886      22.349999999999991      27.937499999999986
   254   1      5.5874999999999915      22.349999999999991      33.524999999999984
   255   1      7.4499999999999886       20.48749999999999      33.524999999999984
   256   1      7.4499999999999886      22.349999999999991      31.662499999999987
   257   1      5.5874999999999915       20.48749999999999      35.387499999999989
   258   1      5.5874999999999915      22.349999999999991      37.249999999999986
   259   1      7.4499999999999886       20.48749999999999      37.249999999999986
   260   1      7.4499999999999886      22.349999999999991      35.387499999999989
   261   1      5.5874999999999915       20.48749999999999       39.11249999999999
   262   1      5.5874999999999915      22.349999999999991      40.974999999999987
   263   1      7.4499999999999886       20.48749999999999      40.974999999999987
   264   1      7.4499999999999886      22.349999999999991       39.11249999999999
   265   1      5.5874999999999915       20.48749999999999      42.837499999999991
   266   1      5.5874999999999915      22.349999999999991      44.699999999999996
   267   1      7.4499999999999886       20.48749999999999      44.699999999999996
   268   1      7.4499999999999886      22.349999999999991      42.837499999999991
   269   1      5.5874999999999915       20.48749999999999      46.562499999999993
   270   1      5.5874999999999915      22.349999999999991      48.424999999999983
   271   1      7.4499999999999886       20.48749999999999      48.424999999999983
   272   1      7.4499999999999886      22.349999999999991      46.562499999999993
   273   1      5.5874999999999915       20.48749999999999      50.287499999999987
   274   1      5.5874999999999915      22.349999999999991      52.149999999999977
   275   1      7.4499999999999886       20.48749999999999      52.149999999999977
   276   1      7.4499999999999886      22.349999999999991      50.287499999999987
   277   1      7.4499999999999886       20.48749999999999      55.874999999999986
   278   1      7.4499999999999886      22.349999999999991      54.012499999999989
   279   1      7.4499999999999886       20.48749999999999      59.599999999999987
   280   1      7.4499999999999886      22.349999999999991      57.737499999999983
   281   1      7.4499999999999886      22.349999999999991      61.462499999999991
   282   1      7.4499999999999886      24.212499999999988      22.349999999999991
   283   1      7.4499999999999886      26.074999999999989       20.48749999999999
   284   1      7.4499999999999886      24.212499999999988      26.074999999999989
   285   1      7.4499999999999886      26.074999999999989      24.212499999999988
   286   1      5.5874999999999915      26.074999999999989       29.79999999999999
   287   1      7.4499999999999886      24.212499999999988       29.79999999999999
   288   1      7.4499999999999886      26.074999999999989      27.937499999999986
   289   1      5.5874999999999915      24.212499999999988      31.662499999999987
   290   1      5.5874999999999915      26.074999999999989      33.524999999999984
   291   1      7.4499999999999886      24.212499999999988      33.524999999999984
   292   1      7.4499999999999886      26.074999999999989      31.662499999999987
   293   1      5.5874999999999915      24.212499999999988      35.387499999999989
   294   1      5.5874999999999915      26.074999999999989      37.249999999999986
   295   1      7.4499999999999886      24.212499999999988      37.249999999999986
   296   1      7.4499999999999886      26.074999999999989      35.387499999999989
   297   1      5.5874999999999915      24.212499999999988       39.11249999999999
   298   1      5.5874999999999915      26.074999999999989      40.974999999999987
   299   1      7.4499999999999886      24.212499999999988      40.974999999999987
   300   1      7.4499999999999886      26.074999999999989       39.11249999999999
   301   1      5.5874999999999915      24.212499999999988      42.837499999999991
   302   1      5.5874999999999915      26.074999999999989      44.699999999999996
   303   1      7.4499999999999886      24.212499999999988      44.699999999999996
   304   1      7.4499999999999886      26.074999999999989      42.837499999999991
   305   1      5.5874999999999915      24.212499999999988      46.562499999999993
   306   1      5.5874999999999915      26.074999999999989      48.424999999999983
   307   1      7.4499999999999886      24.212499999999988      48.424999999999983
   308   1      7.4499999999999886      26.074999999999989      46.562499999999993
   309   1      5.5874999999999915      24.212499999999988      50.287499999999987
   310   1      5.5874999999999915      26.074999999999989      52.149999999999977
   311   1      7.4499999999999886      24.212499999999988      52.149999999999977
   312   1      7.4499999999999886      26.074999999999989      50.287499999999987
   313   1      5.5874999999999915      24.212499999999988      54.012499999999989
   314   1      5.5874999999999915      26.074999999999989      55.874999999999986
   315   1      7.4499999999999886      24.212499999999988      55.874999999999986
   316   1      7.4499999999999886      26.074999999999989      54.012499999999989
   317   1      7.4499999999999886      24.212499999999988      59.599999999999987
   318   1      7.4499999999999886      26.074999999999989      57.737499999999983
   319   1      7.4499999999999886      24.212499999999988      63.324999999999989
   320   1      7.4499999999999886      26.074999999999989      61.462499999999991
   321   1      7.4499999999999886      26.074999999999989      65.187499999999986
   322   1      7.4499999999999886      27.937499999999986      18.624999999999989
   323   1      7.4499999999999886       29.79999999999999      16.762499999999989
   324   1      7.4499999999999886      27.937499999999986      22.349999999999991
   325   1      7.4499999999999886       29.79999999999999       20.48749999999999
   326   1      5.5874999999999915       29.79999999999999      26.074999999999989
   327   1      7.4499999999999886      27.937499999999986      26.074999999999989
   328   1      7.4499999999999886       29.79999999999999      24.212499999999988
   329   1      5.5874999999999915      27.937499999999986      27.937499999999986
   330   1      5.5874999999999915       29.79999999999999       29.79999999999999
   331   1      7.4499999999999886      27.937499999999986       29.79999999999999
   332   1      7.4499999999999886       29.79999999999999      27.937499999999986
   333   1      5.5874999999999915      27.937499999999986      31.662499999999987
   334   1      5.5874999999999915       29.79999999999999      33.524999999999984
   335   1      7.4499999999999886      27.937499999999986      33.524999999999984
   336   1      7.4499999999999886       29.79999999999999      31.662499999999987
   337   1      5.5874999999999915      27.937499999999986      35.387499999999989
   338   1      5.5874999999999915       29.79999999999999      37.249999999999986
   339   1      7.4499999999999886      27.937499999999986      37.249999999999986
   340   1      7.4499999999999886       29.79999999999999      35.387499999999989
   341   1      5.5874999999999915      27.937499999999986       39.11249999999999
   342   1      5.5874999999999915       29.79999999999999      40.974999999999987
   343   1      7.4499999999999886      27.937499999999986      40.974999999999987
   344   1      7.4499999999999886       29.79999999999999       39.11249999999999
   345   1      5.5874999999999915      27.937499999999986      42.837499999999991
   346   1      5.5874999999999915       29.79999999999999      44.699999999999996
   347   1      7.4499999999999886      27.937499999999986      44.699999999999996
   348   1      7.4499999999999886       29.79999999999999      42.837499999999991
   349   1      5.5874999999999915      27.937499999999986      46.562499999999993
   350   1      5.5874999999999915       29.79999999999999      48.424999999999983
   351   1      7.4499999999999886      27.937499999999986      48.424999999999983
   352   1      7.4499999999999886       29.79999999999999      46.562499999999993
   353   1      5.5874999999999915      27.937499999999986      50.287499999999987
   354   1      5.5874999999999915       29.79999999999999      52.149999999999977
   355   1      7.4499999999999886      27.937499999999986      52.149999999999977
   356   1      7.4499999999999886       29.79999999999999      50.287499999999987
   357   1      5.5874999999999915      27.937499999999986      54.012499999999989
   358   1      5.5874999999999915       29.79999999999999      55.874999999999986