model_files/NiFeCrCoAl/NiFeCrCoAl_30000/NiFeCrCoAl_530/NiFeCrCoAl_530_fcc_29831_temp.data (written by ASE) 

29831 	 atoms 
5  atom types
0.0                      95  xlo xhi
0.0                      95  ylo yhi
0.0                      95  zlo zhi


Atoms 

     1   1                       0                  45.125                  45.125
     2   1      1.8049999999999997                   43.32                  45.125
     3   1      1.8049999999999997                  45.125                   43.32
     4   1                       0                  45.125      48.734999999999999
     5   1      1.8049999999999997                   43.32      48.734999999999999
     6   1      1.8049999999999997                  45.125                   46.93
     7   1      1.8049999999999997                  45.125      50.540000000000006
     8   1                       0      48.734999999999999                  45.125
     9   1      1.8049999999999997                   46.93                  45.125
    10   1      1.8049999999999997      48.734999999999999                   43.32
    11   1                       0                   46.93                   46.93
    12   1                       0      48.734999999999999      48.734999999999999
    13   1      1.8049999999999997                   46.93      48.734999999999999
    14   1      1.8049999999999997      48.734999999999999                   46.93
    15   1      1.8049999999999997      48.734999999999999      50.540000000000006
    16   1      1.8049999999999997      50.540000000000006                  45.125
    17   1      1.8049999999999997      50.540000000000006      48.734999999999999
    18   1      5.4149999999999991      36.100000000000001      37.905000000000001
    19   1      5.4149999999999991      37.905000000000001      36.100000000000001
    20   1      5.4149999999999991      36.100000000000001      41.515000000000001
    21   1      5.4149999999999991      37.905000000000001      39.710000000000001
    22   1      5.4149999999999991      36.100000000000001                  45.125
    23   1      5.4149999999999991      37.905000000000001                   43.32
    24   1      5.4149999999999991      36.100000000000001      48.734999999999999
    25   1      5.4149999999999991      37.905000000000001                   46.93
    26   1      5.4149999999999991      36.100000000000001      52.344999999999992
    27   1      5.4149999999999991      37.905000000000001      50.540000000000006
    28   1      5.4149999999999991      36.100000000000001      55.954999999999998
    29   1      5.4149999999999991      37.905000000000001      54.149999999999999
    30   1      5.4149999999999991      37.905000000000001      57.759999999999998
    31   1      5.4149999999999991      39.710000000000001      37.905000000000001
    32   1      5.4149999999999991      41.515000000000001      36.100000000000001
    33   1      3.6099999999999994      39.710000000000001      39.710000000000001
    34   1      3.6099999999999994      41.515000000000001      41.515000000000001
    35   1      5.4149999999999991      39.710000000000001      41.515000000000001
    36   1      5.4149999999999991      41.515000000000001      39.710000000000001
    37   1      3.6099999999999994      39.710000000000001                   43.32
    38   1      3.6099999999999994      41.515000000000001                  45.125
    39   1      5.4149999999999991      39.710000000000001                  45.125
    40   1      5.4149999999999991      41.515000000000001                   43.32
    41   1      3.6099999999999994      39.710000000000001                   46.93
    42   1      3.6099999999999994      41.515000000000001      48.734999999999999
    43   1      5.4149999999999991      39.710000000000001      48.734999999999999
    44   1      5.4149999999999991      41.515000000000001                   46.93
    45   1      3.6099999999999994      39.710000000000001      50.540000000000006
    46   1      3.6099999999999994      41.515000000000001      52.344999999999992
    47   1      5.4149999999999991      39.710000000000001      52.344999999999992
    48   1      5.4149999999999991      41.515000000000001      50.540000000000006
    49   1      3.6099999999999994      39.710000000000001      54.149999999999999
    50   1      5.4149999999999991      39.710000000000001      55.954999999999998
    51   1      5.4149999999999991      41.515000000000001      54.149999999999999
    52   1      5.4149999999999991      41.515000000000001      57.759999999999998
    53   1      5.4149999999999991                   43.32      37.905000000000001
    54   1      5.4149999999999991                  45.125      36.100000000000001
    55   1      3.6099999999999994                   43.32      39.710000000000001
    56   1      3.6099999999999994                  45.125      41.515000000000001
    57   1      5.4149999999999991                   43.32      41.515000000000001
    58   1      5.4149999999999991                  45.125      39.710000000000001
    59   1      3.6099999999999994                   43.32                   43.32
    60   1      3.6099999999999994                  45.125                  45.125
    61   1      5.4149999999999991                   43.32                  45.125
    62   1      5.4149999999999991                  45.125                   43.32
    63   1      3.6099999999999994                   43.32                   46.93
    64   1      3.6099999999999994                  45.125      48.734999999999999
    65   1      5.4149999999999991                   43.32      48.734999999999999
    66   1      5.4149999999999991                  45.125                   46.93
    67   1      3.6099999999999994                   43.32      50.540000000000006
    68   1      3.6099999999999994                  45.125      52.344999999999992
    69   1      5.4149999999999991                   43.32      52.344999999999992
    70   1      5.4149999999999991                  45.125      50.540000000000006
    71   1      3.6099999999999994                   43.32      54.149999999999999
    72   1      5.4149999999999991                   43.32      55.954999999999998
    73   1      5.4149999999999991                  45.125      54.149999999999999
    74   1      5.4149999999999991                  45.125      57.759999999999998
    75   1      5.4149999999999991                   46.93      37.905000000000001
    76   1      5.4149999999999991      48.734999999999999      36.100000000000001
    77   1      3.6099999999999994                   46.93      39.710000000000001
    78   1      3.6099999999999994      48.734999999999999      41.515000000000001
    79   1      5.4149999999999991                   46.93      41.515000000000001
    80   1      5.4149999999999991      48.734999999999999      39.710000000000001
    81   1      3.6099999999999994                   46.93                   43.32
    82   1      3.6099999999999994      48.734999999999999                  45.125
    83   1      5.4149999999999991                   46.93                  45.125
    84   1      5.4149999999999991      48.734999999999999                   43.32
    85   1      3.6099999999999994                   46.93                   46.93
    86   1      3.6099999999999994      48.734999999999999      48.734999999999999
    87   1      5.4149999999999991                   46.93      48.734999999999999
    88   1      5.4149999999999991      48.734999999999999                   46.93
    89   1      3.6099999999999994                   46.93      50.540000000000006
    90   1      3.6099999999999994      48.734999999999999      52.344999999999992
    91   1      5.4149999999999991                   46.93      52.344999999999992
    92   1      5.4149999999999991      48.734999999999999      50.540000000000006
    93   1      3.6099999999999994                   46.93      54.149999999999999
    94   1      5.4149999999999991                   46.93      55.954999999999998
    95   1      5.4149999999999991      48.734999999999999      54.149999999999999
    96   1      5.4149999999999991      48.734999999999999      57.759999999999998
    97   1      5.4149999999999991      50.540000000000006      37.905000000000001
    98   1      5.4149999999999991      52.344999999999992      36.100000000000001
    99   1      3.6099999999999994      50.540000000000006      39.710000000000001
   100   1      3.6099999999999994      52.344999999999992      41.515000000000001
   101   1      5.4149999999999991      50.540000000000006      41.515000000000001
   102   1      5.4149999999999991      52.344999999999992      39.710000000000001
   103   1      3.6099999999999994      50.540000000000006                   43.32
   104   1      3.6099999999999994      52.344999999999992                  45.125
   105   1      5.4149999999999991      50.540000000000006                  45.125
   106   1      5.4149999999999991      52.344999999999992                   43.32
   107   1      3.6099999999999994      50.540000000000006                   46.93
   108   1      3.6099999999999994      52.344999999999992      48.734999999999999
   109   1      5.4149999999999991      50.540000000000006      48.734999999999999
   110   1      5.4149999999999991      52.344999999999992                   46.93
   111   1      3.6099999999999994      50.540000000000006      50.540000000000006
   112   1      3.6099999999999994      52.344999999999992      52.344999999999992
   113   1      5.4149999999999991      50.540000000000006      52.344999999999992
   114   1      5.4149999999999991      52.344999999999992      50.540000000000006
   115   1      3.6099999999999994      50.540000000000006      54.149999999999999
   116   1      5.4149999999999991      50.540000000000006      55.954999999999998
   117   1      5.4149999999999991      52.344999999999992      54.149999999999999
   118   1      5.4149999999999991      52.344999999999992      57.759999999999998
   119   1      5.4149999999999991      54.149999999999999      37.905000000000001
   120   1      5.4149999999999991      55.954999999999998      36.100000000000001
   121   1      3.6099999999999994      54.149999999999999      39.710000000000001
   122   1      5.4149999999999991      54.149999999999999      41.515000000000001
   123   1      5.4149999999999991      55.954999999999998      39.710000000000001
   124   1      3.6099999999999994      54.149999999999999                   43.32
   125   1      5.4149999999999991      54.149999999999999                  45.125
   126   1      5.4149999999999991      55.954999999999998                   43.32
   127   1      3.6099999999999994      54.149999999999999                   46.93
   128   1      5.4149999999999991      54.149999999999999      48.734999999999999
   129   1      5.4149999999999991      55.954999999999998                   46.93
   130   1      3.6099999999999994      54.149999999999999      50.540000000000006
   131   1      5.4149999999999991      54.149999999999999      52.344999999999992
   132   1      5.4149999999999991      55.954999999999998      50.540000000000006
   133   1      3.6099999999999994      54.149999999999999      54.149999999999999
   134   1      5.4149999999999991      54.149999999999999      55.954999999999998
   135   1      5.4149999999999991      55.954999999999998      54.149999999999999
   136   1      5.4149999999999991      55.954999999999998      57.759999999999998
   137   1      5.4149999999999991      57.759999999999998      37.905000000000001
   138   1      5.4149999999999991      57.759999999999998      41.515000000000001
   139   1      5.4149999999999991      57.759999999999998                  45.125
   140   1      5.4149999999999991      57.759999999999998      48.734999999999999
   141   1      5.4149999999999991      57.759999999999998      52.344999999999992
   142   1      5.4149999999999991      57.759999999999998      55.954999999999998
   143   1      9.0249999999999986      30.685000000000002      32.490000000000002
   144   1      9.0249999999999986      30.685000000000002      36.100000000000001
   145   1      9.0249999999999986      30.685000000000002      39.710000000000001
   146   1      9.0249999999999986      30.685000000000002                   43.32
   147   1      9.0249999999999986      30.685000000000002                   46.93
   148   1      9.0249999999999986      30.685000000000002      50.540000000000006
   149   1      9.0249999999999986      30.685000000000002      54.149999999999999
   150   1      9.0249999999999986      30.685000000000002      57.759999999999998
   151   1      9.0249999999999986      30.685000000000002      61.370000000000005
   152   1      9.0249999999999986      32.490000000000002      30.685000000000002
   153   1      7.2199999999999989      34.295000000000002      34.295000000000002
   154   1      9.0249999999999986      32.490000000000002      34.295000000000002
   155   1      9.0249999999999986      34.295000000000002      32.490000000000002
   156   1      7.2199999999999989      34.295000000000002      37.905000000000001
   157   1      9.0249999999999986      32.490000000000002      37.905000000000001
   158   1      9.0249999999999986      34.295000000000002      36.100000000000001
   159   1      7.2199999999999989      34.295000000000002      41.515000000000001
   160   1      9.0249999999999986      32.490000000000002      41.515000000000001
   161   1      9.0249999999999986      34.295000000000002      39.710000000000001
   162   1      7.2199999999999989      34.295000000000002                  45.125
   163   1      9.0249999999999986      32.490000000000002                  45.125
   164   1      9.0249999999999986      34.295000000000002                   43.32
   165   1      7.2199999999999989      34.295000000000002      48.734999999999999
   166   1      9.0249999999999986      32.490000000000002      48.734999999999999
   167   1      9.0249999999999986      34.295000000000002                   46.93
   168   1      7.2199999999999989      34.295000000000002      52.344999999999992
   169   1      9.0249999999999986      32.490000000000002      52.344999999999992
   170   1      9.0249999999999986      34.295000000000002      50.540000000000006
   171   1      7.2199999999999989      34.295000000000002      55.954999999999998
   172   1      9.0249999999999986      32.490000000000002      55.954999999999998
   173   1      9.0249999999999986      34.295000000000002      54.149999999999999
   174   1      7.2199999999999989      34.295000000000002      59.564999999999998
   175   1      9.0249999999999986      32.490000000000002      59.564999999999998
   176   1      9.0249999999999986      34.295000000000002      57.759999999999998
   177   1      9.0249999999999986      32.490000000000002      63.175000000000011
   178   1      9.0249999999999986      34.295000000000002      61.370000000000005
   179   1      9.0249999999999986      36.100000000000001      30.685000000000002
   180   1      7.2199999999999989      37.905000000000001      34.295000000000002
   181   1      9.0249999999999986      36.100000000000001      34.295000000000002
   182   1      9.0249999999999986      37.905000000000001      32.490000000000002
   183   1      7.2199999999999989      36.100000000000001      36.100000000000001
   184   1      7.2199999999999989      37.905000000000001      37.905000000000001
   185   1      9.0249999999999986      36.100000000000001      37.905000000000001
   186   1      9.0249999999999986      37.905000000000001      36.100000000000001
   187   1      7.2199999999999989      36.100000000000001      39.710000000000001
   188   1      7.2199999999999989      37.905000000000001      41.515000000000001
   189   1      9.0249999999999986      36.100000000000001      41.515000000000001
   190   1      9.0249999999999986      37.905000000000001      39.710000000000001
   191   1      7.2199999999999989      36.100000000000001                   43.32
   192   1      7.2199999999999989      37.905000000000001                  45.125
   193   1      9.0249999999999986      36.100000000000001                  45.125
   194   1      9.0249999999999986      37.905000000000001                   43.32
   195   1      7.2199999999999989      36.100000000000001                   46.93
   196   1      7.2199999999999989      37.905000000000001      48.734999999999999
   197   1      9.0249999999999986      36.100000000000001      48.734999999999999
   198   1      9.0249999999999986      37.905000000000001                   46.93
   199   1      7.2199999999999989      36.100000000000001      50.540000000000006
   200   1      7.2199999999999989      37.905000000000001      52.344999999999992
   201   1      9.0249999999999986      36.100000000000001      52.344999999999992
   202   1      9.0249999999999986      37.905000000000001      50.540000000000006
   203   1      7.2199999999999989      36.100000000000001      54.149999999999999
   204   1      7.2199999999999989      37.905000000000001      55.954999999999998
   205   1      9.0249999999999986      36.100000000000001      55.954999999999998
   206   1      9.0249999999999986      37.905000000000001      54.149999999999999
   207   1      7.2199999999999989      36.100000000000001      57.759999999999998
   208   1      7.2199999999999989      37.905000000000001      59.564999999999998
   209   1      9.0249999999999986      36.100000000000001      59.564999999999998
   210   1      9.0249999999999986      37.905000000000001      57.759999999999998
   211   1      9.0249999999999986      36.100000000000001      63.175000000000011
   212   1      9.0249999999999986      37.905000000000001      61.370000000000005
   213   1      9.0249999999999986      39.710000000000001      30.685000000000002
   214   1      7.2199999999999989      41.515000000000001      34.295000000000002
   215   1      9.0249999999999986      39.710000000000001      34.295000000000002
   216   1      9.0249999999999986      41.515000000000001      32.490000000000002
   217   1      7.2199999999999989      39.710000000000001      36.100000000000001
   218   1      7.2199999999999989      41.515000000000001      37.905000000000001
   219   1      9.0249999999999986      39.710000000000001      37.905000000000001
   220   1      9.0249999999999986      41.515000000000001      36.100000000000001
   221   1      7.2199999999999989      39.710000000000001      39.710000000000001
   222   1      7.2199999999999989      41.515000000000001      41.515000000000001
   223   1      9.0249999999999986      39.710000000000001      41.515000000000001
   224   1      9.0249999999999986      41.515000000000001      39.710000000000001
   225   1      7.2199999999999989      39.710000000000001                   43.32
   226   1      7.2199999999999989      41.515000000000001                  45.125
   227   1      9.0249999999999986      39.710000000000001                  45.125
   228   1      9.0249999999999986      41.515000000000001                   43.32
   229   1      7.2199999999999989      39.710000000000001                   46.93
   230   1      7.2199999999999989      41.515000000000001      48.734999999999999
   231   1      9.0249999999999986      39.710000000000001      48.734999999999999
   232   1      9.0249999999999986      41.515000000000001                   46.93
   233   1      7.2199999999999989      39.710000000000001      50.540000000000006
   234   1      7.2199999999999989      41.515000000000001      52.344999999999992
   235   1      9.0249999999999986      39.710000000000001      52.344999999999992
   236   1      9.0249999999999986      41.515000000000001      50.540000000000006
   237   1      7.2199999999999989      39.710000000000001      54.149999999999999
   238   1      7.2199999999999989      41.515000000000001      55.954999999999998
   239   1      9.0249999999999986      39.710000000000001      55.954999999999998
   240   1      9.0249999999999986      41.515000000000001      54.149999999999999
   241   1      7.2199999999999989      39.710000000000001      57.759999999999998
   242   1      7.2199999999999989      41.515000000000001      59.564999999999998
   243   1      9.0249999999999986      39.710000000000001      59.564999999999998
   244   1      9.0249999999999986      41.515000000000001      57.759999999999998
   245   1      9.0249999999999986      39.710000000000001      63.175000000000011
   246   1      9.0249999999999986      41.515000000000001      61.370000000000005
   247   1      9.0249999999999986                   43.32      30.685000000000002
   248   1      7.2199999999999989                  45.125      34.295000000000002
   249   1      9.0249999999999986                   43.32      34.295000000000002
   250   1      9.0249999999999986                  45.125      32.490000000000002
   251   1      7.2199999999999989                   43.32      36.100000000000001
   252   1      7.2199999999999989                  45.125      37.905000000000001
   253   1      9.0249999999999986                   43.32      37.905000000000001
   254   1      9.0249999999999986                  45.125      36.100000000000001
   255   1      7.2199999999999989                   43.32      39.710000000000001
   256   1      7.2199999999999989                  45.125      41.515000000000001
   257   1      9.0249999999999986                   43.32      41.515000000000001
   258   1      9.0249999999999986                  45.125      39.710000000000001
   259   1      7.2199999999999989                   43.32                   43.32
   260   1      7.2199999999999989                  45.125                  45.125
   261   1      9.0249999999999986                   43.32                  45.125
   262   1      9.0249999999999986                  45.125                   43.32
   263   1      7.2199999999999989                   43.32                   46.93
   264   1      7.2199999999999989                  45.125      48.734999999999999
   265   1      9.0249999999999986                   43.32      48.734999999999999
   266   1      9.0249999999999986                  45.125                   46.93
   267   1      7.2199999999999989                   43.32      50.540000000000006
   268   1      7.2199999999999989                  45.125      52.344999999999992
   269   1      9.0249999999999986                   43.32      52.344999999999992
   270   1      9.0249999999999986                  45.125      50.540000000000006
   271   1      7.2199999999999989                   43.32      54.149999999999999
   272   1      7.2199999999999989                  45.125      55.954999999999998
   273   1      9.0249999999999986                   43.32      55.954999999999998
   274   1      9.0249999999999986                  45.125      54.149999999999999
   275   1      7.2199999999999989                   43.32      57.759999999999998
   276   1      7.2199999999999989                  45.125      59.564999999999998
   277   1      9.0249999999999986                   43.32      59.564999999999998
   278   1      9.0249999999999986                  45.125      57.759999999999998
   279   1      9.0249999999999986                   43.32      63.175000000000011
   280   1      9.0249999999999986                  45.125      61.370000000000005
   281   1      9.0249999999999986                   46.93      30.685000000000002
   282   1      7.2199999999999989      48.734999999999999      34.295000000000002
   283   1      9.0249999999999986                   46.93      34.295000000000002
   284   1      9.0249999999999986      48.734999999999999      32.490000000000002
   285   1      7.2199999999999989                   46.93      36.100000000000001
   286   1      7.2199999999999989      48.734999999999999      37.905000000000001
   287   1      9.0249999999999986                   46.93      37.905000000000001
   288   1      9.0249999999999986      48.734999999999999      36.100000000000001
   289   1      7.2199999999999989                   46.93      39.710000000000001
   290   1      7.2199999999999989      48.734999999999999      41.515000000000001
   291   1      9.0249999999999986                   46.93      41.515000000000001
   292   1      9.0249999999999986      48.734999999999999      39.710000000000001
   293   1      7.2199999999999989                   46.93                   43.32
   294   1      7.2199999999999989      48.734999999999999                  45.125
   295   1      9.0249999999999986                   46.93                  45.125
   296   1      9.0249999999999986      48.734999999999999                   43.32
   297   1      7.2199999999999989                   46.93                   46.93
   298   1      7.2199999999999989      48.734999999999999      48.734999999999999
   299   1      9.0249999999999986                   46.93      48.734999999999999
   300   1      9.0249999999999986      48.734999999999999                   46.93
   301   1      7.2199999999999989                   46.93      50.540000000000006
   302   1      7.2199999999999989      48.734999999999999      52.344999999999992
   303   1      9.0249999999999986                   46.93      52.344999999999992
   304   1      9.0249999999999986      48.734999999999999      50.540000000000006
   305   1      7.2199999999999989                   46.93      54.149999999999999
   306   1      7.2199999999999989      48.734999999999999      55.954999999999998
   307   1      9.0249999999999986                   46.93      55.954999999999998
   308   1      9.0249999999999986      48.734999999999999      54.149999999999999
   309   1      7.2199999999999989                   46.93      57.759999999999998
   310   1      7.2199999999999989      48.734999999999999      59.564999999999998
   311   1      9.0249999999999986                   46.93      59.564999999999998
   312   1      9.0249999999999986      48.734999999999999      57.759999999999998
   313   1      9.0249999999999986                   46.93      63.175000000000011
   314   1      9.0249999999999986      48.734999999999999      61.370000000000005
   315   1      9.0249999999999986      50.540000000000006      30.685000000000002
   316   1      7.2199999999999989      52.344999999999992      34.295000000000002
   317   1      9.0249999999999986      50.540000000000006      34.295000000000002
   318   1      9.0249999999999986      52.344999999999992      32.490000000000002
   319   1      7.2199999999999989      50.540000000000006      36.100000000000001
   320   1      7.2199999999999989      52.344999999999992      37.905000000000001
   321   1      9.0249999999999986      50.540000000000006      37.905000000000001
   322   1      9.0249999999999986      52.344999999999992      36.100000000000001
   323   1      7.2199999999999989      50.540000000000006      39.710000000000001
   324   1      7.2199999999999989      52.344999999999992      41.515000000000001
   325   1      9.0249999999999986      50.540000000000006      41.515000000000001
   326   1      9.0249999999999986      52.344999999999992      39.710000000000001
   327   1      7.2199999999999989      50.540000000000006                   43.32
   328   1      7.2199999999999989      52.344999999999992                  45.125
   329   1      9.0249999999999986      50.540000000000006                  45.125
   330   1      9.0249999999999986      52.344999999999992                   43.32
   331   1      7.2199999999999989      50.540000000000006                   46.93
   332   1      7.2199999999999989      52.344999999999992      48.734999999999999
   333   1      9.0249999999999986      50.540000000000006      48.734999999999999
   334   1      9.0249999999999986      52.344999999999992                   46.93
   335   1      7.2199999999999989      50.540000000000006      50.540000000000006
   336   1      7.2199999999999989      52.344999999999992      52.344999999999992
   337   1      9.0249999999999986      50.540000000000006      52.344999999999992
   338   1      9.0249999999999986      52.344999999999992      50.540000000000006
   339   1      7.2199999999999989      50.540000000000006      54.149999999999999
   340   1      7.2199999999999989      52.344999999999992      55.954999999999998
   341   1      9.0249999999999986      50.540000000000006      55.954999999999998
   342   1      9.0249999999999986      52.344999999999992      54.149999999999999
   343   1      7.2199999999999989      50.540000000000006      57.759999999999998
   344   1      7.2199999999999989      52.344999999999992      59.564999999999998
   345   1      9.0249999999999986      50.540000000000006      59.564999999999998
   346   1      9.0249999999999986      52.344999999999992      57.759999999999998
   347   1      9.0249999999999986      50.540000000000006      63.175000000000011
   348   1      9.0249999999999986      52.344999999999992      61.370000000000005
   349   1      9.0249999999999986      54.149999999999999      30.685000000000002
   350   1      7.2199999999999989      55.954999999999998      34.295000000000002
   351   1      9.0249999999999986      54.149999999999999      34.295000000000002
   352   1      9.0249999999999986      55.954999999999998      32.490000000000002
   353   1      7.2199999999999989      54.149999999999999      36.100000000000001
   354   1      7.2199999999999989      55.954999999999998      37.905000000000001
   355   1      9.0249999999999986      54.149999999999999      37.905000000000001
   356   1      9.0249999999999986      55.954999999999998      36.100000000000001
   357   1      7.2199999999999989      54.149999999999999      39.710000000000001
   358   1      7.2199999999999989      55.954999999999998      41.515000000000001