model_files/CuFeNi/CuFeNi_30000/CuFeNi_533/CuFeNi_533_fcc_30085_temp.data (written by ASE) 

30085 	 atoms 
3  atom types
0.0                     110  xlo xhi
0.0                     110  ylo yhi
0.0                     110  zlo zhi


Atoms 

     1   1  7.1054273576010019e-15      53.199999999999996      55.099999999999994
     2   1  7.1054273576010019e-15      55.099999999999994      53.199999999999996
     3   1  7.1054273576010019e-15      55.099999999999994                      57
     4   1  7.1054273576010019e-15                      57      55.099999999999994
     5   1      3.8000000000000038      49.399999999999991      55.099999999999994
     6   1      1.9000000000000057      53.199999999999996      53.199999999999996
     7   1      3.8000000000000038      51.299999999999997      53.199999999999996
     8   1      3.8000000000000038      53.199999999999996      51.299999999999997
     9   1      1.9000000000000057      51.299999999999997      55.099999999999994
    10   1      1.9000000000000057      53.199999999999996                      57
    11   1      3.8000000000000038      51.299999999999997                      57
    12   1      3.8000000000000038      53.199999999999996      55.099999999999994
    13   1      3.8000000000000038      53.199999999999996      58.899999999999991
    14   1      3.8000000000000038      55.099999999999994      49.399999999999991
    15   1      1.9000000000000057      55.099999999999994      51.299999999999997
    16   1      1.9000000000000057                      57      53.199999999999996
    17   1      3.8000000000000038      55.099999999999994      53.199999999999996
    18   1      3.8000000000000038                      57      51.299999999999997
    19   1      1.9000000000000057      55.099999999999994      55.099999999999994
    20   1      1.9000000000000057                      57                      57
    21   1      3.8000000000000038      55.099999999999994                      57
    22   1      3.8000000000000038                      57      55.099999999999994
    23   1      1.9000000000000057      55.099999999999994      58.899999999999991
    24   1      3.8000000000000038      55.099999999999994       60.79999999999999
    25   1      3.8000000000000038                      57      58.899999999999991
    26   1      3.8000000000000038      58.899999999999991      53.199999999999996
    27   1      1.9000000000000057      58.899999999999991      55.099999999999994
    28   1      3.8000000000000038      58.899999999999991                      57
    29   1      3.8000000000000038       60.79999999999999      55.099999999999994
    30   1      7.6000000000000076      41.799999999999997      55.099999999999994
    31   1      5.7000000000000099      45.600000000000001      53.199999999999996
    32   1      7.6000000000000076      43.700000000000003      53.199999999999996
    33   1      7.6000000000000076      45.600000000000001      51.299999999999997
    34   1      5.7000000000000099      43.700000000000003      55.099999999999994
    35   1      5.7000000000000099      45.600000000000001                      57
    36   1      7.6000000000000076      43.700000000000003                      57
    37   1      7.6000000000000076      45.600000000000001      55.099999999999994
    38   1      7.6000000000000076      45.600000000000001      58.899999999999991
    39   1      5.7000000000000099      49.399999999999991      49.399999999999991
    40   1      7.6000000000000076                    47.5      49.399999999999991
    41   1      7.6000000000000076      49.399999999999991                    47.5
    42   1      5.7000000000000099                    47.5      51.299999999999997
    43   1      5.7000000000000099      49.399999999999991      53.199999999999996
    44   1      7.6000000000000076                    47.5      53.199999999999996
    45   1      7.6000000000000076      49.399999999999991      51.299999999999997
    46   1      5.7000000000000099                    47.5      55.099999999999994
    47   1      5.7000000000000099      49.399999999999991                      57
    48   1      7.6000000000000076                    47.5                      57
    49   1      7.6000000000000076      49.399999999999991      55.099999999999994
    50   1      5.7000000000000099                    47.5      58.899999999999991
    51   1      5.7000000000000099      49.399999999999991       60.79999999999999
    52   1      7.6000000000000076                    47.5       60.79999999999999
    53   1      7.6000000000000076      49.399999999999991      58.899999999999991
    54   1      7.6000000000000076      49.399999999999991      62.699999999999996
    55   1      5.7000000000000099      53.199999999999996      45.600000000000001
    56   1      7.6000000000000076      51.299999999999997      45.600000000000001
    57   1      7.6000000000000076      53.199999999999996      43.700000000000003
    58   1      5.7000000000000099      51.299999999999997                    47.5
    59   1      5.7000000000000099      53.199999999999996      49.399999999999991
    60   1      7.6000000000000076      51.299999999999997      49.399999999999991
    61   1      7.6000000000000076      53.199999999999996                    47.5
    62   1      5.7000000000000099      51.299999999999997      51.299999999999997
    63   1      5.7000000000000099      53.199999999999996      53.199999999999996
    64   1      7.6000000000000076      51.299999999999997      53.199999999999996
    65   1      7.6000000000000076      53.199999999999996      51.299999999999997
    66   1      5.7000000000000099      51.299999999999997      55.099999999999994
    67   1      5.7000000000000099      53.199999999999996                      57
    68   1      7.6000000000000076      51.299999999999997                      57
    69   1      7.6000000000000076      53.199999999999996      55.099999999999994
    70   1      5.7000000000000099      51.299999999999997      58.899999999999991
    71   1      5.7000000000000099      53.199999999999996       60.79999999999999
    72   1      7.6000000000000076      51.299999999999997       60.79999999999999
    73   1      7.6000000000000076      53.199999999999996      58.899999999999991
    74   1      5.7000000000000099      51.299999999999997      62.699999999999996
    75   1      5.7000000000000099      53.199999999999996      64.599999999999994
    76   1      7.6000000000000076      51.299999999999997      64.599999999999994
    77   1      7.6000000000000076      53.199999999999996      62.699999999999996
    78   1      7.6000000000000076      53.199999999999996                    66.5
    79   1      7.6000000000000076      55.099999999999994      41.799999999999997
    80   1      5.7000000000000099      55.099999999999994      43.700000000000003
    81   1      5.7000000000000099                      57      45.600000000000001
    82   1      7.6000000000000076      55.099999999999994      45.600000000000001
    83   1      7.6000000000000076                      57      43.700000000000003
    84   1      5.7000000000000099      55.099999999999994                    47.5
    85   1      5.7000000000000099                      57      49.399999999999991
    86   1      7.6000000000000076      55.099999999999994      49.399999999999991
    87   1      7.6000000000000076                      57                    47.5
    88   1      5.7000000000000099      55.099999999999994      51.299999999999997
    89   1      5.7000000000000099                      57      53.199999999999996
    90   1      7.6000000000000076      55.099999999999994      53.199999999999996
    91   1      7.6000000000000076                      57      51.299999999999997
    92   1      5.7000000000000099      55.099999999999994      55.099999999999994
    93   1      5.7000000000000099                      57                      57
    94   1      7.6000000000000076      55.099999999999994                      57
    95   1      7.6000000000000076                      57      55.099999999999994
    96   1      5.7000000000000099      55.099999999999994      58.899999999999991
    97   1      5.7000000000000099                      57       60.79999999999999
    98   1      7.6000000000000076      55.099999999999994       60.79999999999999
    99   1      7.6000000000000076                      57      58.899999999999991
   100   1      5.7000000000000099      55.099999999999994      62.699999999999996
   101   1      5.7000000000000099                      57      64.599999999999994
   102   1      7.6000000000000076      55.099999999999994      64.599999999999994
   103   1      7.6000000000000076                      57      62.699999999999996
   104   1      5.7000000000000099      55.099999999999994                    66.5
   105   1      7.6000000000000076      55.099999999999994      68.400000000000006
   106   1      7.6000000000000076                      57                    66.5
   107   1      7.6000000000000076      58.899999999999991      45.600000000000001
   108   1      5.7000000000000099      58.899999999999991                    47.5
   109   1      5.7000000000000099       60.79999999999999      49.399999999999991
   110   1      7.6000000000000076      58.899999999999991      49.399999999999991
   111   1      7.6000000000000076       60.79999999999999                    47.5
   112   1      5.7000000000000099      58.899999999999991      51.299999999999997
   113   1      5.7000000000000099       60.79999999999999      53.199999999999996
   114   1      7.6000000000000076      58.899999999999991      53.199999999999996
   115   1      7.6000000000000076       60.79999999999999      51.299999999999997
   116   1      5.7000000000000099      58.899999999999991      55.099999999999994
   117   1      5.7000000000000099       60.79999999999999                      57
   118   1      7.6000000000000076      58.899999999999991                      57
   119   1      7.6000000000000076       60.79999999999999      55.099999999999994
   120   1      5.7000000000000099      58.899999999999991      58.899999999999991
   121   1      5.7000000000000099       60.79999999999999       60.79999999999999
   122   1      7.6000000000000076      58.899999999999991       60.79999999999999
   123   1      7.6000000000000076       60.79999999999999      58.899999999999991
   124   1      5.7000000000000099      58.899999999999991      62.699999999999996
   125   1      7.6000000000000076      58.899999999999991      64.599999999999994
   126   1      7.6000000000000076       60.79999999999999      62.699999999999996
   127   1      7.6000000000000076      62.699999999999996      49.399999999999991
   128   1      5.7000000000000099      62.699999999999996      51.299999999999997
   129   1      5.7000000000000099      64.599999999999994      53.199999999999996
   130   1      7.6000000000000076      62.699999999999996      53.199999999999996
   131   1      7.6000000000000076      64.599999999999994      51.299999999999997
   132   1      5.7000000000000099      62.699999999999996      55.099999999999994
   133   1      5.7000000000000099      64.599999999999994                      57
   134   1      7.6000000000000076      62.699999999999996                      57
   135   1      7.6000000000000076      64.599999999999994      55.099999999999994
   136   1      5.7000000000000099      62.699999999999996      58.899999999999991
   137   1      7.6000000000000076      62.699999999999996       60.79999999999999
   138   1      7.6000000000000076      64.599999999999994      58.899999999999991
   139   1      7.6000000000000076                    66.5      53.199999999999996
   140   1      5.7000000000000099                    66.5      55.099999999999994
   141   1      7.6000000000000076                    66.5                      57
   142   1      7.6000000000000076      68.400000000000006      55.099999999999994
   143   1      11.400000000000004      34.200000000000003      55.099999999999994
   144   1      11.400000000000004      36.100000000000001      53.199999999999996
   145   1      11.400000000000004                      38      51.299999999999997
   146   1      11.400000000000004      36.100000000000001                      57
   147   1      11.400000000000004                      38      55.099999999999994
   148   1      11.400000000000004                      38      58.899999999999991
   149   1      11.400000000000004      39.899999999999991      49.399999999999991
   150   1      11.400000000000004      41.799999999999997                    47.5
   151   1      9.5000000000000071      41.799999999999997      53.199999999999996
   152   1      11.400000000000004      39.899999999999991      53.199999999999996
   153   1      11.400000000000004      41.799999999999997      51.299999999999997
   154   1      9.5000000000000071      39.899999999999991      55.099999999999994
   155   1      9.5000000000000071      41.799999999999997                      57
   156   1      11.400000000000004      39.899999999999991                      57
   157   1      11.400000000000004      41.799999999999997      55.099999999999994
   158   1      11.400000000000004      39.899999999999991       60.79999999999999
   159   1      11.400000000000004      41.799999999999997      58.899999999999991
   160   1      11.400000000000004      41.799999999999997      62.699999999999996
   161   1      11.400000000000004      43.700000000000003      45.600000000000001
   162   1      11.400000000000004      45.600000000000001      43.700000000000003
   163   1      9.5000000000000071      45.600000000000001      49.399999999999991
   164   1      11.400000000000004      43.700000000000003      49.399999999999991
   165   1      11.400000000000004      45.600000000000001                    47.5
   166   1      9.5000000000000071      43.700000000000003      51.299999999999997
   167   1      9.5000000000000071      45.600000000000001      53.199999999999996
   168   1      11.400000000000004      43.700000000000003      53.199999999999996
   169   1      11.400000000000004      45.600000000000001      51.299999999999997
   170   1      9.5000000000000071      43.700000000000003      55.099999999999994
   171   1      9.5000000000000071      45.600000000000001                      57
   172   1      11.400000000000004      43.700000000000003                      57
   173   1      11.400000000000004      45.600000000000001      55.099999999999994
   174   1      9.5000000000000071      43.700000000000003      58.899999999999991
   175   1      9.5000000000000071      45.600000000000001       60.79999999999999
   176   1      11.400000000000004      43.700000000000003       60.79999999999999
   177   1      11.400000000000004      45.600000000000001      58.899999999999991
   178   1      11.400000000000004      43.700000000000003      64.599999999999994
   179   1      11.400000000000004      45.600000000000001      62.699999999999996
   180   1      11.400000000000004      45.600000000000001                    66.5
   181   1      11.400000000000004                    47.5      41.799999999999997
   182   1      11.400000000000004      49.399999999999991      39.899999999999991
   183   1      9.5000000000000071      49.399999999999991      45.600000000000001
   184   1      11.400000000000004                    47.5      45.600000000000001
   185   1      11.400000000000004      49.399999999999991      43.700000000000003
   186   1      9.5000000000000071                    47.5                    47.5
   187   1      9.5000000000000071      49.399999999999991      49.399999999999991
   188   1      11.400000000000004                    47.5      49.399999999999991
   189   1      11.400000000000004      49.399999999999991                    47.5
   190   1      9.5000000000000071                    47.5      51.299999999999997
   191   1      9.5000000000000071      49.399999999999991      53.199999999999996
   192   1      11.400000000000004                    47.5      53.199999999999996
   193   1      11.400000000000004      49.399999999999991      51.299999999999997
   194   1      9.5000000000000071                    47.5      55.099999999999994
   195   1      9.5000000000000071      49.399999999999991                      57
   196   1      11.400000000000004                    47.5                      57
   197   1      11.400000000000004      49.399999999999991      55.099999999999994
   198   1      9.5000000000000071                    47.5      58.899999999999991
   199   1      9.5000000000000071      49.399999999999991       60.79999999999999
   200   1      11.400000000000004                    47.5       60.79999999999999
   201   1      11.400000000000004      49.399999999999991      58.899999999999991
   202   1      9.5000000000000071                    47.5      62.699999999999996
   203   1      9.5000000000000071      49.399999999999991      64.599999999999994
   204   1      11.400000000000004                    47.5      64.599999999999994
   205   1      11.400000000000004      49.399999999999991      62.699999999999996
   206   1      11.400000000000004                    47.5      68.400000000000006
   207   1      11.400000000000004      49.399999999999991                    66.5
   208   1      11.400000000000004      49.399999999999991      70.299999999999997
   209   1      11.400000000000004      51.299999999999997                      38
   210   1      11.400000000000004      53.199999999999996      36.100000000000001
   211   1      9.5000000000000071      53.199999999999996      41.799999999999997
   212   1      11.400000000000004      51.299999999999997      41.799999999999997
   213   1      11.400000000000004      53.199999999999996      39.899999999999991
   214   1      9.5000000000000071      51.299999999999997      43.700000000000003
   215   1      9.5000000000000071      53.199999999999996      45.600000000000001
   216   1      11.400000000000004      51.299999999999997      45.600000000000001
   217   1      11.400000000000004      53.199999999999996      43.700000000000003
   218   1      9.5000000000000071      51.299999999999997                    47.5
   219   1      9.5000000000000071      53.199999999999996      49.399999999999991
   220   1      11.400000000000004      51.299999999999997      49.399999999999991
   221   1      11.400000000000004      53.199999999999996                    47.5
   222   1      9.5000000000000071      51.299999999999997      51.299999999999997
   223   1      9.5000000000000071      53.199999999999996      53.199999999999996
   224   1      11.400000000000004      51.299999999999997      53.199999999999996
   225   1      11.400000000000004      53.199999999999996      51.299999999999997
   226   1      9.5000000000000071      51.299999999999997      55.099999999999994
   227   1      9.5000000000000071      53.199999999999996                      57
   228   1      11.400000000000004      51.299999999999997                      57
   229   1      11.400000000000004      53.199999999999996      55.099999999999994
   230   1      9.5000000000000071      51.299999999999997      58.899999999999991
   231   1      9.5000000000000071      53.199999999999996       60.79999999999999
   232   1      11.400000000000004      51.299999999999997       60.79999999999999
   233   1      11.400000000000004      53.199999999999996      58.899999999999991
   234   1      9.5000000000000071      51.299999999999997      62.699999999999996
   235   1      9.5000000000000071      53.199999999999996      64.599999999999994
   236   1      11.400000000000004      51.299999999999997      64.599999999999994
   237   1      11.400000000000004      53.199999999999996      62.699999999999996
   238   1      9.5000000000000071      51.299999999999997                    66.5
   239   1      9.5000000000000071      53.199999999999996      68.400000000000006
   240   1      11.400000000000004      51.299999999999997      68.400000000000006
   241   1      11.400000000000004      53.199999999999996                    66.5
   242   1      11.400000000000004      51.299999999999997      72.200000000000003
   243   1      11.400000000000004      53.199999999999996      70.299999999999997
   244   1      11.400000000000004      53.199999999999996      74.099999999999994
   245   1      11.400000000000004      55.099999999999994      34.200000000000003
   246   1      11.400000000000004      55.099999999999994                      38
   247   1      11.400000000000004                      57      36.100000000000001
   248   1      9.5000000000000071      55.099999999999994      39.899999999999991
   249   1      9.5000000000000071                      57      41.799999999999997
   250   1      11.400000000000004      55.099999999999994      41.799999999999997
   251   1      11.400000000000004                      57      39.899999999999991
   252   1      9.5000000000000071      55.099999999999994      43.700000000000003
   253   1      9.5000000000000071                      57      45.600000000000001
   254   1      11.400000000000004      55.099999999999994      45.600000000000001
   255   1      11.400000000000004                      57      43.700000000000003
   256   1      9.5000000000000071      55.099999999999994                    47.5
   257   1      9.5000000000000071                      57      49.399999999999991
   258   1      11.400000000000004      55.099999999999994      49.399999999999991
   259   1      11.400000000000004                      57                    47.5
   260   1      9.5000000000000071      55.099999999999994      51.299999999999997
   261   1      9.5000000000000071                      57      53.199999999999996
   262   1      11.400000000000004      55.099999999999994      53.199999999999996
   263   1      11.400000000000004                      57      51.299999999999997
   264   1      9.5000000000000071      55.099999999999994      55.099999999999994
   265   1      9.5000000000000071                      57                      57
   266   1      11.400000000000004      55.099999999999994                      57
   267   1      11.400000000000004                      57      55.099999999999994
   268   1      9.5000000000000071      55.099999999999994      58.899999999999991
   269   1      9.5000000000000071                      57       60.79999999999999
   270   1      11.400000000000004      55.099999999999994       60.79999999999999
   271   1      11.400000000000004                      57      58.899999999999991
   272   1      9.5000000000000071      55.099999999999994      62.699999999999996
   273   1      9.5000000000000071                      57      64.599999999999994
   274   1      11.400000000000004      55.099999999999994      64.599999999999994
   275   1      11.400000000000004                      57      62.699999999999996
   276   1      9.5000000000000071      55.099999999999994                    66.5
   277   1      9.5000000000000071                      57      68.400000000000006
   278   1      11.400000000000004      55.099999999999994      68.400000000000006
   279   1      11.400000000000004                      57                    66.5
   280   1      9.5000000000000071      55.099999999999994      70.299999999999997
   281   1      11.400000000000004      55.099999999999994      72.200000000000003
   282   1      11.400000000000004                      57      70.299999999999997
   283   1      11.400000000000004      55.099999999999994                      76
   284   1      11.400000000000004                      57      74.099999999999994
   285   1      11.400000000000004      58.899999999999991                      38
   286   1      11.400000000000004      58.899999999999991      41.799999999999997
   287   1      11.400000000000004       60.79999999999999      39.899999999999991
   288   1      9.5000000000000071      58.899999999999991      43.700000000000003
   289   1      9.5000000000000071       60.79999999999999      45.600000000000001
   290   1      11.400000000000004      58.899999999999991      45.600000000000001
   291   1      11.400000000000004       60.79999999999999      43.700000000000003
   292   1      9.5000000000000071      58.899999999999991                    47.5
   293   1      9.5000000000000071       60.79999999999999      49.399999999999991
   294   1      11.400000000000004      58.899999999999991      49.399999999999991
   295   1      11.400000000000004       60.79999999999999                    47.5
   296   1      9.5000000000000071      58.899999999999991      51.299999999999997
   297   1      9.5000000000000071       60.79999999999999      53.199999999999996
   298   1      11.400000000000004      58.899999999999991      53.199999999999996
   299   1      11.400000000000004       60.79999999999999      51.299999999999997
   300   1      9.5000000000000071      58.899999999999991      55.099999999999994
   301   1      9.5000000000000071       60.79999999999999                      57
   302   1      11.400000000000004      58.899999999999991                      57
   303   1      11.400000000000004       60.79999999999999      55.099999999999994
   304   1      9.5000000000000071      58.899999999999991      58.899999999999991
   305   1      9.5000000000000071       60.79999999999999       60.79999999999999
   306   1      11.400000000000004      58.899999999999991       60.79999999999999
   307   1      11.400000000000004       60.79999999999999      58.899999999999991
   308   1      9.5000000000000071      58.899999999999991      62.699999999999996
   309   1      9.5000000000000071       60.79999999999999      64.599999999999994
   310   1      11.400000000000004      58.899999999999991      64.599999999999994
   311   1      11.400000000000004       60.79999999999999      62.699999999999996
   312   1      9.5000000000000071      58.899999999999991                    66.5
   313   1      11.400000000000004      58.899999999999991      68.400000000000006
   314   1      11.400000000000004       60.79999999999999                    66.5
   315   1      11.400000000000004      58.899999999999991      72.200000000000003
   316   1      11.400000000000004       60.79999999999999      70.299999999999997
   317   1      11.400000000000004      62.699999999999996      41.799999999999997
   318   1      11.400000000000004      62.699999999999996      45.600000000000001
   319   1      11.400000000000004      64.599999999999994      43.700000000000003
   320   1      9.5000000000000071      62.699999999999996                    47.5
   321   1      9.5000000000000071      64.599999999999994      49.399999999999991
   322   1      11.400000000000004      62.699999999999996      49.399999999999991
   323   1      11.400000000000004      64.599999999999994                    47.5
   324   1      9.5000000000000071      62.699999999999996      51.299999999999997
   325   1      9.5000000000000071      64.599999999999994      53.199999999999996
   326   1      11.400000000000004      62.699999999999996      53.199999999999996
   327   1      11.400000000000004      64.599999999999994      51.299999999999997
   328   1      9.5000000000000071      62.699999999999996      55.099999999999994
   329   1      9.5000000000000071      64.599999999999994                      57
   330   1      11.400000000000004      62.699999999999996                      57
   331   1      11.400000000000004      64.599999999999994      55.099999999999994
   332   1      9.5000000000000071      62.699999999999996      58.899999999999991
   333   1      9.5000000000000071      64.599999999999994       60.79999999999999
   334   1      11.400000000000004      62.699999999999996       60.79999999999999
   335   1      11.400000000000004      64.599999999999994      58.899999999999991
   336   1      9.5000000000000071      62.699999999999996      62.699999999999996
   337   1      11.400000000000004      62.699999999999996      64.599999999999994
   338   1      11.400000000000004      64.599999999999994      62.699999999999996
   339   1      11.400000000000004      62.699999999999996      68.400000000000006
   340   1      11.400000000000004      64.599999999999994                    66.5
   341   1      11.400000000000004                    66.5      45.600000000000001
   342   1      11.400000000000004                    66.5      49.399999999999991
   343   1      11.400000000000004      68.400000000000006                    47.5
   344   1      9.5000000000000071                    66.5      51.299999999999997
   345   1      9.5000000000000071      68.400000000000006      53.199999999999996
   346   1      11.400000000000004                    66.5      53.199999999999996
   347   1      11.400000000000004      68.400000000000006      51.299999999999997
   348   1      9.5000000000000071                    66.5      55.099999999999994
   349   1      9.5000000000000071      68.400000000000006                      57
   350   1      11.400000000000004                    66.5                      57
   351   1      11.400000000000004      68.400000000000006      55.099999999999994
   352   1      9.5000000000000071                    66.5      58.899999999999991
   353   1      11.400000000000004                    66.5       60.79999999999999
   354   1      11.400000000000004      68.400000000000006      58.899999999999991
   355   1      11.400000000000004                    66.5      64.599999999999994
   356   1      11.400000000000004      68.400000000000006      62.699999999999996
   357   1      11.400000000000004      70.299999999999997      49.399999999999991
   358   1      11.400000000000004      70.299999999999997      53.199999999999996