model_files/CuFeNi/CuFeNi_30000/CuFeNi_410/CuFeNi_410_fcc_29755_temp.data (written by ASE) 

29755 	 atoms 
3  atom types
0.0                      78  xlo xhi
0.0                      78  ylo yhi
0.0                      78  zlo zhi


Atoms 

     1   1      1.7899999999999991      28.640000000000001                   30.43
     2   1      1.7899999999999991                   30.43      28.640000000000001
     3   1      1.7899999999999991      28.640000000000001      34.009999999999998
     4   1      1.7899999999999991                   30.43      32.219999999999999
     5   1      1.7899999999999991      28.640000000000001      37.590000000000003
     6   1      1.7899999999999991                   30.43      35.800000000000004
     7   1      1.7899999999999991      28.640000000000001      41.169999999999995
     8   1      1.7899999999999991                   30.43      39.380000000000003
     9   1      1.7899999999999991      28.640000000000001                   44.75
    10   1      1.7899999999999991                   30.43      42.960000000000001
    11   1      1.7899999999999991      28.640000000000001      48.330000000000005
    12   1      1.7899999999999991                   30.43      46.539999999999999
    13   1      1.7899999999999991                   30.43      50.119999999999997
    14   1      1.7899999999999991      32.219999999999999                   30.43
    15   1      1.7899999999999991      34.009999999999998      28.640000000000001
    16   1      1.7899999999999991      32.219999999999999      34.009999999999998
    17   1      1.7899999999999991      34.009999999999998      32.219999999999999
    18   1      1.7899999999999991      32.219999999999999      37.590000000000003
    19   1      1.7899999999999991      34.009999999999998      35.800000000000004
    20   1      1.7899999999999991      32.219999999999999      41.169999999999995
    21   1      1.7899999999999991      34.009999999999998      39.380000000000003
    22   1      1.7899999999999991      32.219999999999999                   44.75
    23   1      1.7899999999999991      34.009999999999998      42.960000000000001
    24   1      1.7899999999999991      32.219999999999999      48.330000000000005
    25   1      1.7899999999999991      34.009999999999998      46.539999999999999
    26   1      1.7899999999999991      34.009999999999998      50.119999999999997
    27   1      1.7899999999999991      35.800000000000004                   30.43
    28   1      1.7899999999999991      37.590000000000003      28.640000000000001
    29   1      1.7899999999999991      35.800000000000004      34.009999999999998
    30   1      1.7899999999999991      37.590000000000003      32.219999999999999
    31   1                       0      35.800000000000004      35.800000000000004
    32   1                       0      37.590000000000003      37.590000000000003
    33   1      1.7899999999999991      35.800000000000004      37.590000000000003
    34   1      1.7899999999999991      37.590000000000003      35.800000000000004
    35   1                       0      35.800000000000004      39.380000000000003
    36   1                       0      37.590000000000003      41.169999999999995
    37   1      1.7899999999999991      35.800000000000004      41.169999999999995
    38   1      1.7899999999999991      37.590000000000003      39.380000000000003
    39   1                       0      35.800000000000004      42.960000000000001
    40   1      1.7899999999999991      35.800000000000004                   44.75
    41   1      1.7899999999999991      37.590000000000003      42.960000000000001
    42   1      1.7899999999999991      35.800000000000004      48.330000000000005
    43   1      1.7899999999999991      37.590000000000003      46.539999999999999
    44   1      1.7899999999999991      37.590000000000003      50.119999999999997
    45   1      1.7899999999999991      39.380000000000003                   30.43
    46   1      1.7899999999999991      41.169999999999995      28.640000000000001
    47   1      1.7899999999999991      39.380000000000003      34.009999999999998
    48   1      1.7899999999999991      41.169999999999995      32.219999999999999
    49   1                       0      39.380000000000003      35.800000000000004
    50   1                       0      41.169999999999995      37.590000000000003
    51   1      1.7899999999999991      39.380000000000003      37.590000000000003
    52   1      1.7899999999999991      41.169999999999995      35.800000000000004
    53   1                       0      39.380000000000003      39.380000000000003
    54   1                       0      41.169999999999995      41.169999999999995
    55   1      1.7899999999999991      39.380000000000003      41.169999999999995
    56   1      1.7899999999999991      41.169999999999995      39.380000000000003
    57   1                       0      39.380000000000003      42.960000000000001
    58   1      1.7899999999999991      39.380000000000003                   44.75
    59   1      1.7899999999999991      41.169999999999995      42.960000000000001
    60   1      1.7899999999999991      39.380000000000003      48.330000000000005
    61   1      1.7899999999999991      41.169999999999995      46.539999999999999
    62   1      1.7899999999999991      41.169999999999995      50.119999999999997
    63   1      1.7899999999999991      42.960000000000001                   30.43
    64   1      1.7899999999999991                   44.75      28.640000000000001
    65   1      1.7899999999999991      42.960000000000001      34.009999999999998
    66   1      1.7899999999999991                   44.75      32.219999999999999
    67   1                       0      42.960000000000001      35.800000000000004
    68   1      1.7899999999999991      42.960000000000001      37.590000000000003
    69   1      1.7899999999999991                   44.75      35.800000000000004
    70   1                       0      42.960000000000001      39.380000000000003
    71   1      1.7899999999999991      42.960000000000001      41.169999999999995
    72   1      1.7899999999999991                   44.75      39.380000000000003
    73   1                       0      42.960000000000001      42.960000000000001
    74   1      1.7899999999999991      42.960000000000001                   44.75
    75   1      1.7899999999999991                   44.75      42.960000000000001
    76   1      1.7899999999999991      42.960000000000001      48.330000000000005
    77   1      1.7899999999999991                   44.75      46.539999999999999
    78   1      1.7899999999999991                   44.75      50.119999999999997
    79   1      1.7899999999999991      46.539999999999999                   30.43
    80   1      1.7899999999999991      48.330000000000005      28.640000000000001
    81   1      1.7899999999999991      46.539999999999999      34.009999999999998
    82   1      1.7899999999999991      48.330000000000005      32.219999999999999
    83   1      1.7899999999999991      46.539999999999999      37.590000000000003
    84   1      1.7899999999999991      48.330000000000005      35.800000000000004
    85   1      1.7899999999999991      46.539999999999999      41.169999999999995
    86   1      1.7899999999999991      48.330000000000005      39.380000000000003
    87   1      1.7899999999999991      46.539999999999999                   44.75
    88   1      1.7899999999999991      48.330000000000005      42.960000000000001
    89   1      1.7899999999999991      46.539999999999999      48.330000000000005
    90   1      1.7899999999999991      48.330000000000005      46.539999999999999
    91   1      1.7899999999999991      48.330000000000005      50.119999999999997
    92   1      1.7899999999999991      50.119999999999997                   30.43
    93   1      1.7899999999999991      50.119999999999997      34.009999999999998
    94   1      1.7899999999999991      50.119999999999997      37.590000000000003
    95   1      1.7899999999999991      50.119999999999997      41.169999999999995
    96   1      1.7899999999999991      50.119999999999997                   44.75
    97   1      1.7899999999999991      50.119999999999997      48.330000000000005
    98   1      5.3699999999999966                   14.32      16.109999999999999
    99   1      5.3699999999999966      16.109999999999999                   14.32
   100   1      5.3699999999999966                   14.32      19.690000000000001
   101   1      5.3699999999999966      16.109999999999999      17.900000000000002
   102   1      5.3699999999999966                   14.32                   23.27
   103   1      5.3699999999999966      16.109999999999999      21.480000000000004
   104   1      5.3699999999999966                   14.32      26.850000000000001
   105   1      5.3699999999999966      16.109999999999999      25.059999999999999
   106   1      5.3699999999999966                   14.32                   30.43
   107   1      5.3699999999999966      16.109999999999999      28.640000000000001
   108   1      5.3699999999999966                   14.32      34.009999999999998
   109   1      5.3699999999999966      16.109999999999999      32.219999999999999
   110   1      5.3699999999999966                   14.32      37.590000000000003
   111   1      5.3699999999999966      16.109999999999999      35.800000000000004
   112   1      5.3699999999999966                   14.32      41.169999999999995
   113   1      5.3699999999999966      16.109999999999999      39.380000000000003
   114   1      5.3699999999999966                   14.32                   44.75
   115   1      5.3699999999999966      16.109999999999999      42.960000000000001
   116   1      5.3699999999999966                   14.32      48.330000000000005
   117   1      5.3699999999999966      16.109999999999999      46.539999999999999
   118   1      5.3699999999999966                   14.32      51.910000000000004
   119   1      5.3699999999999966      16.109999999999999      50.119999999999997
   120   1      5.3699999999999966                   14.32      55.490000000000002
   121   1      5.3699999999999966      16.109999999999999      53.700000000000003
   122   1      5.3699999999999966                   14.32      59.069999999999993
   123   1      5.3699999999999966      16.109999999999999      57.280000000000001
   124   1      5.3699999999999966                   14.32      62.650000000000006
   125   1      5.3699999999999966      16.109999999999999      60.859999999999999
   126   1      5.3699999999999966      16.109999999999999      64.439999999999998
   127   1      5.3699999999999966      17.900000000000002      16.109999999999999
   128   1      5.3699999999999966      19.690000000000001                   14.32
   129   1      5.3699999999999966      17.900000000000002      19.690000000000001
   130   1      5.3699999999999966      19.690000000000001      17.900000000000002
   131   1      5.3699999999999966      17.900000000000002                   23.27
   132   1      5.3699999999999966      19.690000000000001      21.480000000000004
   133   1      5.3699999999999966      17.900000000000002      26.850000000000001
   134   1      5.3699999999999966      19.690000000000001      25.059999999999999
   135   1      5.3699999999999966      17.900000000000002                   30.43
   136   1      5.3699999999999966      19.690000000000001      28.640000000000001
   137   1      5.3699999999999966      17.900000000000002      34.009999999999998
   138   1      5.3699999999999966      19.690000000000001      32.219999999999999
   139   1      5.3699999999999966      17.900000000000002      37.590000000000003
   140   1      5.3699999999999966      19.690000000000001      35.800000000000004
   141   1      5.3699999999999966      17.900000000000002      41.169999999999995
   142   1      5.3699999999999966      19.690000000000001      39.380000000000003
   143   1      5.3699999999999966      17.900000000000002                   44.75
   144   1      5.3699999999999966      19.690000000000001      42.960000000000001
   145   1      5.3699999999999966      17.900000000000002      48.330000000000005
   146   1      5.3699999999999966      19.690000000000001      46.539999999999999
   147   1      5.3699999999999966      17.900000000000002      51.910000000000004
   148   1      5.3699999999999966      19.690000000000001      50.119999999999997
   149   1      5.3699999999999966      17.900000000000002      55.490000000000002
   150   1      5.3699999999999966      19.690000000000001      53.700000000000003
   151   1      5.3699999999999966      17.900000000000002      59.069999999999993
   152   1      5.3699999999999966      19.690000000000001      57.280000000000001
   153   1      5.3699999999999966      17.900000000000002      62.650000000000006
   154   1      5.3699999999999966      19.690000000000001      60.859999999999999
   155   1      5.3699999999999966      19.690000000000001      64.439999999999998
   156   1      5.3699999999999966      21.480000000000004      16.109999999999999
   157   1      5.3699999999999966                   23.27                   14.32
   158   1      5.3699999999999966      21.480000000000004      19.690000000000001
   159   1      5.3699999999999966                   23.27      17.900000000000002
   160   1      3.5800000000000054      21.480000000000004      21.480000000000004
   161   1      3.5800000000000054                   23.27                   23.27
   162   1      5.3699999999999966      21.480000000000004                   23.27
   163   1      5.3699999999999966                   23.27      21.480000000000004
   164   1      3.5800000000000054      21.480000000000004      25.059999999999999
   165   1      3.5800000000000054                   23.27      26.850000000000001
   166   1      5.3699999999999966      21.480000000000004      26.850000000000001
   167   1      5.3699999999999966                   23.27      25.059999999999999
   168   1      3.5800000000000054      21.480000000000004      28.640000000000001
   169   1      3.5800000000000054                   23.27                   30.43
   170   1      5.3699999999999966      21.480000000000004                   30.43
   171   1      5.3699999999999966                   23.27      28.640000000000001
   172   1      3.5800000000000054      21.480000000000004      32.219999999999999
   173   1      3.5800000000000054                   23.27      34.009999999999998
   174   1      5.3699999999999966      21.480000000000004      34.009999999999998
   175   1      5.3699999999999966                   23.27      32.219999999999999
   176   1      3.5800000000000054      21.480000000000004      35.800000000000004
   177   1      3.5800000000000054                   23.27      37.590000000000003
   178   1      5.3699999999999966      21.480000000000004      37.590000000000003
   179   1      5.3699999999999966                   23.27      35.800000000000004
   180   1      3.5800000000000054      21.480000000000004      39.380000000000003
   181   1      3.5800000000000054                   23.27      41.169999999999995
   182   1      5.3699999999999966      21.480000000000004      41.169999999999995
   183   1      5.3699999999999966                   23.27      39.380000000000003
   184   1      3.5800000000000054      21.480000000000004      42.960000000000001
   185   1      3.5800000000000054                   23.27                   44.75
   186   1      5.3699999999999966      21.480000000000004                   44.75
   187   1      5.3699999999999966                   23.27      42.960000000000001
   188   1      3.5800000000000054      21.480000000000004      46.539999999999999
   189   1      3.5800000000000054                   23.27      48.330000000000005
   190   1      5.3699999999999966      21.480000000000004      48.330000000000005
   191   1      5.3699999999999966                   23.27      46.539999999999999
   192   1      3.5800000000000054      21.480000000000004      50.119999999999997
   193   1      3.5800000000000054                   23.27      51.910000000000004
   194   1      5.3699999999999966      21.480000000000004      51.910000000000004
   195   1      5.3699999999999966                   23.27      50.119999999999997
   196   1      3.5800000000000054      21.480000000000004      53.700000000000003
   197   1      3.5800000000000054                   23.27      55.490000000000002
   198   1      5.3699999999999966      21.480000000000004      55.490000000000002
   199   1      5.3699999999999966                   23.27      53.700000000000003
   200   1      3.5800000000000054      21.480000000000004      57.280000000000001
   201   1      5.3699999999999966      21.480000000000004      59.069999999999993
   202   1      5.3699999999999966                   23.27      57.280000000000001
   203   1      5.3699999999999966      21.480000000000004      62.650000000000006
   204   1      5.3699999999999966                   23.27      60.859999999999999
   205   1      5.3699999999999966                   23.27      64.439999999999998
   206   1      5.3699999999999966      25.059999999999999      16.109999999999999
   207   1      5.3699999999999966      26.850000000000001                   14.32
   208   1      5.3699999999999966      25.059999999999999      19.690000000000001
   209   1      5.3699999999999966      26.850000000000001      17.900000000000002
   210   1      3.5800000000000054      25.059999999999999      21.480000000000004
   211   1      3.5800000000000054      26.850000000000001                   23.27
   212   1      5.3699999999999966      25.059999999999999                   23.27
   213   1      5.3699999999999966      26.850000000000001      21.480000000000004
   214   1      3.5800000000000054      25.059999999999999      25.059999999999999
   215   1      3.5800000000000054      26.850000000000001      26.850000000000001
   216   1      5.3699999999999966      25.059999999999999      26.850000000000001
   217   1      5.3699999999999966      26.850000000000001      25.059999999999999
   218   1      3.5800000000000054      25.059999999999999      28.640000000000001
   219   1      3.5800000000000054      26.850000000000001                   30.43
   220   1      5.3699999999999966      25.059999999999999                   30.43
   221   1      5.3699999999999966      26.850000000000001      28.640000000000001
   222   1      3.5800000000000054      25.059999999999999      32.219999999999999
   223   1      3.5800000000000054      26.850000000000001      34.009999999999998
   224   1      5.3699999999999966      25.059999999999999      34.009999999999998
   225   1      5.3699999999999966      26.850000000000001      32.219999999999999
   226   1      3.5800000000000054      25.059999999999999      35.800000000000004
   227   1      3.5800000000000054      26.850000000000001      37.590000000000003
   228   1      5.3699999999999966      25.059999999999999      37.590000000000003
   229   1      5.3699999999999966      26.850000000000001      35.800000000000004
   230   1      3.5800000000000054      25.059999999999999      39.380000000000003
   231   1      3.5800000000000054      26.850000000000001      41.169999999999995
   232   1      5.3699999999999966      25.059999999999999      41.169999999999995
   233   1      5.3699999999999966      26.850000000000001      39.380000000000003
   234   1      3.5800000000000054      25.059999999999999      42.960000000000001
   235   1      3.5800000000000054      26.850000000000001                   44.75
   236   1      5.3699999999999966      25.059999999999999                   44.75
   237   1      5.3699999999999966      26.850000000000001      42.960000000000001
   238   1      3.5800000000000054      25.059999999999999      46.539999999999999
   239   1      3.5800000000000054      26.850000000000001      48.330000000000005
   240   1      5.3699999999999966      25.059999999999999      48.330000000000005
   241   1      5.3699999999999966      26.850000000000001      46.539999999999999
   242   1      3.5800000000000054      25.059999999999999      50.119999999999997
   243   1      3.5800000000000054      26.850000000000001      51.910000000000004
   244   1      5.3699999999999966      25.059999999999999      51.910000000000004
   245   1      5.3699999999999966      26.850000000000001      50.119999999999997
   246   1      3.5800000000000054      25.059999999999999      53.700000000000003
   247   1      3.5800000000000054      26.850000000000001      55.490000000000002
   248   1      5.3699999999999966      25.059999999999999      55.490000000000002
   249   1      5.3699999999999966      26.850000000000001      53.700000000000003
   250   1      3.5800000000000054      25.059999999999999      57.280000000000001
   251   1      5.3699999999999966      25.059999999999999      59.069999999999993
   252   1      5.3699999999999966      26.850000000000001      57.280000000000001
   253   1      5.3699999999999966      25.059999999999999      62.650000000000006
   254   1      5.3699999999999966      26.850000000000001      60.859999999999999
   255   1      5.3699999999999966      26.850000000000001      64.439999999999998
   256   1      5.3699999999999966      28.640000000000001      16.109999999999999
   257   1      5.3699999999999966                   30.43                   14.32
   258   1      5.3699999999999966      28.640000000000001      19.690000000000001
   259   1      5.3699999999999966                   30.43      17.900000000000002
   260   1      3.5800000000000054      28.640000000000001      21.480000000000004
   261   1      3.5800000000000054                   30.43                   23.27
   262   1      5.3699999999999966      28.640000000000001                   23.27
   263   1      5.3699999999999966                   30.43      21.480000000000004
   264   1      3.5800000000000054      28.640000000000001      25.059999999999999
   265   1      3.5800000000000054                   30.43      26.850000000000001
   266   1      5.3699999999999966      28.640000000000001      26.850000000000001
   267   1      5.3699999999999966                   30.43      25.059999999999999
   268   1      3.5800000000000054      28.640000000000001      28.640000000000001
   269   1      3.5800000000000054                   30.43                   30.43
   270   1      5.3699999999999966      28.640000000000001                   30.43
   271   1      5.3699999999999966                   30.43      28.640000000000001
   272   1      3.5800000000000054      28.640000000000001      32.219999999999999
   273   1      3.5800000000000054                   30.43      34.009999999999998
   274   1      5.3699999999999966      28.640000000000001      34.009999999999998
   275   1      5.3699999999999966                   30.43      32.219999999999999
   276   1      3.5800000000000054      28.640000000000001      35.800000000000004
   277   1      3.5800000000000054                   30.43      37.590000000000003
   278   1      5.3699999999999966      28.640000000000001      37.590000000000003
   279   1      5.3699999999999966                   30.43      35.800000000000004
   280   1      3.5800000000000054      28.640000000000001      39.380000000000003
   281   1      3.5800000000000054                   30.43      41.169999999999995
   282   1      5.3699999999999966      28.640000000000001      41.169999999999995
   283   1      5.3699999999999966                   30.43      39.380000000000003
   284   1      3.5800000000000054      28.640000000000001      42.960000000000001
   285   1      3.5800000000000054                   30.43                   44.75
   286   1      5.3699999999999966      28.640000000000001                   44.75
   287   1      5.3699999999999966                   30.43      42.960000000000001
   288   1      3.5800000000000054      28.640000000000001      46.539999999999999
   289   1      3.5800000000000054                   30.43      48.330000000000005
   290   1      5.3699999999999966      28.640000000000001      48.330000000000005
   291   1      5.3699999999999966                   30.43      46.539999999999999
   292   1      3.5800000000000054      28.640000000000001      50.119999999999997
   293   1      3.5800000000000054                   30.43      51.910000000000004
   294   1      5.3699999999999966      28.640000000000001      51.910000000000004
   295   1      5.3699999999999966                   30.43      50.119999999999997
   296   1      3.5800000000000054      28.640000000000001      53.700000000000003
   297   1      3.5800000000000054                   30.43      55.490000000000002
   298   1      5.3699999999999966      28.640000000000001      55.490000000000002
   299   1      5.3699999999999966                   30.43      53.700000000000003
   300   1      3.5800000000000054      28.640000000000001      57.280000000000001
   301   1      5.3699999999999966      28.640000000000001      59.069999999999993
   302   1      5.3699999999999966                   30.43      57.280000000000001
   303   1      5.3699999999999966      28.640000000000001      62.650000000000006
   304   1      5.3699999999999966                   30.43      60.859999999999999
   305   1      5.3699999999999966                   30.43      64.439999999999998
   306   1      5.3699999999999966      32.219999999999999      16.109999999999999
   307   1      5.3699999999999966      34.009999999999998                   14.32
   308   1      5.3699999999999966      32.219999999999999      19.690000000000001
   309   1      5.3699999999999966      34.009999999999998      17.900000000000002
   310   1      3.5800000000000054      32.219999999999999      21.480000000000004
   311   1      3.5800000000000054      34.009999999999998                   23.27
   312   1      5.3699999999999966      32.219999999999999                   23.27
   313   1      5.3699999999999966      34.009999999999998      21.480000000000004
   314   1      3.5800000000000054      32.219999999999999      25.059999999999999
   315   1      3.5800000000000054      34.009999999999998      26.850000000000001
   316   1      5.3699999999999966      32.219999999999999      26.850000000000001
   317   1      5.3699999999999966      34.009999999999998      25.059999999999999
   318   1      3.5800000000000054      32.219999999999999      28.640000000000001
   319   1      3.5800000000000054      34.009999999999998                   30.43
   320   1      5.3699999999999966      32.219999999999999                   30.43
   321   1      5.3699999999999966      34.009999999999998      28.640000000000001
   322   1      3.5800000000000054      32.219999999999999      32.219999999999999
   323   1      3.5800000000000054      34.009999999999998      34.009999999999998
   324   1      5.3699999999999966      32.219999999999999      34.009999999999998
   325   1      5.3699999999999966      34.009999999999998      32.219999999999999
   326   1      3.5800000000000054      32.219999999999999      35.800000000000004
   327   1      3.5800000000000054      34.009999999999998      37.590000000000003
   328   1      5.3699999999999966      32.219999999999999      37.590000000000003
   329   1      5.3699999999999966      34.009999999999998      35.800000000000004
   330   1      3.5800000000000054      32.219999999999999      39.380000000000003
   331   1      3.5800000000000054      34.009999999999998      41.169999999999995
   332   1      5.3699999999999966      32.219999999999999      41.169999999999995
   333   1      5.3699999999999966      34.009999999999998      39.380000000000003
   334   1      3.5800000000000054      32.219999999999999      42.960000000000001
   335   1      3.5800000000000054      34.009999999999998                   44.75
   336   1      5.3699999999999966      32.219999999999999                   44.75
   337   1      5.3699999999999966      34.009999999999998      42.960000000000001
   338   1      3.5800000000000054      32.219999999999999      46.539999999999999
   339   1      3.5800000000000054      34.009999999999998      48.330000000000005
   340   1      5.3699999999999966      32.219999999999999      48.330000000000005
   341   1      5.3699999999999966      34.009999999999998      46.539999999999999
   342   1      3.5800000000000054      32.219999999999999      50.119999999999997
   343   1      3.5800000000000054      34.009999999999998      51.910000000000004
   344   1      5.3699999999999966      32.219999999999999      51.910000000000004
   345   1      5.3699999999999966      34.009999999999998      50.119999999999997
   346   1      3.5800000000000054      32.219999999999999      53.700000000000003
   347   1      3.5800000000000054      34.009999999999998      55.490000000000002
   348   1      5.3699999999999966      32.219999999999999      55.490000000000002
   349   1      5.3699999999999966      34.009999999999998      53.700000000000003
   350   1      3.5800000000000054      32.219999999999999      57.280000000000001
   351   1      5.3699999999999966      32.219999999999999      59.069999999999993
   352   1      5.3699999999999966      34.009999999999998      57.280000000000001
   353   1      5.3699999999999966      32.219999999999999      62.650000000000006
   354   1      5.3699999999999966      34.009999999999998      60.859999999999999
   355   1      5.3699999999999966      34.009999999999998      64.439999999999998
   356   1      5.3699999999999966      35.800000000000004      16.109999999999999
   357   1      5.3699999999999966      37.590000000000003                   14.32
   358   1      5.3699999999999966      35.800000000000004      19.690000000000001