model_files/Ag/Ag_30000/Ag_310/data.Ag_310_fcc_30527 (written by ASE) 

30527 	 atoms 
1  atom types
0.0                      94  xlo xhi
0.0                      94  ylo yhi
0.0                      94  zlo zhi


Atoms 

     1   1                       0      42.944999999999993      44.989999999999995
     2   1                       0      44.989999999999995      42.944999999999993
     3   1                       0      42.944999999999993      49.079999999999998
     4   1                       0      44.989999999999995      47.034999999999997
     5   1                       0      44.989999999999995      51.124999999999993
     6   1                       0      47.034999999999997      44.989999999999995
     7   1                       0      49.079999999999998      42.944999999999993
     8   1                       0      47.034999999999997      49.079999999999998
     9   1                       0      49.079999999999998      47.034999999999997
    10   1                       0      49.079999999999998      51.124999999999993
    11   1                       0      51.124999999999993      44.989999999999995
    12   1                       0      51.124999999999993      49.079999999999998
    13   1      4.0899999999999963      30.674999999999994      32.719999999999999
    14   1      4.0899999999999963      32.719999999999999      30.674999999999994
    15   1      4.0899999999999963      30.674999999999994      36.810000000000002
    16   1      4.0899999999999963      32.719999999999999      34.765000000000001
    17   1      4.0899999999999963      30.674999999999994      40.899999999999999
    18   1      4.0899999999999963      32.719999999999999      38.854999999999997
    19   1      4.0899999999999963      30.674999999999994      44.989999999999995
    20   1      4.0899999999999963      32.719999999999999      42.944999999999993
    21   1      4.0899999999999963      30.674999999999994      49.079999999999998
    22   1      4.0899999999999963      32.719999999999999      47.034999999999997
    23   1      4.0899999999999963      30.674999999999994      53.170000000000002
    24   1      4.0899999999999963      32.719999999999999      51.124999999999993
    25   1      4.0899999999999963      30.674999999999994      57.259999999999991
    26   1      4.0899999999999963      32.719999999999999      55.214999999999996
    27   1      4.0899999999999963      30.674999999999994      61.349999999999987
    28   1      4.0899999999999963      32.719999999999999      59.304999999999993
    29   1      4.0899999999999963      32.719999999999999      63.394999999999996
    30   1      4.0899999999999963      34.765000000000001      32.719999999999999
    31   1      4.0899999999999963      36.810000000000002      30.674999999999994
    32   1      2.0450000000000017      36.810000000000002      36.810000000000002
    33   1      4.0899999999999963      34.765000000000001      36.810000000000002
    34   1      4.0899999999999963      36.810000000000002      34.765000000000001
    35   1      2.0450000000000017      36.810000000000002      40.899999999999999
    36   1      4.0899999999999963      34.765000000000001      40.899999999999999
    37   1      4.0899999999999963      36.810000000000002      38.854999999999997
    38   1      2.0450000000000017      36.810000000000002      44.989999999999995
    39   1      4.0899999999999963      34.765000000000001      44.989999999999995
    40   1      4.0899999999999963      36.810000000000002      42.944999999999993
    41   1      2.0450000000000017      36.810000000000002      49.079999999999998
    42   1      4.0899999999999963      34.765000000000001      49.079999999999998
    43   1      4.0899999999999963      36.810000000000002      47.034999999999997
    44   1      2.0450000000000017      36.810000000000002      53.170000000000002
    45   1      4.0899999999999963      34.765000000000001      53.170000000000002
    46   1      4.0899999999999963      36.810000000000002      51.124999999999993
    47   1      2.0450000000000017      36.810000000000002      57.259999999999991
    48   1      4.0899999999999963      34.765000000000001      57.259999999999991
    49   1      4.0899999999999963      36.810000000000002      55.214999999999996
    50   1      4.0899999999999963      34.765000000000001      61.349999999999987
    51   1      4.0899999999999963      36.810000000000002      59.304999999999993
    52   1      4.0899999999999963      36.810000000000002      63.394999999999996
    53   1      4.0899999999999963      38.854999999999997      32.719999999999999
    54   1      4.0899999999999963      40.899999999999999      30.674999999999994
    55   1      2.0450000000000017      40.899999999999999      36.810000000000002
    56   1      4.0899999999999963      38.854999999999997      36.810000000000002
    57   1      4.0899999999999963      40.899999999999999      34.765000000000001
    58   1      2.0450000000000017      38.854999999999997      38.854999999999997
    59   1      2.0450000000000017      40.899999999999999      40.899999999999999
    60   1      4.0899999999999963      38.854999999999997      40.899999999999999
    61   1      4.0899999999999963      40.899999999999999      38.854999999999997
    62   1      2.0450000000000017      38.854999999999997      42.944999999999993
    63   1      2.0450000000000017      40.899999999999999      44.989999999999995
    64   1      4.0899999999999963      38.854999999999997      44.989999999999995
    65   1      4.0899999999999963      40.899999999999999      42.944999999999993
    66   1      2.0450000000000017      38.854999999999997      47.034999999999997
    67   1      2.0450000000000017      40.899999999999999      49.079999999999998
    68   1      4.0899999999999963      38.854999999999997      49.079999999999998
    69   1      4.0899999999999963      40.899999999999999      47.034999999999997
    70   1      2.0450000000000017      38.854999999999997      51.124999999999993
    71   1      2.0450000000000017      40.899999999999999      53.170000000000002
    72   1      4.0899999999999963      38.854999999999997      53.170000000000002
    73   1      4.0899999999999963      40.899999999999999      51.124999999999993
    74   1      2.0450000000000017      38.854999999999997      55.214999999999996
    75   1      2.0450000000000017      40.899999999999999      57.259999999999991
    76   1      4.0899999999999963      38.854999999999997      57.259999999999991
    77   1      4.0899999999999963      40.899999999999999      55.214999999999996
    78   1      4.0899999999999963      38.854999999999997      61.349999999999987
    79   1      4.0899999999999963      40.899999999999999      59.304999999999993
    80   1      4.0899999999999963      40.899999999999999      63.394999999999996
    81   1      4.0899999999999963      42.944999999999993      32.719999999999999
    82   1      4.0899999999999963      44.989999999999995      30.674999999999994
    83   1      2.0450000000000017      44.989999999999995      36.810000000000002
    84   1      4.0899999999999963      42.944999999999993      36.810000000000002
    85   1      4.0899999999999963      44.989999999999995      34.765000000000001
    86   1      2.0450000000000017      42.944999999999993      38.854999999999997
    87   1      2.0450000000000017      44.989999999999995      40.899999999999999
    88   1      4.0899999999999963      42.944999999999993      40.899999999999999
    89   1      4.0899999999999963      44.989999999999995      38.854999999999997
    90   1      2.0450000000000017      42.944999999999993      42.944999999999993
    91   1      2.0450000000000017      44.989999999999995      44.989999999999995
    92   1      4.0899999999999963      42.944999999999993      44.989999999999995
    93   1      4.0899999999999963      44.989999999999995      42.944999999999993
    94   1      2.0450000000000017      42.944999999999993      47.034999999999997
    95   1      2.0450000000000017      44.989999999999995      49.079999999999998
    96   1      4.0899999999999963      42.944999999999993      49.079999999999998
    97   1      4.0899999999999963      44.989999999999995      47.034999999999997
    98   1      2.0450000000000017      42.944999999999993      51.124999999999993
    99   1      2.0450000000000017      44.989999999999995      53.170000000000002
   100   1      4.0899999999999963      42.944999999999993      53.170000000000002
   101   1      4.0899999999999963      44.989999999999995      51.124999999999993
   102   1      2.0450000000000017      42.944999999999993      55.214999999999996
   103   1      2.0450000000000017      44.989999999999995      57.259999999999991
   104   1      4.0899999999999963      42.944999999999993      57.259999999999991
   105   1      4.0899999999999963      44.989999999999995      55.214999999999996
   106   1      4.0899999999999963      42.944999999999993      61.349999999999987
   107   1      4.0899999999999963      44.989999999999995      59.304999999999993
   108   1      4.0899999999999963      44.989999999999995      63.394999999999996
   109   1      4.0899999999999963      47.034999999999997      32.719999999999999
   110   1      4.0899999999999963      49.079999999999998      30.674999999999994
   111   1      2.0450000000000017      49.079999999999998      36.810000000000002
   112   1      4.0899999999999963      47.034999999999997      36.810000000000002
   113   1      4.0899999999999963      49.079999999999998      34.765000000000001
   114   1      2.0450000000000017      47.034999999999997      38.854999999999997
   115   1      2.0450000000000017      49.079999999999998      40.899999999999999
   116   1      4.0899999999999963      47.034999999999997      40.899999999999999
   117   1      4.0899999999999963      49.079999999999998      38.854999999999997
   118   1      2.0450000000000017      47.034999999999997      42.944999999999993
   119   1      2.0450000000000017      49.079999999999998      44.989999999999995
   120   1      4.0899999999999963      47.034999999999997      44.989999999999995
   121   1      4.0899999999999963      49.079999999999998      42.944999999999993
   122   1      2.0450000000000017      47.034999999999997      47.034999999999997
   123   1      2.0450000000000017      49.079999999999998      49.079999999999998
   124   1      4.0899999999999963      47.034999999999997      49.079999999999998
   125   1      4.0899999999999963      49.079999999999998      47.034999999999997
   126   1      2.0450000000000017      47.034999999999997      51.124999999999993
   127   1      2.0450000000000017      49.079999999999998      53.170000000000002
   128   1      4.0899999999999963      47.034999999999997      53.170000000000002
   129   1      4.0899999999999963      49.079999999999998      51.124999999999993
   130   1      2.0450000000000017      47.034999999999997      55.214999999999996
   131   1      2.0450000000000017      49.079999999999998      57.259999999999991
   132   1      4.0899999999999963      47.034999999999997      57.259999999999991
   133   1      4.0899999999999963      49.079999999999998      55.214999999999996
   134   1      4.0899999999999963      47.034999999999997      61.349999999999987
   135   1      4.0899999999999963      49.079999999999998      59.304999999999993
   136   1      4.0899999999999963      49.079999999999998      63.394999999999996
   137   1      4.0899999999999963      51.124999999999993      32.719999999999999
   138   1      4.0899999999999963      53.170000000000002      30.674999999999994
   139   1      2.0450000000000017      53.170000000000002      36.810000000000002
   140   1      4.0899999999999963      51.124999999999993      36.810000000000002
   141   1      4.0899999999999963      53.170000000000002      34.765000000000001
   142   1      2.0450000000000017      51.124999999999993      38.854999999999997
   143   1      2.0450000000000017      53.170000000000002      40.899999999999999
   144   1      4.0899999999999963      51.124999999999993      40.899999999999999
   145   1      4.0899999999999963      53.170000000000002      38.854999999999997
   146   1      2.0450000000000017      51.124999999999993      42.944999999999993
   147   1      2.0450000000000017      53.170000000000002      44.989999999999995
   148   1      4.0899999999999963      51.124999999999993      44.989999999999995
   149   1      4.0899999999999963      53.170000000000002      42.944999999999993
   150   1      2.0450000000000017      51.124999999999993      47.034999999999997
   151   1      2.0450000000000017      53.170000000000002      49.079999999999998
   152   1      4.0899999999999963      51.124999999999993      49.079999999999998
   153   1      4.0899999999999963      53.170000000000002      47.034999999999997
   154   1      2.0450000000000017      51.124999999999993      51.124999999999993
   155   1      2.0450000000000017      53.170000000000002      53.170000000000002
   156   1      4.0899999999999963      51.124999999999993      53.170000000000002
   157   1      4.0899999999999963      53.170000000000002      51.124999999999993
   158   1      2.0450000000000017      51.124999999999993      55.214999999999996
   159   1      2.0450000000000017      53.170000000000002      57.259999999999991
   160   1      4.0899999999999963      51.124999999999993      57.259999999999991
   161   1      4.0899999999999963      53.170000000000002      55.214999999999996
   162   1      4.0899999999999963      51.124999999999993      61.349999999999987
   163   1      4.0899999999999963      53.170000000000002      59.304999999999993
   164   1      4.0899999999999963      53.170000000000002      63.394999999999996
   165   1      4.0899999999999963      55.214999999999996      32.719999999999999
   166   1      4.0899999999999963      57.259999999999991      30.674999999999994
   167   1      2.0450000000000017      57.259999999999991      36.810000000000002
   168   1      4.0899999999999963      55.214999999999996      36.810000000000002
   169   1      4.0899999999999963      57.259999999999991      34.765000000000001
   170   1      2.0450000000000017      55.214999999999996      38.854999999999997
   171   1      2.0450000000000017      57.259999999999991      40.899999999999999
   172   1      4.0899999999999963      55.214999999999996      40.899999999999999
   173   1      4.0899999999999963      57.259999999999991      38.854999999999997
   174   1      2.0450000000000017      55.214999999999996      42.944999999999993
   175   1      2.0450000000000017      57.259999999999991      44.989999999999995
   176   1      4.0899999999999963      55.214999999999996      44.989999999999995
   177   1      4.0899999999999963      57.259999999999991      42.944999999999993
   178   1      2.0450000000000017      55.214999999999996      47.034999999999997
   179   1      2.0450000000000017      57.259999999999991      49.079999999999998
   180   1      4.0899999999999963      55.214999999999996      49.079999999999998
   181   1      4.0899999999999963      57.259999999999991      47.034999999999997
   182   1      2.0450000000000017      55.214999999999996      51.124999999999993
   183   1      2.0450000000000017      57.259999999999991      53.170000000000002
   184   1      4.0899999999999963      55.214999999999996      53.170000000000002
   185   1      4.0899999999999963      57.259999999999991      51.124999999999993
   186   1      2.0450000000000017      55.214999999999996      55.214999999999996
   187   1      2.0450000000000017      57.259999999999991      57.259999999999991
   188   1      4.0899999999999963      55.214999999999996      57.259999999999991
   189   1      4.0899999999999963      57.259999999999991      55.214999999999996
   190   1      4.0899999999999963      55.214999999999996      61.349999999999987
   191   1      4.0899999999999963      57.259999999999991      59.304999999999993
   192   1      4.0899999999999963      57.259999999999991      63.394999999999996
   193   1      4.0899999999999963      59.304999999999993      32.719999999999999
   194   1      4.0899999999999963      61.349999999999987      30.674999999999994
   195   1      4.0899999999999963      59.304999999999993      36.810000000000002
   196   1      4.0899999999999963      61.349999999999987      34.765000000000001
   197   1      4.0899999999999963      59.304999999999993      40.899999999999999
   198   1      4.0899999999999963      61.349999999999987      38.854999999999997
   199   1      4.0899999999999963      59.304999999999993      44.989999999999995
   200   1      4.0899999999999963      61.349999999999987      42.944999999999993
   201   1      4.0899999999999963      59.304999999999993      49.079999999999998
   202   1      4.0899999999999963      61.349999999999987      47.034999999999997
   203   1      4.0899999999999963      59.304999999999993      53.170000000000002
   204   1      4.0899999999999963      61.349999999999987      51.124999999999993
   205   1      4.0899999999999963      59.304999999999993      57.259999999999991
   206   1      4.0899999999999963      61.349999999999987      55.214999999999996
   207   1      4.0899999999999963      59.304999999999993      61.349999999999987
   208   1      4.0899999999999963      61.349999999999987      59.304999999999993
   209   1      4.0899999999999963      61.349999999999987      63.394999999999996
   210   1      4.0899999999999963      63.394999999999996      32.719999999999999
   211   1      4.0899999999999963      63.394999999999996      36.810000000000002
   212   1      4.0899999999999963      63.394999999999996      40.899999999999999
   213   1      4.0899999999999963      63.394999999999996      44.989999999999995
   214   1      4.0899999999999963      63.394999999999996      49.079999999999998
   215   1      4.0899999999999963      63.394999999999996      53.170000000000002
   216   1      4.0899999999999963      63.394999999999996      57.259999999999991
   217   1      4.0899999999999963      63.394999999999996      61.349999999999987
   218   1      8.1799999999999997      18.404999999999998      20.449999999999996
   219   1      8.1799999999999997      20.449999999999996      18.404999999999998
   220   1      8.1799999999999997      18.404999999999998      24.539999999999999
   221   1      8.1799999999999997      20.449999999999996      22.494999999999997
   222   1      8.1799999999999997      18.404999999999998      28.629999999999995
   223   1      8.1799999999999997      20.449999999999996      26.584999999999994
   224   1      8.1799999999999997      18.404999999999998      32.719999999999999
   225   1      8.1799999999999997      20.449999999999996      30.674999999999994
   226   1      8.1799999999999997      18.404999999999998      36.810000000000002
   227   1      8.1799999999999997      20.449999999999996      34.765000000000001
   228   1      8.1799999999999997      18.404999999999998      40.899999999999999
   229   1      8.1799999999999997      20.449999999999996      38.854999999999997
   230   1      8.1799999999999997      18.404999999999998      44.989999999999995
   231   1      8.1799999999999997      20.449999999999996      42.944999999999993
   232   1      8.1799999999999997      18.404999999999998      49.079999999999998
   233   1      8.1799999999999997      20.449999999999996      47.034999999999997
   234   1      8.1799999999999997      18.404999999999998      53.170000000000002
   235   1      8.1799999999999997      20.449999999999996      51.124999999999993
   236   1      8.1799999999999997      18.404999999999998      57.259999999999991
   237   1      8.1799999999999997      20.449999999999996      55.214999999999996
   238   1      8.1799999999999997      18.404999999999998      61.349999999999987
   239   1      8.1799999999999997      20.449999999999996      59.304999999999993
   240   1      8.1799999999999997      18.404999999999998      65.439999999999998
   241   1      8.1799999999999997      20.449999999999996      63.394999999999996
   242   1      8.1799999999999997      18.404999999999998      69.530000000000001
   243   1      8.1799999999999997      20.449999999999996      67.484999999999999
   244   1      8.1799999999999997      18.404999999999998      73.620000000000005
   245   1      8.1799999999999997      20.449999999999996      71.575000000000003
   246   1      8.1799999999999997      20.449999999999996      75.664999999999992
   247   1      8.1799999999999997      22.494999999999997      20.449999999999996
   248   1      8.1799999999999997      24.539999999999999      18.404999999999998
   249   1       6.134999999999998      24.539999999999999      24.539999999999999
   250   1      8.1799999999999997      22.494999999999997      24.539999999999999
   251   1      8.1799999999999997      24.539999999999999      22.494999999999997
   252   1       6.134999999999998      24.539999999999999      28.629999999999995
   253   1      8.1799999999999997      22.494999999999997      28.629999999999995
   254   1      8.1799999999999997      24.539999999999999      26.584999999999994
   255   1       6.134999999999998      24.539999999999999      32.719999999999999
   256   1      8.1799999999999997      22.494999999999997      32.719999999999999
   257   1      8.1799999999999997      24.539999999999999      30.674999999999994
   258   1       6.134999999999998      24.539999999999999      36.810000000000002
   259   1      8.1799999999999997      22.494999999999997      36.810000000000002
   260   1      8.1799999999999997      24.539999999999999      34.765000000000001
   261   1       6.134999999999998      24.539999999999999      40.899999999999999
   262   1      8.1799999999999997      22.494999999999997      40.899999999999999
   263   1      8.1799999999999997      24.539999999999999      38.854999999999997
   264   1       6.134999999999998      24.539999999999999      44.989999999999995
   265   1      8.1799999999999997      22.494999999999997      44.989999999999995
   266   1      8.1799999999999997      24.539999999999999      42.944999999999993
   267   1       6.134999999999998      24.539999999999999      49.079999999999998
   268   1      8.1799999999999997      22.494999999999997      49.079999999999998
   269   1      8.1799999999999997      24.539999999999999      47.034999999999997
   270   1       6.134999999999998      24.539999999999999      53.170000000000002
   271   1      8.1799999999999997      22.494999999999997      53.170000000000002
   272   1      8.1799999999999997      24.539999999999999      51.124999999999993
   273   1       6.134999999999998      24.539999999999999      57.259999999999991
   274   1      8.1799999999999997      22.494999999999997      57.259999999999991
   275   1      8.1799999999999997      24.539999999999999      55.214999999999996
   276   1       6.134999999999998      24.539999999999999      61.349999999999987
   277   1      8.1799999999999997      22.494999999999997      61.349999999999987
   278   1      8.1799999999999997      24.539999999999999      59.304999999999993
   279   1       6.134999999999998      24.539999999999999      65.439999999999998
   280   1      8.1799999999999997      22.494999999999997      65.439999999999998
   281   1      8.1799999999999997      24.539999999999999      63.394999999999996
   282   1       6.134999999999998      24.539999999999999      69.530000000000001
   283   1      8.1799999999999997      22.494999999999997      69.530000000000001
   284   1      8.1799999999999997      24.539999999999999      67.484999999999999
   285   1      8.1799999999999997      22.494999999999997      73.620000000000005
   286   1      8.1799999999999997      24.539999999999999      71.575000000000003
   287   1      8.1799999999999997      24.539999999999999      75.664999999999992
   288   1      8.1799999999999997      26.584999999999994      20.449999999999996
   289   1      8.1799999999999997      28.629999999999995      18.404999999999998
   290   1       6.134999999999998      28.629999999999995      24.539999999999999
   291   1      8.1799999999999997      26.584999999999994      24.539999999999999
   292   1      8.1799999999999997      28.629999999999995      22.494999999999997
   293   1       6.134999999999998      26.584999999999994      26.584999999999994
   294   1       6.134999999999998      28.629999999999995      28.629999999999995
   295   1      8.1799999999999997      26.584999999999994      28.629999999999995
   296   1      8.1799999999999997      28.629999999999995      26.584999999999994
   297   1       6.134999999999998      26.584999999999994      30.674999999999994
   298   1       6.134999999999998      28.629999999999995      32.719999999999999
   299   1      8.1799999999999997      26.584999999999994      32.719999999999999
   300   1      8.1799999999999997      28.629999999999995      30.674999999999994
   301   1       6.134999999999998      26.584999999999994      34.765000000000001
   302   1       6.134999999999998      28.629999999999995      36.810000000000002
   303   1      8.1799999999999997      26.584999999999994      36.810000000000002
   304   1      8.1799999999999997      28.629999999999995      34.765000000000001
   305   1       6.134999999999998      26.584999999999994      38.854999999999997
   306   1       6.134999999999998      28.629999999999995      40.899999999999999
   307   1      8.1799999999999997      26.584999999999994      40.899999999999999
   308   1      8.1799999999999997      28.629999999999995      38.854999999999997
   309   1       6.134999999999998      26.584999999999994      42.944999999999993
   310   1       6.134999999999998      28.629999999999995      44.989999999999995
   311   1      8.1799999999999997      26.584999999999994      44.989999999999995
   312   1      8.1799999999999997      28.629999999999995      42.944999999999993
   313   1       6.134999999999998      26.584999999999994      47.034999999999997
   314   1       6.134999999999998      28.629999999999995      49.079999999999998
   315   1      8.1799999999999997      26.584999999999994      49.079999999999998
   316   1      8.1799999999999997      28.629999999999995      47.034999999999997
   317   1       6.134999999999998      26.584999999999994      51.124999999999993
   318   1       6.134999999999998      28.629999999999995      53.170000000000002
   319   1      8.1799999999999997      26.584999999999994      53.170000000000002
   320   1      8.1799999999999997      28.629999999999995      51.124999999999993
   321   1       6.134999999999998      26.584999999999994      55.214999999999996
   322   1       6.134999999999998      28.629999999999995      57.259999999999991
   323   1      8.1799999999999997      26.584999999999994      57.259999999999991
   324   1      8.1799999999999997      28.629999999999995      55.214999999999996
   325   1       6.134999999999998      26.584999999999994      59.304999999999993
   326   1       6.134999999999998      28.629999999999995      61.349999999999987
   327   1      8.1799999999999997      26.584999999999994      61.349999999999987
   328   1      8.1799999999999997      28.629999999999995      59.304999999999993
   329   1       6.134999999999998      26.584999999999994      63.394999999999996
   330   1       6.134999999999998      28.629999999999995      65.439999999999998
   331   1      8.1799999999999997      26.584999999999994      65.439999999999998
   332   1      8.1799999999999997      28.629999999999995      63.394999999999996
   333   1       6.134999999999998      26.584999999999994      67.484999999999999
   334   1       6.134999999999998      28.629999999999995      69.530000000000001
   335   1      8.1799999999999997      26.584999999999994      69.530000000000001
   336   1      8.1799999999999997      28.629999999999995      67.484999999999999
   337   1      8.1799999999999997      26.584999999999994      73.620000000000005
   338   1      8.1799999999999997      28.629999999999995      71.575000000000003
   339   1      8.1799999999999997      28.629999999999995      75.664999999999992
   340   1      8.1799999999999997      30.674999999999994      20.449999999999996
   341   1      8.1799999999999997      32.719999999999999      18.404999999999998
   342   1       6.134999999999998      32.719999999999999      24.539999999999999
   343   1      8.1799999999999997      30.674999999999994      24.539999999999999
   344   1      8.1799999999999997      32.719999999999999      22.494999999999997
   345   1       6.134999999999998      30.674999999999994      26.584999999999994
   346   1       6.134999999999998      32.719999999999999      28.629999999999995
   347   1      8.1799999999999997      30.674999999999994      28.629999999999995
   348   1      8.1799999999999997      32.719999999999999      26.584999999999994
   349   1       6.134999999999998      30.674999999999994      30.674999999999994
   350   1       6.134999999999998      32.719999999999999      32.719999999999999
   351   1      8.1799999999999997      30.674999999999994      32.719999999999999
   352   1      8.1799999999999997      32.719999999999999      30.674999999999994
   353   1       6.134999999999998      30.674999999999994      34.765000000000001
   354   1       6.134999999999998      32.719999999999999      36.810000000000002
   355   1      8.1799999999999997      30.674999999999994      36.810000000000002
   356   1      8.1799999999999997      32.719999999999999      34.765000000000001
   357   1       6.134999999999998      30.674999999999994      38.854999999999997
   358   1       6.134999999999998      32.719999999999999      40.899999999999999