model_files/CuFeNi/CuFeNi_30000/CuFeNi_531/CuFeNi_531_fcc_29859_temp.data (written by ASE) 

29859 	 atoms 
3  atom types
0.0                      96  xlo xhi
0.0                      96  ylo yhi
0.0                      96  zlo zhi


Atoms 

     1   1      95.999999999999986      46.539999999999992      48.329999999999998
     2   1      95.999999999999986      48.329999999999998      46.539999999999992
     3   1      95.999999999999986      48.329999999999998       50.11999999999999
     4   1      95.999999999999986       50.11999999999999      48.329999999999998
     5   1      3.5799999999999907      41.169999999999995      46.539999999999992
     6   1      3.5799999999999907      42.959999999999994      44.749999999999993
     7   1      3.5799999999999907      41.169999999999995       50.11999999999999
     8   1      3.5799999999999907      42.959999999999994      48.329999999999998
     9   1      3.5799999999999907      42.959999999999994      51.909999999999997
    10   1      3.5799999999999907      44.749999999999993      42.959999999999994
    11   1      3.5799999999999907      46.539999999999992      41.169999999999995
    12   1       1.789999999999992      44.749999999999993      44.749999999999993
    13   1       1.789999999999992      46.539999999999992      46.539999999999992
    14   1      3.5799999999999907      44.749999999999993      46.539999999999992
    15   1      3.5799999999999907      46.539999999999992      44.749999999999993
    16   1       1.789999999999992      44.749999999999993      48.329999999999998
    17   1       1.789999999999992      46.539999999999992       50.11999999999999
    18   1      3.5799999999999907      44.749999999999993       50.11999999999999
    19   1      3.5799999999999907      46.539999999999992      48.329999999999998
    20   1       1.789999999999992      44.749999999999993      51.909999999999997
    21   1      3.5799999999999907      44.749999999999993      53.699999999999996
    22   1      3.5799999999999907      46.539999999999992      51.909999999999997
    23   1      3.5799999999999907      46.539999999999992      55.489999999999988
    24   1      3.5799999999999907      48.329999999999998      42.959999999999994
    25   1      3.5799999999999907       50.11999999999999      41.169999999999995
    26   1       1.789999999999992      48.329999999999998      44.749999999999993
    27   1       1.789999999999992       50.11999999999999      46.539999999999992
    28   1      3.5799999999999907      48.329999999999998      46.539999999999992
    29   1      3.5799999999999907       50.11999999999999      44.749999999999993
    30   1       1.789999999999992      48.329999999999998      48.329999999999998
    31   1       1.789999999999992       50.11999999999999       50.11999999999999
    32   1      3.5799999999999907      48.329999999999998       50.11999999999999
    33   1      3.5799999999999907       50.11999999999999      48.329999999999998
    34   1       1.789999999999992      48.329999999999998      51.909999999999997
    35   1      3.5799999999999907      48.329999999999998      53.699999999999996
    36   1      3.5799999999999907       50.11999999999999      51.909999999999997
    37   1      3.5799999999999907       50.11999999999999      55.489999999999988
    38   1      3.5799999999999907      51.909999999999997      42.959999999999994
    39   1       1.789999999999992      51.909999999999997      44.749999999999993
    40   1      3.5799999999999907      51.909999999999997      46.539999999999992
    41   1      3.5799999999999907      53.699999999999996      44.749999999999993
    42   1       1.789999999999992      51.909999999999997      48.329999999999998
    43   1      3.5799999999999907      51.909999999999997       50.11999999999999
    44   1      3.5799999999999907      53.699999999999996      48.329999999999998
    45   1       1.789999999999992      51.909999999999997      51.909999999999997
    46   1      3.5799999999999907      51.909999999999997      53.699999999999996
    47   1      3.5799999999999907      53.699999999999996      51.909999999999997
    48   1      3.5799999999999907      55.489999999999988      46.539999999999992
    49   1      3.5799999999999907      55.489999999999988       50.11999999999999
    50   1      7.1599999999999966       35.79999999999999      44.749999999999993
    51   1      7.1599999999999966       35.79999999999999      48.329999999999998
    52   1      7.1599999999999966       35.79999999999999      51.909999999999997
    53   1      7.1599999999999966      37.589999999999989      39.379999999999995
    54   1      7.1599999999999966      39.379999999999995      37.589999999999989
    55   1      5.3699999999999903      39.379999999999995      42.959999999999994
    56   1      7.1599999999999966      37.589999999999989      42.959999999999994
    57   1      7.1599999999999966      39.379999999999995      41.169999999999995
    58   1      5.3699999999999903      39.379999999999995      46.539999999999992
    59   1      7.1599999999999966      37.589999999999989      46.539999999999992
    60   1      7.1599999999999966      39.379999999999995      44.749999999999993
    61   1      5.3699999999999903      37.589999999999989      48.329999999999998
    62   1      5.3699999999999903      39.379999999999995       50.11999999999999
    63   1      7.1599999999999966      37.589999999999989       50.11999999999999
    64   1      7.1599999999999966      39.379999999999995      48.329999999999998
    65   1      5.3699999999999903      39.379999999999995      53.699999999999996
    66   1      7.1599999999999966      37.589999999999989      53.699999999999996
    67   1      7.1599999999999966      39.379999999999995      51.909999999999997
    68   1      7.1599999999999966      37.589999999999989      57.279999999999987
    69   1      7.1599999999999966      39.379999999999995      55.489999999999988
    70   1      7.1599999999999966      39.379999999999995      59.069999999999993
    71   1      5.3699999999999903      42.959999999999994      39.379999999999995
    72   1      7.1599999999999966      41.169999999999995      39.379999999999995
    73   1      7.1599999999999966      42.959999999999994      37.589999999999989
    74   1      5.3699999999999903      41.169999999999995      41.169999999999995
    75   1      5.3699999999999903      42.959999999999994      42.959999999999994
    76   1      7.1599999999999966      41.169999999999995      42.959999999999994
    77   1      7.1599999999999966      42.959999999999994      41.169999999999995
    78   1      5.3699999999999903      41.169999999999995      44.749999999999993
    79   1      5.3699999999999903      42.959999999999994      46.539999999999992
    80   1      7.1599999999999966      41.169999999999995      46.539999999999992
    81   1      7.1599999999999966      42.959999999999994      44.749999999999993
    82   1      5.3699999999999903      41.169999999999995      48.329999999999998
    83   1      5.3699999999999903      42.959999999999994       50.11999999999999
    84   1      7.1599999999999966      41.169999999999995       50.11999999999999
    85   1      7.1599999999999966      42.959999999999994      48.329999999999998
    86   1      5.3699999999999903      41.169999999999995      51.909999999999997
    87   1      5.3699999999999903      42.959999999999994      53.699999999999996
    88   1      7.1599999999999966      41.169999999999995      53.699999999999996
    89   1      7.1599999999999966      42.959999999999994      51.909999999999997
    90   1      5.3699999999999903      41.169999999999995      55.489999999999988
    91   1      5.3699999999999903      42.959999999999994      57.279999999999987
    92   1      7.1599999999999966      41.169999999999995      57.279999999999987
    93   1      7.1599999999999966      42.959999999999994      55.489999999999988
    94   1      7.1599999999999966      42.959999999999994      59.069999999999993
    95   1      7.1599999999999966      44.749999999999993       35.79999999999999
    96   1      5.3699999999999903      46.539999999999992      39.379999999999995
    97   1      7.1599999999999966      44.749999999999993      39.379999999999995
    98   1      7.1599999999999966      46.539999999999992      37.589999999999989
    99   1      5.3699999999999903      44.749999999999993      41.169999999999995
   100   1      5.3699999999999903      46.539999999999992      42.959999999999994
   101   1      7.1599999999999966      44.749999999999993      42.959999999999994
   102   1      7.1599999999999966      46.539999999999992      41.169999999999995
   103   1      5.3699999999999903      44.749999999999993      44.749999999999993
   104   1      5.3699999999999903      46.539999999999992      46.539999999999992
   105   1      7.1599999999999966      44.749999999999993      46.539999999999992
   106   1      7.1599999999999966      46.539999999999992      44.749999999999993
   107   1      5.3699999999999903      44.749999999999993      48.329999999999998
   108   1      5.3699999999999903      46.539999999999992       50.11999999999999
   109   1      7.1599999999999966      44.749999999999993       50.11999999999999
   110   1      7.1599999999999966      46.539999999999992      48.329999999999998
   111   1      5.3699999999999903      44.749999999999993      51.909999999999997
   112   1      5.3699999999999903      46.539999999999992      53.699999999999996
   113   1      7.1599999999999966      44.749999999999993      53.699999999999996
   114   1      7.1599999999999966      46.539999999999992      51.909999999999997
   115   1      5.3699999999999903      44.749999999999993      55.489999999999988
   116   1      5.3699999999999903      46.539999999999992      57.279999999999987
   117   1      7.1599999999999966      44.749999999999993      57.279999999999987
   118   1      7.1599999999999966      46.539999999999992      55.489999999999988
   119   1      7.1599999999999966      44.749999999999993      60.859999999999985
   120   1      7.1599999999999966      46.539999999999992      59.069999999999993
   121   1      7.1599999999999966      48.329999999999998       35.79999999999999
   122   1      5.3699999999999903      48.329999999999998      37.589999999999989
   123   1      5.3699999999999903       50.11999999999999      39.379999999999995
   124   1      7.1599999999999966      48.329999999999998      39.379999999999995
   125   1      7.1599999999999966       50.11999999999999      37.589999999999989
   126   1      5.3699999999999903      48.329999999999998      41.169999999999995
   127   1      5.3699999999999903       50.11999999999999      42.959999999999994
   128   1      7.1599999999999966      48.329999999999998      42.959999999999994
   129   1      7.1599999999999966       50.11999999999999      41.169999999999995
   130   1      5.3699999999999903      48.329999999999998      44.749999999999993
   131   1      5.3699999999999903       50.11999999999999      46.539999999999992
   132   1      7.1599999999999966      48.329999999999998      46.539999999999992
   133   1      7.1599999999999966       50.11999999999999      44.749999999999993
   134   1      5.3699999999999903      48.329999999999998      48.329999999999998
   135   1      5.3699999999999903       50.11999999999999       50.11999999999999
   136   1      7.1599999999999966      48.329999999999998       50.11999999999999
   137   1      7.1599999999999966       50.11999999999999      48.329999999999998
   138   1      5.3699999999999903      48.329999999999998      51.909999999999997
   139   1      5.3699999999999903       50.11999999999999      53.699999999999996
   140   1      7.1599999999999966      48.329999999999998      53.699999999999996
   141   1      7.1599999999999966       50.11999999999999      51.909999999999997
   142   1      5.3699999999999903      48.329999999999998      55.489999999999988
   143   1      5.3699999999999903       50.11999999999999      57.279999999999987
   144   1      7.1599999999999966      48.329999999999998      57.279999999999987
   145   1      7.1599999999999966       50.11999999999999      55.489999999999988
   146   1      5.3699999999999903      48.329999999999998      59.069999999999993
   147   1      7.1599999999999966      48.329999999999998      60.859999999999985
   148   1      7.1599999999999966       50.11999999999999      59.069999999999993
   149   1      7.1599999999999966      51.909999999999997       35.79999999999999
   150   1      5.3699999999999903      53.699999999999996      39.379999999999995
   151   1      7.1599999999999966      51.909999999999997      39.379999999999995
   152   1      7.1599999999999966      53.699999999999996      37.589999999999989
   153   1      5.3699999999999903      51.909999999999997      41.169999999999995
   154   1      5.3699999999999903      53.699999999999996      42.959999999999994
   155   1      7.1599999999999966      51.909999999999997      42.959999999999994
   156   1      7.1599999999999966      53.699999999999996      41.169999999999995
   157   1      5.3699999999999903      51.909999999999997      44.749999999999993
   158   1      5.3699999999999903      53.699999999999996      46.539999999999992
   159   1      7.1599999999999966      51.909999999999997      46.539999999999992
   160   1      7.1599999999999966      53.699999999999996      44.749999999999993
   161   1      5.3699999999999903      51.909999999999997      48.329999999999998
   162   1      5.3699999999999903      53.699999999999996       50.11999999999999
   163   1      7.1599999999999966      51.909999999999997       50.11999999999999
   164   1      7.1599999999999966      53.699999999999996      48.329999999999998
   165   1      5.3699999999999903      51.909999999999997      51.909999999999997
   166   1      5.3699999999999903      53.699999999999996      53.699999999999996
   167   1      7.1599999999999966      51.909999999999997      53.699999999999996
   168   1      7.1599999999999966      53.699999999999996      51.909999999999997
   169   1      5.3699999999999903      51.909999999999997      55.489999999999988
   170   1      5.3699999999999903      53.699999999999996      57.279999999999987
   171   1      7.1599999999999966      51.909999999999997      57.279999999999987
   172   1      7.1599999999999966      53.699999999999996      55.489999999999988
   173   1      7.1599999999999966      51.909999999999997      60.859999999999985
   174   1      7.1599999999999966      53.699999999999996      59.069999999999993
   175   1      7.1599999999999966      55.489999999999988      39.379999999999995
   176   1      7.1599999999999966      57.279999999999987      37.589999999999989
   177   1      5.3699999999999903      55.489999999999988      41.169999999999995
   178   1      5.3699999999999903      57.279999999999987      42.959999999999994
   179   1      7.1599999999999966      55.489999999999988      42.959999999999994
   180   1      7.1599999999999966      57.279999999999987      41.169999999999995
   181   1      5.3699999999999903      55.489999999999988      44.749999999999993
   182   1      5.3699999999999903      57.279999999999987      46.539999999999992
   183   1      7.1599999999999966      55.489999999999988      46.539999999999992
   184   1      7.1599999999999966      57.279999999999987      44.749999999999993
   185   1      5.3699999999999903      55.489999999999988      48.329999999999998
   186   1      5.3699999999999903      57.279999999999987       50.11999999999999
   187   1      7.1599999999999966      55.489999999999988       50.11999999999999
   188   1      7.1599999999999966      57.279999999999987      48.329999999999998
   189   1      5.3699999999999903      55.489999999999988      51.909999999999997
   190   1      5.3699999999999903      57.279999999999987      53.699999999999996
   191   1      7.1599999999999966      55.489999999999988      53.699999999999996
   192   1      7.1599999999999966      57.279999999999987      51.909999999999997
   193   1      5.3699999999999903      55.489999999999988      55.489999999999988
   194   1      7.1599999999999966      55.489999999999988      57.279999999999987
   195   1      7.1599999999999966      57.279999999999987      55.489999999999988
   196   1      7.1599999999999966      57.279999999999987      59.069999999999993
   197   1      7.1599999999999966      59.069999999999993      39.379999999999995
   198   1      7.1599999999999966      59.069999999999993      42.959999999999994
   199   1      7.1599999999999966      59.069999999999993      46.539999999999992
   200   1      7.1599999999999966      60.859999999999985      44.749999999999993
   201   1      5.3699999999999903      59.069999999999993      48.329999999999998
   202   1      7.1599999999999966      59.069999999999993       50.11999999999999
   203   1      7.1599999999999966      60.859999999999985      48.329999999999998
   204   1      7.1599999999999966      59.069999999999993      53.699999999999996
   205   1      7.1599999999999966      60.859999999999985      51.909999999999997
   206   1      7.1599999999999966      59.069999999999993      57.279999999999987
   207   1      10.739999999999995       28.63999999999999      48.329999999999998
   208   1      10.739999999999995      32.219999999999992      37.589999999999989
   209   1      10.739999999999995      30.429999999999993      42.959999999999994
   210   1      10.739999999999995      32.219999999999992      41.169999999999995
   211   1      8.9499999999999957      32.219999999999992      46.539999999999992
   212   1      10.739999999999995      30.429999999999993      46.539999999999992
   213   1      10.739999999999995      32.219999999999992      44.749999999999993
   214   1      8.9499999999999957      32.219999999999992       50.11999999999999
   215   1      10.739999999999995      30.429999999999993       50.11999999999999
   216   1      10.739999999999995      32.219999999999992      48.329999999999998
   217   1      10.739999999999995      30.429999999999993      53.699999999999996
   218   1      10.739999999999995      32.219999999999992      51.909999999999997
   219   1      10.739999999999995      32.219999999999992      55.489999999999988
   220   1      10.739999999999995      32.219999999999992      59.069999999999993
   221   1      8.9499999999999957       35.79999999999999       35.79999999999999
   222   1      10.739999999999995      34.009999999999991       35.79999999999999
   223   1      10.739999999999995       35.79999999999999      34.009999999999991
   224   1      8.9499999999999957       35.79999999999999      39.379999999999995
   225   1      10.739999999999995      34.009999999999991      39.379999999999995
   226   1      10.739999999999995       35.79999999999999      37.589999999999989
   227   1      8.9499999999999957      34.009999999999991      41.169999999999995
   228   1      8.9499999999999957       35.79999999999999      42.959999999999994
   229   1      10.739999999999995      34.009999999999991      42.959999999999994
   230   1      10.739999999999995       35.79999999999999      41.169999999999995
   231   1      8.9499999999999957      34.009999999999991      44.749999999999993
   232   1      8.9499999999999957       35.79999999999999      46.539999999999992
   233   1      10.739999999999995      34.009999999999991      46.539999999999992
   234   1      10.739999999999995       35.79999999999999      44.749999999999993
   235   1      8.9499999999999957      34.009999999999991      48.329999999999998
   236   1      8.9499999999999957       35.79999999999999       50.11999999999999
   237   1      10.739999999999995      34.009999999999991       50.11999999999999
   238   1      10.739999999999995       35.79999999999999      48.329999999999998
   239   1      8.9499999999999957      34.009999999999991      51.909999999999997
   240   1      8.9499999999999957       35.79999999999999      53.699999999999996
   241   1      10.739999999999995      34.009999999999991      53.699999999999996
   242   1      10.739999999999995       35.79999999999999      51.909999999999997
   243   1      8.9499999999999957      34.009999999999991      55.489999999999988
   244   1      8.9499999999999957       35.79999999999999      57.279999999999987
   245   1      10.739999999999995      34.009999999999991      57.279999999999987
   246   1      10.739999999999995       35.79999999999999      55.489999999999988
   247   1      8.9499999999999957       35.79999999999999      60.859999999999985
   248   1      10.739999999999995      34.009999999999991      60.859999999999985
   249   1      10.739999999999995       35.79999999999999      59.069999999999993
   250   1      10.739999999999995       35.79999999999999      62.649999999999991
   251   1      10.739999999999995      37.589999999999989      32.219999999999992
   252   1      8.9499999999999957      39.379999999999995       35.79999999999999
   253   1      10.739999999999995      37.589999999999989       35.79999999999999
   254   1      10.739999999999995      39.379999999999995      34.009999999999991
   255   1      8.9499999999999957      37.589999999999989      37.589999999999989
   256   1      8.9499999999999957      39.379999999999995      39.379999999999995
   257   1      10.739999999999995      37.589999999999989      39.379999999999995
   258   1      10.739999999999995      39.379999999999995      37.589999999999989
   259   1      8.9499999999999957      37.589999999999989      41.169999999999995
   260   1      8.9499999999999957      39.379999999999995      42.959999999999994
   261   1      10.739999999999995      37.589999999999989      42.959999999999994
   262   1      10.739999999999995      39.379999999999995      41.169999999999995
   263   1      8.9499999999999957      37.589999999999989      44.749999999999993
   264   1      8.9499999999999957      39.379999999999995      46.539999999999992
   265   1      10.739999999999995      37.589999999999989      46.539999999999992
   266   1      10.739999999999995      39.379999999999995      44.749999999999993
   267   1      8.9499999999999957      37.589999999999989      48.329999999999998
   268   1      8.9499999999999957      39.379999999999995       50.11999999999999
   269   1      10.739999999999995      37.589999999999989       50.11999999999999
   270   1      10.739999999999995      39.379999999999995      48.329999999999998
   271   1      8.9499999999999957      37.589999999999989      51.909999999999997
   272   1      8.9499999999999957      39.379999999999995      53.699999999999996
   273   1      10.739999999999995      37.589999999999989      53.699999999999996
   274   1      10.739999999999995      39.379999999999995      51.909999999999997
   275   1      8.9499999999999957      37.589999999999989      55.489999999999988
   276   1      8.9499999999999957      39.379999999999995      57.279999999999987
   277   1      10.739999999999995      37.589999999999989      57.279999999999987
   278   1      10.739999999999995      39.379999999999995      55.489999999999988
   279   1      8.9499999999999957      37.589999999999989      59.069999999999993
   280   1      8.9499999999999957      39.379999999999995      60.859999999999985
   281   1      10.739999999999995      37.589999999999989      60.859999999999985
   282   1      10.739999999999995      39.379999999999995      59.069999999999993
   283   1      10.739999999999995      37.589999999999989      64.439999999999998
   284   1      10.739999999999995      39.379999999999995      62.649999999999991
   285   1      10.739999999999995      41.169999999999995      32.219999999999992
   286   1      10.739999999999995      42.959999999999994      30.429999999999993
   287   1      8.9499999999999957      41.169999999999995      34.009999999999991
   288   1      8.9499999999999957      42.959999999999994       35.79999999999999
   289   1      10.739999999999995      41.169999999999995       35.79999999999999
   290   1      10.739999999999995      42.959999999999994      34.009999999999991
   291   1      8.9499999999999957      41.169999999999995      37.589999999999989
   292   1      8.9499999999999957      42.959999999999994      39.379999999999995
   293   1      10.739999999999995      41.169999999999995      39.379999999999995
   294   1      10.739999999999995      42.959999999999994      37.589999999999989
   295   1      8.9499999999999957      41.169999999999995      41.169999999999995
   296   1      8.9499999999999957      42.959999999999994      42.959999999999994
   297   1      10.739999999999995      41.169999999999995      42.959999999999994
   298   1      10.739999999999995      42.959999999999994      41.169999999999995
   299   1      8.9499999999999957      41.169999999999995      44.749999999999993
   300   1      8.9499999999999957      42.959999999999994      46.539999999999992
   301   1      10.739999999999995      41.169999999999995      46.539999999999992
   302   1      10.739999999999995      42.959999999999994      44.749999999999993
   303   1      8.9499999999999957      41.169999999999995      48.329999999999998
   304   1      8.9499999999999957      42.959999999999994       50.11999999999999
   305   1      10.739999999999995      41.169999999999995       50.11999999999999
   306   1      10.739999999999995      42.959999999999994      48.329999999999998
   307   1      8.9499999999999957      41.169999999999995      51.909999999999997
   308   1      8.9499999999999957      42.959999999999994      53.699999999999996
   309   1      10.739999999999995      41.169999999999995      53.699999999999996
   310   1      10.739999999999995      42.959999999999994      51.909999999999997
   311   1      8.9499999999999957      41.169999999999995      55.489999999999988
   312   1      8.9499999999999957      42.959999999999994      57.279999999999987
   313   1      10.739999999999995      41.169999999999995      57.279999999999987
   314   1      10.739999999999995      42.959999999999994      55.489999999999988
   315   1      8.9499999999999957      41.169999999999995      59.069999999999993
   316   1      8.9499999999999957      42.959999999999994      60.859999999999985
   317   1      10.739999999999995      41.169999999999995      60.859999999999985
   318   1      10.739999999999995      42.959999999999994      59.069999999999993
   319   1      8.9499999999999957      41.169999999999995      62.649999999999991
   320   1      10.739999999999995      41.169999999999995      64.439999999999998
   321   1      10.739999999999995      42.959999999999994      62.649999999999991
   322   1      10.739999999999995      42.959999999999994       66.22999999999999
   323   1      8.9499999999999957      46.539999999999992      32.219999999999992
   324   1      10.739999999999995      44.749999999999993      32.219999999999992
   325   1      10.739999999999995      46.539999999999992      30.429999999999993
   326   1      8.9499999999999957      44.749999999999993      34.009999999999991
   327   1      8.9499999999999957      46.539999999999992       35.79999999999999
   328   1      10.739999999999995      44.749999999999993       35.79999999999999
   329   1      10.739999999999995      46.539999999999992      34.009999999999991
   330   1      8.9499999999999957      44.749999999999993      37.589999999999989
   331   1      8.9499999999999957      46.539999999999992      39.379999999999995
   332   1      10.739999999999995      44.749999999999993      39.379999999999995
   333   1      10.739999999999995      46.539999999999992      37.589999999999989
   334   1      8.9499999999999957      44.749999999999993      41.169999999999995
   335   1      8.9499999999999957      46.539999999999992      42.959999999999994
   336   1      10.739999999999995      44.749999999999993      42.959999999999994
   337   1      10.739999999999995      46.539999999999992      41.169999999999995
   338   1      8.9499999999999957      44.749999999999993      44.749999999999993
   339   1      8.9499999999999957      46.539999999999992      46.539999999999992
   340   1      10.739999999999995      44.749999999999993      46.539999999999992
   341   1      10.739999999999995      46.539999999999992      44.749999999999993
   342   1      8.9499999999999957      44.749999999999993      48.329999999999998
   343   1      8.9499999999999957      46.539999999999992       50.11999999999999
   344   1      10.739999999999995      44.749999999999993       50.11999999999999
   345   1      10.739999999999995      46.539999999999992      48.329999999999998
   346   1      8.9499999999999957      44.749999999999993      51.909999999999997
   347   1      8.9499999999999957      46.539999999999992      53.699999999999996
   348   1      10.739999999999995      44.749999999999993      53.699999999999996
   349   1      10.739999999999995      46.539999999999992      51.909999999999997
   350   1      8.9499999999999957      44.749999999999993      55.489999999999988
   351   1      8.9499999999999957      46.539999999999992      57.279999999999987
   352   1      10.739999999999995      44.749999999999993      57.279999999999987
   353   1      10.739999999999995      46.539999999999992      55.489999999999988
   354   1      8.9499999999999957      44.749999999999993      59.069999999999993
   355   1      8.9499999999999957      46.539999999999992      60.859999999999985
   356   1      10.739999999999995      44.749999999999993      60.859999999999985
   357   1      10.739999999999995      46.539999999999992      59.069999999999993
   358   1      8.9499999999999957      44.749999999999993      62.649999999999991