LAMMPS data file via write_data, version 30 Nov 2020, timestep = 0

29755 atoms
5 atom types

0 81 xlo xhi
0 81 ylo yhi
0 81 zlo zhi

Masses

1 58.7
2 55.8
3 52
4 59
5 26

Atoms # atomic

1 2 1.8049999999999997 28.88 30.685 0 0 0
2 3 1.8049999999999997 30.685 28.88 0 0 0
3 3 1.8049999999999997 28.88 34.295 0 0 0
4 2 1.8049999999999997 30.685 32.49 0 0 0
5 3 1.8049999999999997 28.88 37.905 0 0 0
6 1 1.8049999999999997 30.685 36.1 0 0 0
8 2 1.8049999999999997 30.685 39.71 0 0 0
14 3 1.8049999999999997 32.49 30.685 0 0 0
15 3 1.8049999999999997 34.295 28.88 0 0 0
16 1 1.8049999999999997 32.49 34.295 0 0 0
17 5 1.8049999999999997 34.295 32.49 0 0 0
18 2 1.8049999999999997 32.49 37.905 0 0 0
19 1 1.8049999999999997 34.295 36.1 0 0 0
21 3 1.8049999999999997 34.295 39.71 0 0 0
27 1 1.8049999999999997 36.1 30.685 0 0 0
28 1 1.8049999999999997 37.905 28.88 0 0 0
29 3 1.8049999999999997 36.1 34.295 0 0 0
30 3 1.8049999999999997 37.905 32.49 0 0 0
31 2 0 36.1 36.1 0 0 0
32 3 0 37.905 37.905 0 0 0
33 3 1.8049999999999997 36.1 37.905 0 0 0
34 4 1.8049999999999997 37.905 36.1 0 0 0
35 4 0 36.1 39.71 0 0 0
38 5 1.8049999999999997 37.905 39.71 0 0 0
45 2 1.8049999999999997 39.71 30.685 0 0 0
47 4 1.8049999999999997 39.71 34.295 0 0 0
49 3 0 39.71 36.1 0 0 0
51 3 1.8049999999999997 39.71 37.905 0 0 0
53 1 0 39.71 39.71 0 0 0
98 3 5.414999999999999 14.44 16.245 0 0 0
99 2 5.414999999999999 16.245 14.44 0 0 0
100 3 5.414999999999999 14.44 19.855 0 0 0
101 1 5.414999999999999 16.245 18.05 0 0 0
102 4 5.414999999999999 14.44 23.464999999999996 0 0 0
103 5 5.414999999999999 16.245 21.659999999999997 0 0 0
104 5 5.414999999999999 14.44 27.075 0 0 0
105 3 5.414999999999999 16.245 25.27 0 0 0
106 1 5.414999999999999 14.44 30.685 0 0 0
107 5 5.414999999999999 16.245 28.88 0 0 0
108 4 5.414999999999999 14.44 34.295 0 0 0
109 1 5.414999999999999 16.245 32.49 0 0 0
110 2 5.414999999999999 14.44 37.905 0 0 0
111 4 5.414999999999999 16.245 36.1 0 0 0
113 4 5.414999999999999 16.245 39.71 0 0 0
127 3 5.414999999999999 18.05 16.245 0 0 0
128 3 5.414999999999999 19.855 14.44 0 0 0
129 1 5.414999999999999 18.05 19.855 0 0 0
130 5 5.414999999999999 19.855 18.05 0 0 0
131 5 5.414999999999999 18.05 23.464999999999996 0 0 0
132 4 5.414999999999999 19.855 21.659999999999997 0 0 0
133 1 5.414999999999999 18.05 27.075 0 0 0
134 1 5.414999999999999 19.855 25.27 0 0 0
135 4 5.414999999999999 18.05 30.685 0 0 0
136 4 5.414999999999999 19.855 28.88 0 0 0
137 5 5.414999999999999 18.05 34.295 0 0 0
138 4 5.414999999999999 19.855 32.49 0 0 0
139 3 5.414999999999999 18.05 37.905 0 0 0
140 2 5.414999999999999 19.855 36.1 0 0 0
142 4 5.414999999999999 19.855 39.71 0 0 0
156 2 5.414999999999999 21.659999999999997 16.245 0 0 0
157 5 5.414999999999999 23.464999999999996 14.44 0 0 0
158 4 5.414999999999999 21.659999999999997 19.855 0 0 0
159 1 5.414999999999999 23.464999999999996 18.05 0 0 0
160 1 3.6099999999999994 21.659999999999997 21.659999999999997 0 0 0
161 5 3.6099999999999994 23.464999999999996 23.464999999999996 0 0 0
162 3 5.414999999999999 21.659999999999997 23.464999999999996 0 0 0
163 4 5.414999999999999 23.464999999999996 21.659999999999997 0 0 0
164 4 3.6099999999999994 21.659999999999997 25.27 0 0 0
165 5 3.6099999999999994 23.464999999999996 27.075 0 0 0
166 5 5.414999999999999 21.659999999999997 27.075 0 0 0
167 5 5.414999999999999 23.464999999999996 25.27 0 0 0
168 4 3.6099999999999994 21.659999999999997 28.88 0 0 0
169 5 3.6099999999999994 23.464999999999996 30.685 0 0 0
170 3 5.414999999999999 21.659999999999997 30.685 0 0 0
171 4 5.414999999999999 23.464999999999996 28.88 0 0 0
172 4 3.6099999999999994 21.659999999999997 32.49 0 0 0
173 4 3.6099999999999994 23.464999999999996 34.295 0 0 0
174 1 5.414999999999999 21.659999999999997 34.295 0 0 0
175 5 5.414999999999999 23.464999999999996 32.49 0 0 0
176 1 3.6099999999999994 21.659999999999997 36.1 0 0 0
177 4 3.6099999999999994 23.464999999999996 37.905 0 0 0
178 4 5.414999999999999 21.659999999999997 37.905 0 0 0
179 3 5.414999999999999 23.464999999999996 36.1 0 0 0
180 2 3.6099999999999994 21.659999999999997 39.71 0 0 0
183 4 5.414999999999999 23.464999999999996 39.71 0 0 0
206 2 5.414999999999999 25.27 16.245 0 0 0
207 4 5.414999999999999 27.075 14.44 0 0 0
208 1 5.414999999999999 25.27 19.855 0 0 0
209 4 5.414999999999999 27.075 18.05 0 0 0
210 4 3.6099999999999994 25.27 21.659999999999997 0 0 0
211 4 3.6099999999999994 27.075 23.464999999999996 0 0 0
212 2 5.414999999999999 25.27 23.464999999999996 0 0 0
213 2 5.414999999999999 27.075 21.659999999999997 0 0 0
214 4 3.6099999999999994 25.27 25.27 0 0 0
215 5 3.6099999999999994 27.075 27.075 0 0 0
216 3 5.414999999999999 25.27 27.075 0 0 0
217 3 5.414999999999999 27.075 25.27 0 0 0
218 3 3.6099999999999994 25.27 28.88 0 0 0
219 1 3.6099999999999994 27.075 30.685 0 0 0
220 5 5.414999999999999 25.27 30.685 0 0 0
221 4 5.414999999999999 27.075 28.88 0 0 0
222 5 3.6099999999999994 25.27 32.49 0 0 0
223 4 3.6099999999999994 27.075 34.295 0 0 0
224 1 5.414999999999999 25.27 34.295 0 0 0
225 5 5.414999999999999 27.075 32.49 0 0 0
226 1 3.6099999999999994 25.27 36.1 0 0 0
227 4 3.6099999999999994 27.075 37.905 0 0 0
228 2 5.414999999999999 25.27 37.905 0 0 0
229 2 5.414999999999999 27.075 36.1 0 0 0
230 2 3.6099999999999994 25.27 39.71 0 0 0
233 2 5.414999999999999 27.075 39.71 0 0 0
256 1 5.414999999999999 28.88 16.245 0 0 0
257 5 5.414999999999999 30.685 14.44 0 0 0
258 1 5.414999999999999 28.88 19.855 0 0 0
259 3 5.414999999999999 30.685 18.05 0 0 0
260 5 3.6099999999999994 28.88 21.659999999999997 0 0 0
261 1 3.6099999999999994 30.685 23.464999999999996 0 0 0
262 1 5.414999999999999 28.88 23.464999999999996 0 0 0
263 3 5.414999999999999 30.685 21.659999999999997 0 0 0
264 5 3.6099999999999994 28.88 25.27 0 0 0
265 5 3.6099999999999994 30.685 27.075 0 0 0
266 1 5.414999999999999 28.88 27.075 0 0 0
267 5 5.414999999999999 30.685 25.27 0 0 0
268 5 3.6099999999999994 28.88 28.88 0 0 0
269 1 3.6099999999999994 30.685 30.685 0 0 0
270 3 5.414999999999999 28.88 30.685 0 0 0
271 1 5.414999999999999 30.685 28.88 0 0 0
272 3 3.6099999999999994 28.88 32.49 0 0 0
273 5 3.6099999999999994 30.685 34.295 0 0 0
274 4 5.414999999999999 28.88 34.295 0 0 0
275 3 5.414999999999999 30.685 32.49 0 0 0
276 5 3.6099999999999994 28.88 36.1 0 0 0
277 2 3.6099999999999994 30.685 37.905 0 0 0
278 1 5.414999999999999 28.88 37.905 0 0 0
279 4 5.414999999999999 30.685 36.1 0 0 0
280 4 3.6099999999999994 28.88 39.71 0 0 0
283 4 5.414999999999999 30.685 39.71 0 0 0
306 4 5.414999999999999 32.49 16.245 0 0 0
307 4 5.414999999999999 34.295 14.44 0 0 0
308 1 5.414999999999999 32.49 19.855 0 0 0
309 4 5.414999999999999 34.295 18.05 0 0 0
310 5 3.6099999999999994 32.49 21.659999999999997 0 0 0
311 1 3.6099999999999994 34.295 23.464999999999996 0 0 0
312 1 5.414999999999999 32.49 23.464999999999996 0 0 0
313 5 5.414999999999999 34.295 21.659999999999997 0 0 0
314 4 3.6099999999999994 32.49 25.27 0 0 0
315 1 3.6099999999999994 34.295 27.075 0 0 0
316 5 5.414999999999999 32.49 27.075 0 0 0
317 3 5.414999999999999 34.295 25.27 0 0 0
318 4 3.6099999999999994 32.49 28.88 0 0 0
319 5 3.6099999999999994 34.295 30.685 0 0 0
320 5 5.414999999999999 32.49 30.685 0 0 0
321 2 5.414999999999999 34.295 28.88 0 0 0
322 5 3.6099999999999994 32.49 32.49 0 0 0
323 2 3.6099999999999994 34.295 34.295 0 0 0
324 4 5.414999999999999 32.49 34.295 0 0 0
325 4 5.414999999999999 34.295 32.49 0 0 0
326 1 3.6099999999999994 32.49 36.1 0 0 0
327 4 3.6099999999999994 34.295 37.905 0 0 0
328 5 5.414999999999999 32.49 37.905 0 0 0
329 4 5.414999999999999 34.295 36.1 0 0 0
330 1 3.6099999999999994 32.49 39.71 0 0 0
333 3 5.414999999999999 34.295 39.71 0 0 0
356 2 5.414999999999999 36.1 16.245 0 0 0
357 2 5.414999999999999 37.905 14.44 0 0 0
358 3 5.414999999999999 36.1 19.855 0 0 0
359 2 5.414999999999999 37.905 18.05 0 0 0
360 3 3.6099999999999994 36.1 21.659999999999997 0 0 0
361 1 3.6099999999999994 37.905 23.464999999999996 0 0 0
362 5 5.414999999999999 36.1 23.464999999999996 0 0 0
363 3 5.414999999999999 37.905 21.659999999999997 0 0 0
364 4 3.6099999999999994 36.1 25.27 0 0 0
365 4 3.6099999999999994 37.905 27.075 0 0 0
366 4 5.414999999999999 36.1 27.075 0 0 0
367 1 5.414999999999999 37.905 25.27 0 0 0
368 2 3.6099999999999994 36.1 28.88 0 0 0
369 4 3.6099999999999994 37.905 30.685 0 0 0
370 2 5.414999999999999 36.1 30.685 0 0 0
371 3 5.414999999999999 37.905 28.88 0 0 0
372 1 3.6099999999999994 36.1 32.49 0 0 0
373 2 3.6099999999999994 37.905 34.295 0 0 0
374 3 5.414999999999999 36.1 34.295 0 0 0
375 3 5.414999999999999 37.905 32.49 0 0 0
376 5 3.6099999999999994 36.1 36.1 0 0 0
377 4 3.6099999999999994 37.905 37.905 0 0 0
378 1 5.414999999999999 36.1 37.905 0 0 0
379 4 5.414999999999999 37.905 36.1 0 0 0
380 2 3.6099999999999994 36.1 39.71 0 0 0
383 3 5.414999999999999 37.905 39.71 0 0 0
406 5 5.414999999999999 39.71 16.245 0 0 0
408 1 5.414999999999999 39.71 19.855 0 0 0
410 1 3.6099999999999994 39.71 21.659999999999997 0 0 0
412 4 5.414999999999999 39.71 23.464999999999996 0 0 0
414 4 3.6099999999999994 39.71 25.27 0 0 0
416 2 5.414999999999999 39.71 27.075 0 0 0
418 2 3.6099999999999994 39.71 28.88 0 0 0
420 1 5.414999999999999 39.71 30.685 0 0 0
422 4 3.6099999999999994 39.71 32.49 0 0 0
424 4 5.414999999999999 39.71 34.295 0 0 0
426 5 3.6099999999999994 39.71 36.1 0 0 0
428 5 5.414999999999999 39.71 37.905 0 0 0
430 1 3.6099999999999994 39.71 39.71 0 0 0
739 4 7.219999999999999 7.219999999999999 7.219999999999999 0 0 0
740 1 7.219999999999999 9.024999999999999 9.024999999999999 0 0 0
741 2 9.024999999999999 7.219999999999999 9.024999999999999 0 0 0
742 3 9.024999999999999 9.024999999999999 7.219999999999999 0 0 0
743 1 7.219999999999999 7.219999999999999 10.829999999999998 0 0 0
744 3 7.219999999999999 9.024999999999999 12.635 0 0 0
745 4 9.024999999999999 7.219999999999999 12.635 0 0 0
746 5 9.024999999999999 9.024999999999999 10.829999999999998 0 0 0
747 3 7.219999999999999 7.219999999999999 14.44 0 0 0
748 4 7.219999999999999 9.024999999999999 16.245 0 0 0
749 2 9.024999999999999 7.219999999999999 16.245 0 0 0
750 4 9.024999999999999 9.024999999999999 14.44 0 0 0
751 1 7.219999999999999 7.219999999999999 18.05 0 0 0
752 1 7.219999999999999 9.024999999999999 19.855 0 0 0
753 3 9.024999999999999 7.219999999999999 19.855 0 0 0
754 2 9.024999999999999 9.024999999999999 18.05 0 0 0
755 3 7.219999999999999 7.219999999999999 21.659999999999997 0 0 0
756 1 7.219999999999999 9.024999999999999 23.464999999999996 0 0 0
757 3 9.024999999999999 7.219999999999999 23.464999999999996 0 0 0
758 5 9.024999999999999 9.024999999999999 21.659999999999997 0 0 0
759 1 7.219999999999999 7.219999999999999 25.27 0 0 0
760 2 7.219999999999999 9.024999999999999 27.075 0 0 0
761 4 9.024999999999999 7.219999999999999 27.075 0 0 0
762 2 9.024999999999999 9.024999999999999 25.27 0 0 0
763 3 7.219999999999999 7.219999999999999 28.88 0 0 0
764 1 7.219999999999999 9.024999999999999 30.685 0 0 0
765 5 9.024999999999999 7.219999999999999 30.685 0 0 0
766 3 9.024999999999999 9.024999999999999 28.88 0 0 0
767 1 7.219999999999999 7.219999999999999 32.49 0 0 0
768 3 7.219999999999999 9.024999999999999 34.295 0 0 0
769 3 9.024999999999999 7.219999999999999 34.295 0 0 0
770 2 9.024999999999999 9.024999999999999 32.49 0 0 0
771 4 7.219999999999999 7.219999999999999 36.1 0 0 0
772 4 7.219999999999999 9.024999999999999 37.905 0 0 0
773 1 9.024999999999999 7.219999999999999 37.905 0 0 0
774 2 9.024999999999999 9.024999999999999 36.1 0 0 0
775 1 7.219999999999999 7.219999999999999 39.71 0 0 0
778 4 9.024999999999999 9.024999999999999 39.71 0 0 0
813 3 7.219999999999999 10.829999999999998 7.219999999999999 0 0 0
814 1 7.219999999999999 12.635 9.024999999999999 0 0 0
815 3 9.024999999999999 10.829999999999998 9.024999999999999 0 0 0
816 4 9.024999999999999 12.635 7.219999999999999 0 0 0
817 4 7.219999999999999 10.829999999999998 10.829999999999998 0 0 0
818 1 7.219999999999999 12.635 12.635 0 0 0
819 5 9.024999999999999 10.829999999999998 12.635 0 0 0
820 3 9.024999999999999 12.635 10.829999999999998 0 0 0
821 5 7.219999999999999 10.829999999999998 14.44 0 0 0
822 3 7.219999999999999 12.635 16.245 0 0 0
823 2 9.024999999999999 10.829999999999998 16.245 0 0 0
824 4 9.024999999999999 12.635 14.44 0 0 0
825 4 7.219999999999999 10.829999999999998 18.05 0 0 0
826 2 7.219999999999999 12.635 19.855 0 0 0
827 2 9.024999999999999 10.829999999999998 19.855 0 0 0
828 2 9.024999999999999 12.635 18.05 0 0 0
829 4 7.219999999999999 10.829999999999998 21.659999999999997 0 0 0
830 3 7.219999999999999 12.635 23.464999999999996 0 0 0
831 4 9.024999999999999 10.829999999999998 23.464999999999996 0 0 0
832 2 9.024999999999999 12.635 21.659999999999997 0 0 0
833 1 7.219999999999999 10.829999999999998 25.27 0 0 0
834 2 7.219999999999999 12.635 27.075 0 0 0
835 3 9.024999999999999 10.829999999999998 27.075 0 0 0
836 5 9.024999999999999 12.635 25.27 0 0 0
837 5 7.219999999999999 10.829999999999998 28.88 0 0 0
838 1 7.219999999999999 12.635 30.685 0 0 0
839 2 9.024999999999999 10.829999999999998 30.685 0 0 0
840 1 9.024999999999999 12.635 28.88 0 0 0
841 3 7.219999999999999 10.829999999999998 32.49 0 0 0
842 5 7.219999999999999 12.635 34.295 0 0 0
843 4 9.024999999999999 10.829999999999998 34.295 0 0 0
844 1 9.024999999999999 12.635 32.49 0 0 0
845 4 7.219999999999999 10.829999999999998 36.1 0 0 0
846 5 7.219999999999999 12.635 37.905 0 0 0
847 2 9.024999999999999 10.829999999999998 37.905 0 0 0
848 2 9.024999999999999 12.635 36.1 0 0 0
849 1 7.219999999999999 10.829999999999998 39.71 0 0 0
852 2 9.024999999999999 12.635 39.71 0 0 0
887 3 7.219999999999999 14.44 7.219999999999999 0 0 0
888 3 7.219999999999999 16.245 9.024999999999999 0 0 0
889 5 9.024999999999999 14.44 9.024999999999999 0 0 0
890 1 9.024999999999999 16.245 7.219999999999999 0 0 0
891 1 7.219999999999999 14.44 10.829999999999998 0 0 0
892 4 7.219999999999999 16.245 12.635 0 0 0
893 3 9.024999999999999 14.44 12.635 0 0 0
894 5 9.024999999999999 16.245 10.829999999999998 0 0 0
895 3 7.219999999999999 14.44 14.44 0 0 0
896 1 7.219999999999999 16.245 16.245 0 0 0
897 2 9.024999999999999 14.44 16.245 0 0 0
898 1 9.024999999999999 16.245 14.44 0 0 0
899 4 7.219999999999999 14.44 18.05 0 0 0
900 2 7.219999999999999 16.245 19.855 0 0 0
901 4 9.024999999999999 14.44 19.855 0 0 0
902 5 9.024999999999999 16.245 18.05 0 0 0
903 1 7.219999999999999 14.44 21.659999999999997 0 0 0
904 5 7.219999999999999 16.245 23.464999999999996 0 0 0
905 5 9.024999999999999 14.44 23.464999999999996 0 0 0
906 1 9.024999999999999 16.245 21.659999999999997 0 0 0
907 2 7.219999999999999 14.44 25.27 0 0 0
908 5 7.219999999999999 16.245 27.075 0 0 0
909 2 9.024999999999999 14.44 27.075 0 0 0
910 5 9.024999999999999 16.245 25.27 0 0 0
911 3 7.219999999999999 14.44 28.88 0 0 0
912 2 7.219999999999999 16.245 30.685 0 0 0
913 3 9.024999999999999 14.44 30.685 0 0 0
914 4 9.024999999999999 16.245 28.88 0 0 0
915 3 7.219999999999999 14.44 32.49 0 0 0
916 1 7.219999999999999 16.245 34.295 0 0 0
917 2 9.024999999999999 14.44 34.295 0 0 0
918 3 9.024999999999999 16.245 32.49 0 0 0
919 3 7.219999999999999 14.44 36.1 0 0 0
920 2 7.219999999999999 16.245 37.905 0 0 0
921 3 9.024999999999999 14.44 37.905 0 0 0
922 4 9.024999999999999 16.245 36.1 0 0 0
923 5 7.219999999999999 14.44 39.71 0 0 0
926 5 9.024999999999999 16.245 39.71 0 0 0
961 4 7.219999999999999 18.05 7.219999999999999 0 0 0
962 3 7.219999999999999 19.855 9.024999999999999 0 0 0
963 3 9.024999999999999 18.05 9.024999999999999 0 0 0
964 3 9.024999999999999 19.855 7.219999999999999 0 0 0
965 2 7.219999999999999 18.05 10.829999999999998 0 0 0
966 4 7.219999999999999 19.855 12.635 0 0 0
967 1 9.024999999999999 18.05 12.635 0 0 0
968 5 9.024999999999999 19.855 10.829999999999998 0 0 0
969 2 7.219999999999999 18.05 14.44 0 0 0
970 1 7.219999999999999 19.855 16.245 0 0 0
971 2 9.024999999999999 18.05 16.245 0 0 0
972 3 9.024999999999999 19.855 14.44 0 0 0
973 2 7.219999999999999 18.05 18.05 0 0 0
974 3 7.219999999999999 19.855 19.855 0 0 0
975 2 9.024999999999999 18.05 19.855 0 0 0
976 1 9.024999999999999 19.855 18.05 0 0 0
977 4 7.219999999999999 18.05 21.659999999999997 0 0 0
978 2 7.219999999999999 19.855 23.464999999999996 0 0 0
979 1 9.024999999999999 18.05 23.464999999999996 0 0 0
980 3 9.024999999999999 19.855 21.659999999999997 0 0 0
981 4 7.219999999999999 18.05 25.27 0 0 0
982 4 7.219999999999999 19.855 27.075 0 0 0
983 4 9.024999999999999 18.05 27.075 0 0 0
984 1 9.024999999999999 19.855 25.27 0 0 0
985 4 7.219999999999999 18.05 28.88 0 0 0
986 2 7.219999999999999 19.855 30.685 0 0 0
987 1 9.024999999999999 18.05 30.685 0 0 0
988 3 9.024999999999999 19.855 28.88 0 0 0
989 4 7.219999999999999 18.05 32.49 0 0 0
990 1 7.219999999999999 19.855 34.295 0 0 0
991 3 9.024999999999999 18.05 34.295 0 0 0
992 2 9.024999999999999 19.855 32.49 0 0 0
993 4 7.219999999999999 18.05 36.1 0 0 0
994 5 7.219999999999999 19.855 37.905 0 0 0
995 4 9.024999999999999 18.05 37.905 0 0 0
996 5 9.024999999999999 19.855 36.1 0 0 0
997 3 7.219999999999999 18.05 39.71 0 0 0
1000 1 9.024999999999999 19.855 39.71 0 0 0
1035 4 7.219999999999999 21.659999999999997 7.219999999999999 0 0 0
1036 3 7.219999999999999 23.464999999999996 9.024999999999999 0 0 0
1037 3 9.024999999999999 21.659999999999997 9.024999999999999 0 0 0
1038 1 9.024999999999999 23.464999999999996 7.219999999999999 0 0 0
1039 3 7.219999999999999 21.659999999999997 10.829999999999998 0 0 0
1040 4 7.219999999999999 23.464999999999996 12.635 0 0 0
1041 2 9.024999999999999 21.659999999999997 12.635 0 0 0
1042 3 9.024999999999999 23.464999999999996 10.829999999999998 0 0 0
1043 5 7.219999999999999 21.659999999999997 14.44 0 0 0
1044 4 7.219999999999999 23.464999999999996 16.245 0 0 0
1045 3 9.024999999999999 21.659999999999997 16.245 0 0 0
1046 2 9.024999999999999 23.464999999999996 14.44 0 0 0
1047 5 7.219999999999999 21.659999999999997 18.05 0 0 0
1048 2 7.219999999999999 23.464999999999996 19.855 0 0 0
1049 4 9.024999999999999 21.659999999999997 19.855 0 0 0
1050 5 9.024999999999999 23.464999999999996 18.05 0 0 0
1051 4 7.219999999999999 21.659999999999997 21.659999999999997 0 0 0
1052 1 7.219999999999999 23.464999999999996 23.464999999999996 0 0 0
1053 4 9.024999999999999 21.659999999999997 23.464999999999996 0 0 0
1054 5 9.024999999999999 23.464999999999996 21.659999999999997 0 0 0
1055 2 7.219999999999999 21.659999999999997 25.27 0 0 0
1056 3 7.219999999999999 23.464999999999996 27.075 0 0 0
1057 1 9.024999999999999 21.659999999999997 27.075 0 0 0
1058 5 9.024999999999999 23.464999999999996 25.27 0 0 0
1059 2 7.219999999999999 21.659999999999997 28.88 0 0 0
1060 4 7.219999999999999 23.464999999999996 30.685 0 0 0
1061 3 9.024999999999999 21.659999999999997 30.685 0 0 0
1062 3 9.024999999999999 23.464999999999996 28.88 0 0 0
1063 1 7.219999999999999 21.659999999999997 32.49 0 0 0
1064 5 7.219999999999999 23.464999999999996 34.295 0 0 0
1065 3 9.024999999999999 21.659999999999997 34.295 0 0 0
1066 2 9.024999999999999 23.464999999999996 32.49 0 0 0
1067 4 7.219999999999999 21.659999999999997 36.1 0 0 0
1068 1 7.219999999999999 23.464999999999996 37.905 0 0 0
1069 5 9.024999999999999 21.659999999999997 37.905 0 0 0
1070 5 9.024999999999999 23.464999999999996 36.1 0 0 0
1071 3 7.219999999999999 21.659999999999997 39.71 0 0 0
1074 1 9.024999999999999 23.464999999999996 39.71 0 0 0
1109 4 7.219999999999999 25.27 7.219999999999999 0 0 0
1110 2 7.219999999999999 27.075 9.024999999999999 0 0 0
1111 3 9.024999999999999 25.27 9.024999999999999 0 0 0
1112 2 9.024999999999999 27.075 7.219999999999999 0 0 0
1113 1 7.219999999999999 25.27 10.829999999999998 0 0 0
1114 3 7.219999999999999 27.075 12.635 0 0 0
1115 3 9.024999999999999 25.27 12.635 0 0 0
1116 1 9.024999999999999 27.075 10.829999999999998 0 0 0
1117 5 7.219999999999999 25.27 14.44 0 0 0
1118 4 7.219999999999999 27.075 16.245 0 0 0
1119 5 9.024999999999999 25.27 16.245 0 0 0
1120 3 9.024999999999999 27.075 14.44 0 0 0
1121 2 7.219999999999999 25.27 18.05 0 0 0
1122 5 7.219999999999999 27.075 19.855 0 0 0
1123 5 9.024999999999999 25.27 19.855 0 0 0
1124 4 9.024999999999999 27.075 18.05 0 0 0
1125 1 7.219999999999999 25.27 21.659999999999997 0 0 0
1126 1 7.219999999999999 27.075 23.464999999999996 0 0 0
1127 5 9.024999999999999 25.27 23.464999999999996 0 0 0
1128 4 9.024999999999999 27.075 21.659999999999997 0 0 0
1129 2 7.219999999999999 25.27 25.27 0 0 0
1130 3 7.219999999999999 27.075 27.075 0 0 0
1131 2 9.024999999999999 25.27 27.075 0 0 0
1132 3 9.024999999999999 27.075 25.27 0 0 0
1133 2 7.219999999999999 25.27 28.88 0 0 0
1134 1 7.219999999999999 27.075 30.685 0 0 0
1135 2 9.024999999999999 25.27 30.685 0 0 0
1136 3 9.024999999999999 27.075 28.88 0 0 0
1137 5 7.219999999999999 25.27 32.49 0 0 0
1138 1 7.219999999999999 27.075 34.295 0 0 0
1139 3 9.024999999999999 25.27 34.295 0 0 0
1140 5 9.024999999999999 27.075 32.49 0 0 0
1141 2 7.219999999999999 25.27 36.1 0 0 0
1142 4 7.219999999999999 27.075 37.905 0 0 0
1143 5 9.024999999999999 25.27 37.905 0 0 0
1144 3 9.024999999999999 27.075 36.1 0 0 0
1145 5 7.219999999999999 25.27 39.71 0 0 0
1148 1 9.024999999999999 27.075 39.71 0 0 0
1183 2 7.219999999999999 28.88 7.219999999999999 0 0 0
1184 3 7.219999999999999 30.685 9.024999999999999 0 0 0
1185 5 9.024999999999999 28.88 9.024999999999999 0 0 0
1186 3 9.024999999999999 30.685 7.219999999999999 0 0 0
1187 1 7.219999999999999 28.88 10.829999999999998 0 0 0
1188 3 7.219999999999999 30.685 12.635 0 0 0
1189 1 9.024999999999999 28.88 12.635 0 0 0
1190 2 9.024999999999999 30.685 10.829999999999998 0 0 0
1191 2 7.219999999999999 28.88 14.44 0 0 0
1192 3 7.219999999999999 30.685 16.245 0 0 0
1193 5 9.024999999999999 28.88 16.245 0 0 0
1194 4 9.024999999999999 30.685 14.44 0 0 0
1195 3 7.219999999999999 28.88 18.05 0 0 0
1196 2 7.219999999999999 30.685 19.855 0 0 0
1197 5 9.024999999999999 28.88 19.855 0 0 0
1198 1 9.024999999999999 30.685 18.05 0 0 0
1199 4 7.219999999999999 28.88 21.659999999999997 0 0 0
1200 2 7.219999999999999 30.685 23.464999999999996 0 0 0
1201 4 9.024999999999999 28.88 23.464999999999996 0 0 0
1202 3 9.024999999999999 30.685 21.659999999999997 0 0 0
1203 1 7.219999999999999 28.88 25.27 0 0 0
1204 5 7.219999999999999 30.685 27.075 0 0 0
1205 3 9.024999999999999 28.88 27.075 0 0 0
1206 4 9.024999999999999 30.685 25.27 0 0 0
1207 4 7.219999999999999 28.88 28.88 0 0 0
1208 4 7.219999999999999 30.685 30.685 0 0 0
1209 3 9.024999999999999 28.88 30.685 0 0 0
1210 4 9.024999999999999 30.685 28.88 0 0 0
1211 4 7.219999999999999 28.88 32.49 0 0 0
1212 2 7.219999999999999 30.685 34.295 0 0 0
1213 4 9.024999999999999 28.88 34.295 0 0 0
1214 1 9.024999999999999 30.685 32.49 0 0 0
1215 1 7.219999999999999 28.88 36.1 0 0 0
1216 1 7.219999999999999 30.685 37.905 0 0 0
1217 2 9.024999999999999 28.88 37.905 0 0 0
1218 5 9.024999999999999 30.685 36.1 0 0 0
1219 1 7.219999999999999 28.88 39.71 0 0 0
1222 3 9.024999999999999 30.685 39.71 0 0 0
1257 4 7.219999999999999 32.49 7.219999999999999 0 0 0
1258 3 7.219999999999999 34.295 9.024999999999999 0 0 0
1259 3 9.024999999999999 32.49 9.024999999999999 0 0 0
1260 3 9.024999999999999 34.295 7.219999999999999 0 0 0
1261 5 7.219999999999999 32.49 10.829999999999998 0 0 0
1262 4 7.219999999999999 34.295 12.635 0 0 0
1263 3 9.024999999999999 32.49 12.635 0 0 0
1264 1 9.024999999999999 34.295 10.829999999999998 0 0 0
1265 5 7.219999999999999 32.49 14.44 0 0 0
1266 4 7.219999999999999 34.295 16.245 0 0 0
1267 3 9.024999999999999 32.49 16.245 0 0 0
1268 1 9.024999999999999 34.295 14.44 0 0 0
1269 4 7.219999999999999 32.49 18.05 0 0 0
1270 2 7.219999999999999 34.295 19.855 0 0 0
1271 2 9.024999999999999 32.49 19.855 0 0 0
1272 4 9.024999999999999 34.295 18.05 0 0 0
1273 4 7.219999999999999 32.49 21.659999999999997 0 0 0
1274 2 7.219999999999999 34.295 23.464999999999996 0 0 0
1275 1 9.024999999999999 32.49 23.464999999999996 0 0 0
1276 2 9.024999999999999 34.295 21.659999999999997 0 0 0
1277 3 7.219999999999999 32.49 25.27 0 0 0
1278 1 7.219999999999999 34.295 27.075 0 0 0
1279 2 9.024999999999999 32.49 27.075 0 0 0
1280 1 9.024999999999999 34.295 25.27 0 0 0
1281 5 7.219999999999999 32.49 28.88 0 0 0
1282 2 7.219999999999999 34.295 30.685 0 0 0
1283 4 9.024999999999999 32.49 30.685 0 0 0
1284 1 9.024999999999999 34.295 28.88 0 0 0
1285 3 7.219999999999999 32.49 32.49 0 0 0
1286 3 7.219999999999999 34.295 34.295 0 0 0
1287 2 9.024999999999999 32.49 34.295 0 0 0
1288 1 9.024999999999999 34.295 32.49 0 0 0
1289 3 7.219999999999999 32.49 36.1 0 0 0
1290 5 7.219999999999999 34.295 37.905 0 0 0
1291 5 9.024999999999999 32.49 37.905 0 0 0
1292 5 9.024999999999999 34.295 36.1 0 0 0
1293 4 7.219999999999999 32.49 39.71 0 0 0
1296 4 9.024999999999999 34.295 39.71 0 0 0
1331 1 7.219999999999999 36.1 7.219999999999999 0 0 0
1332 2 7.219999999999999 37.905 9.024999999999999 0 0 0
1333 4 9.024999999999999 36.1 9.024999999999999 0 0 0
1334 3 9.024999999999999 37.905 7.219999999999999 0 0 0
1335 4 7.219999999999999 36.1 10.829999999999998 0 0 0
1336 3 7.219999999999999 37.905 12.635 0 0 0
1337 3 9.024999999999999 36.1 12.635 0 0 0
1338 4 9.024999999999999 37.905 10.829999999999998 0 0 0
1339 2 7.219999999999999 36.1 14.44 0 0 0
1340 3 7.219999999999999 37.905 16.245 0 0 0
1341 3 9.024999999999999 36.1 16.245 0 0 0
1342 5 9.024999999999999 37.905 14.44 0 0 0
1343 4 7.219999999999999 36.1 18.05 0 0 0
1344 5 7.219999999999999 37.905 19.855 0 0 0
1345 1 9.024999999999999 36.1 19.855 0 0 0
1346 4 9.024999999999999 37.905 18.05 0 0 0
1347 3 7.219999999999999 36.1 21.659999999999997 0 0 0
1348 2 7.219999999999999 37.905 23.464999999999996 0 0 0
1349 5 9.024999999999999 36.1 23.464999999999996 0 0 0
1350 5 9.024999999999999 37.905 21.659999999999997 0 0 0
1351 1 7.219999999999999 36.1 25.27 0 0 0
1352 3 7.219999999999999 37.905 27.075 0 0 0
1353 1 9.024999999999999 36.1 27.075 0 0 0
1354 1 9.024999999999999 37.905 25.27 0 0 0
1355 5 7.219999999999999 36.1 28.88 0 0 0
1356 1 7.219999999999999 37.905 30.685 0 0 0
1357 3 9.024999999999999 36.1 30.685 0 0 0
1358 3 9.024999999999999 37.905 28.88 0 0 0
1359 4 7.219999999999999 36.1 32.49 0 0 0
1360 3 7.219999999999999 37.905 34.295 0 0 0
1361 2 9.024999999999999 36.1 34.295 0 0 0
1362 3 9.024999999999999 37.905 32.49 0 0 0
1363 2 7.219999999999999 36.1 36.1 0 0 0
1364 3 7.219999999999999 37.905 37.905 0 0 0
1365 3 9.024999999999999 36.1 37.905 0 0 0
1366 2 9.024999999999999 37.905 36.1 0 0 0
1367 2 7.219999999999999 36.1 39.71 0 0 0
1370 2 9.024999999999999 37.905 39.71 0 0 0
1405 5 7.219999999999999 39.71 7.219999999999999 0 0 0
1407 2 9.024999999999999 39.71 9.024999999999999 0 0 0
1409 4 7.219999999999999 39.71 10.829999999999998 0 0 0
1411 3 9.024999999999999 39.71 12.635 0 0 0
1413 3 7.219999999999999 39.71 14.44 0 0 0
1415 1 9.024999999999999 39.71 16.245 0 0 0
1417 4 7.219999999999999 39.71 18.05 0 0 0
1419 1 9.024999999999999 39.71 19.855 0 0 0
1421 4 7.219999999999999 39.71 21.659999999999997 0 0 0
1423 4 9.024999999999999 39.71 23.464999999999996 0 0 0
1425 1 7.219999999999999 39.71 25.27 0 0 0
1427 3 9.024999999999999 39.71 27.075 0 0 0
1429 3 7.219999999999999 39.71 28.88 0 0 0
1431 3 9.024999999999999 39.71 30.685 0 0 0
1433 4 7.219999999999999 39.71 32.49 0 0 0
1435 5 9.024999999999999 39.71 34.295 0 0 0
1437 3 7.219999999999999 39.71 36.1 0 0 0
1439 1 9.024999999999999 39.71 37.905 0 0 0
1441 3 7.219999999999999 39.71 39.71 0 0 0
2108 2 10.829999999999998 7.219999999999999 7.219999999999999 0 0 0
2109 3 10.829999999999998 9.024999999999999 9.024999999999999 0 0 0
2110 2 12.635 7.219999999999999 9.024999999999999 0 0 0
2111 5 12.635 9.024999999999999 7.219999999999999 0 0 0
2112 4 10.829999999999998 7.219999999999999 10.829999999999998 0 0 0
2113 4 10.829999999999998 9.024999999999999 12.635 0 0 0
2114 5 12.635 7.219999999999999 12.635 0 0 0
2115 5 12.635 9.024999999999999 10.829999999999998 0 0 0
2116 5 10.829999999999998 7.219999999999999 14.44 0 0 0
2117 2 10.829999999999998 9.024999999999999 16.245 0 0 0
2118 5 12.635 7.219999999999999 16.245 0 0 0
2119 2 12.635 9.024999999999999 14.44 0 0 0
2120 1 10.829999999999998 7.219999999999999 18.05 0 0 0
2121 2 10.829999999999998 9.024999999999999 19.855 0 0 0
2122 3 12.635 7.219999999999999 19.855 0 0 0
2123 1 12.635 9.024999999999999 18.05 0 0 0
2124 5 10.829999999999998 7.219999999999999 21.659999999999997 0 0 0
2125 3 10.829999999999998 9.024999999999999 23.464999999999996 0 0 0
2126 4 12.635 7.219999999999999 23.464999999999996 0 0 0
2127 4 12.635 9.024999999999999 21.659999999999997 0 0 0
2128 3 10.829999999999998 7.219999999999999 25.27 0 0 0
2129 5 10.829999999999998 9.024999999999999 27.075 0 0 0
2130 3 12.635 7.219999999999999 27.075 0 0 0
2131 2 12.635 9.024999999999999 25.27 0 0 0
2132 3 10.829999999999998 7.219999999999999 28.88 0 0 0
2133 4 10.829999999999998 9.024999999999999 30.685 0 0 0
2134 2 12.635 7.219999999999999 30.685 0 0 0
2135 3 12.635 9.024999999999999 28.88 0 0 0
2136 1 10.829999999999998 7.219999999999999 32.49 0 0 0
2137 5 10.829999999999998 9.024999999999999 34.295 0 0 0
2138 1 12.635 7.219999999999999 34.295 0 0 0
2139 5 12.635 9.024999999999999 32.49 0 0 0
2140 5 10.829999999999998 7.219999999999999 36.1 0 0 0
2141 5 10.829999999999998 9.024999999999999 37.905 0 0 0
2142 4 12.635 7.219999999999999 37.905 0 0 0
2143 5 12.635 9.024999999999999 36.1 0 0 0
2144 3 10.829999999999998 7.219999999999999 39.71 0 0 0
2147 3 12.635 9.024999999999999 39.71 0 0 0
2182 3 10.829999999999998 10.829999999999998 7.219999999999999 0 0 0
2183 5 10.829999999999998 12.635 9.024999999999999 0 0 0
2184 1 12.635 10.829999999999998 9.024999999999999 0 0 0
2185 5 12.635 12.635 7.219999999999999 0 0 0
2186 4 10.829999999999998 10.829999999999998 10.829999999999998 0 0 0
2187 4 10.829999999999998 12.635 12.635 0 0 0
2188 1 12.635 10.829999999999998 12.635 0 0 0
2189 2 12.635 12.635 10.829999999999998 0 0 0
2190 3 10.829999999999998 10.829999999999998 14.44 0 0 0