model_files/Co/Co_30000/Co_100/data.Co_100_hcp_29659 (written by ASE) 

29659 	 atoms 
1  atom types
0.0                      49  xlo xhi
0.0                      49  ylo yhi
0.0                      49  zlo zhi


Atoms 

     1   1  3.5527136788005005e-15  3.5527136788005005e-15      1.2550000000000061
     2   1  3.5527136788005005e-15  3.5527136788005005e-15      3.7650000000000037
     3   1  3.5527136788005005e-15  3.5527136788005005e-15      6.2750000000000021
     4   1  3.5527136788005005e-15  3.5527136788005005e-15      8.7850000000000037
     5   1  3.5527136788005005e-15  3.5527136788005005e-15      11.295000000000002
     6   1  3.5527136788005005e-15  3.5527136788005005e-15      13.805000000000001
     7   1  3.5527136788005005e-15  3.5527136788005005e-15      16.315000000000001
     8   1  3.5527136788005005e-15  3.5527136788005005e-15      18.825000000000003
     9   1  3.5527136788005005e-15  3.5527136788005005e-15      21.335000000000001
    10   1  3.5527136788005005e-15  3.5527136788005005e-15      23.844999999999999
    11   1  3.5527136788005005e-15  3.5527136788005005e-15      26.355000000000004
    12   1  3.5527136788005005e-15  3.5527136788005005e-15      28.865000000000002
    13   1  3.5527136788005005e-15  3.5527136788005005e-15      31.374999999999996
    14   1  3.5527136788005005e-15  3.5527136788005005e-15      33.884999999999998
    15   1  3.5527136788005005e-15  3.5527136788005005e-15      36.394999999999996
    16   1  3.5527136788005005e-15  3.5527136788005005e-15      38.904999999999994
    17   1  3.5527136788005005e-15  3.5527136788005005e-15      41.414999999999992
    18   1  3.5527136788005005e-15  3.5527136788005005e-15      43.924999999999997
    19   1  3.5527136788005005e-15  3.5527136788005005e-15      46.435000000000002
    20   1  3.5527136788005005e-15      1.2550000000000061  3.5527136788005005e-15
    21   1  3.5527136788005005e-15      1.2550000000000061      2.5100000000000051
    22   1  3.5527136788005005e-15      2.5100000000000051      1.2550000000000061
    23   1  3.5527136788005005e-15      1.2550000000000061      5.0200000000000022
    24   1  3.5527136788005005e-15      2.5100000000000051      3.7650000000000037
    25   1  3.5527136788005005e-15      1.2550000000000061      7.5300000000000047
    26   1  3.5527136788005005e-15      2.5100000000000051      6.2750000000000021
    27   1  3.5527136788005005e-15      1.2550000000000061      10.040000000000003
    28   1  3.5527136788005005e-15      2.5100000000000051      8.7850000000000037
    29   1  3.5527136788005005e-15      1.2550000000000061      12.550000000000004
    30   1  3.5527136788005005e-15      2.5100000000000051      11.295000000000002
    31   1  3.5527136788005005e-15      1.2550000000000061                   15.06
    32   1  3.5527136788005005e-15      2.5100000000000051      13.805000000000001
    33   1  3.5527136788005005e-15      1.2550000000000061                   17.57
    34   1  3.5527136788005005e-15      2.5100000000000051      16.315000000000001
    35   1  3.5527136788005005e-15      1.2550000000000061      20.080000000000002
    36   1  3.5527136788005005e-15      2.5100000000000051      18.825000000000003
    37   1  3.5527136788005005e-15      1.2550000000000061                   22.59
    38   1  3.5527136788005005e-15      2.5100000000000051      21.335000000000001
    39   1  3.5527136788005005e-15      1.2550000000000061      25.100000000000001
    40   1  3.5527136788005005e-15      2.5100000000000051      23.844999999999999
    41   1  3.5527136788005005e-15      1.2550000000000061      27.609999999999999
    42   1  3.5527136788005005e-15      2.5100000000000051      26.355000000000004
    43   1  3.5527136788005005e-15      1.2550000000000061      30.119999999999997
    44   1  3.5527136788005005e-15      2.5100000000000051      28.865000000000002
    45   1  3.5527136788005005e-15      1.2550000000000061      32.630000000000003
    46   1  3.5527136788005005e-15      2.5100000000000051      31.374999999999996
    47   1  3.5527136788005005e-15      1.2550000000000061      35.140000000000001
    48   1  3.5527136788005005e-15      2.5100000000000051      33.884999999999998
    49   1  3.5527136788005005e-15      1.2550000000000061      37.650000000000006
    50   1  3.5527136788005005e-15      2.5100000000000051      36.394999999999996
    51   1  3.5527136788005005e-15      1.2550000000000061      40.160000000000004
    52   1  3.5527136788005005e-15      2.5100000000000051      38.904999999999994
    53   1  3.5527136788005005e-15      1.2550000000000061      42.670000000000002
    54   1  3.5527136788005005e-15      2.5100000000000051      41.414999999999992
    55   1  3.5527136788005005e-15      1.2550000000000061                   45.18
    56   1  3.5527136788005005e-15      2.5100000000000051      43.924999999999997
    57   1  3.5527136788005005e-15      1.2550000000000061      47.689999999999998
    58   1  3.5527136788005005e-15      2.5100000000000051      46.435000000000002
    59   1  3.5527136788005005e-15      3.7650000000000037  3.5527136788005005e-15
    60   1  3.5527136788005005e-15      3.7650000000000037      2.5100000000000051
    61   1  3.5527136788005005e-15      5.0200000000000022      1.2550000000000061
    62   1  3.5527136788005005e-15      3.7650000000000037      5.0200000000000022
    63   1  3.5527136788005005e-15      5.0200000000000022      3.7650000000000037
    64   1  3.5527136788005005e-15      3.7650000000000037      7.5300000000000047
    65   1  3.5527136788005005e-15      5.0200000000000022      6.2750000000000021
    66   1  3.5527136788005005e-15      3.7650000000000037      10.040000000000003
    67   1  3.5527136788005005e-15      5.0200000000000022      8.7850000000000037
    68   1  3.5527136788005005e-15      3.7650000000000037      12.550000000000004
    69   1  3.5527136788005005e-15      5.0200000000000022      11.295000000000002
    70   1  3.5527136788005005e-15      3.7650000000000037                   15.06
    71   1  3.5527136788005005e-15      5.0200000000000022      13.805000000000001
    72   1  3.5527136788005005e-15      3.7650000000000037                   17.57
    73   1  3.5527136788005005e-15      5.0200000000000022      16.315000000000001
    74   1  3.5527136788005005e-15      3.7650000000000037      20.080000000000002
    75   1  3.5527136788005005e-15      5.0200000000000022      18.825000000000003
    76   1  3.5527136788005005e-15      3.7650000000000037                   22.59
    77   1  3.5527136788005005e-15      5.0200000000000022      21.335000000000001
    78   1  3.5527136788005005e-15      3.7650000000000037      25.100000000000001
    79   1  3.5527136788005005e-15      5.0200000000000022      23.844999999999999
    80   1  3.5527136788005005e-15      3.7650000000000037      27.609999999999999
    81   1  3.5527136788005005e-15      5.0200000000000022      26.355000000000004
    82   1  3.5527136788005005e-15      3.7650000000000037      30.119999999999997
    83   1  3.5527136788005005e-15      5.0200000000000022      28.865000000000002
    84   1  3.5527136788005005e-15      3.7650000000000037      32.630000000000003
    85   1  3.5527136788005005e-15      5.0200000000000022      31.374999999999996
    86   1  3.5527136788005005e-15      3.7650000000000037      35.140000000000001
    87   1  3.5527136788005005e-15      5.0200000000000022      33.884999999999998
    88   1  3.5527136788005005e-15      3.7650000000000037      37.650000000000006
    89   1  3.5527136788005005e-15      5.0200000000000022      36.394999999999996
    90   1  3.5527136788005005e-15      3.7650000000000037      40.160000000000004
    91   1  3.5527136788005005e-15      5.0200000000000022      38.904999999999994
    92   1  3.5527136788005005e-15      3.7650000000000037      42.670000000000002
    93   1  3.5527136788005005e-15      5.0200000000000022      41.414999999999992
    94   1  3.5527136788005005e-15      3.7650000000000037                   45.18
    95   1  3.5527136788005005e-15      5.0200000000000022      43.924999999999997
    96   1  3.5527136788005005e-15      3.7650000000000037      47.689999999999998
    97   1  3.5527136788005005e-15      5.0200000000000022      46.435000000000002
    98   1  3.5527136788005005e-15      6.2750000000000021  3.5527136788005005e-15
    99   1  3.5527136788005005e-15      6.2750000000000021      2.5100000000000051
   100   1  3.5527136788005005e-15      7.5300000000000047      1.2550000000000061
   101   1  3.5527136788005005e-15      6.2750000000000021      5.0200000000000022
   102   1  3.5527136788005005e-15      7.5300000000000047      3.7650000000000037
   103   1  3.5527136788005005e-15      6.2750000000000021      7.5300000000000047
   104   1  3.5527136788005005e-15      7.5300000000000047      6.2750000000000021
   105   1  3.5527136788005005e-15      6.2750000000000021      10.040000000000003
   106   1  3.5527136788005005e-15      7.5300000000000047      8.7850000000000037
   107   1  3.5527136788005005e-15      6.2750000000000021      12.550000000000004
   108   1  3.5527136788005005e-15      7.5300000000000047      11.295000000000002
   109   1  3.5527136788005005e-15      6.2750000000000021                   15.06
   110   1  3.5527136788005005e-15      7.5300000000000047      13.805000000000001
   111   1  3.5527136788005005e-15      6.2750000000000021                   17.57
   112   1  3.5527136788005005e-15      7.5300000000000047      16.315000000000001
   113   1  3.5527136788005005e-15      6.2750000000000021      20.080000000000002
   114   1  3.5527136788005005e-15      7.5300000000000047      18.825000000000003
   115   1  3.5527136788005005e-15      6.2750000000000021                   22.59
   116   1  3.5527136788005005e-15      7.5300000000000047      21.335000000000001
   117   1  3.5527136788005005e-15      6.2750000000000021      25.100000000000001
   118   1  3.5527136788005005e-15      7.5300000000000047      23.844999999999999
   119   1  3.5527136788005005e-15      6.2750000000000021      27.609999999999999
   120   1  3.5527136788005005e-15      7.5300000000000047      26.355000000000004
   121   1  3.5527136788005005e-15      6.2750000000000021      30.119999999999997
   122   1  3.5527136788005005e-15      7.5300000000000047      28.865000000000002
   123   1  3.5527136788005005e-15      6.2750000000000021      32.630000000000003
   124   1  3.5527136788005005e-15      7.5300000000000047      31.374999999999996
   125   1  3.5527136788005005e-15      6.2750000000000021      35.140000000000001
   126   1  3.5527136788005005e-15      7.5300000000000047      33.884999999999998
   127   1  3.5527136788005005e-15      6.2750000000000021      37.650000000000006
   128   1  3.5527136788005005e-15      7.5300000000000047      36.394999999999996
   129   1  3.5527136788005005e-15      6.2750000000000021      40.160000000000004
   130   1  3.5527136788005005e-15      7.5300000000000047      38.904999999999994
   131   1  3.5527136788005005e-15      6.2750000000000021      42.670000000000002
   132   1  3.5527136788005005e-15      7.5300000000000047      41.414999999999992
   133   1  3.5527136788005005e-15      6.2750000000000021                   45.18
   134   1  3.5527136788005005e-15      7.5300000000000047      43.924999999999997
   135   1  3.5527136788005005e-15      6.2750000000000021      47.689999999999998
   136   1  3.5527136788005005e-15      7.5300000000000047      46.435000000000002
   137   1  3.5527136788005005e-15      8.7850000000000037  3.5527136788005005e-15
   138   1  3.5527136788005005e-15      8.7850000000000037      2.5100000000000051
   139   1  3.5527136788005005e-15      10.040000000000003      1.2550000000000061
   140   1  3.5527136788005005e-15      8.7850000000000037      5.0200000000000022
   141   1  3.5527136788005005e-15      10.040000000000003      3.7650000000000037
   142   1  3.5527136788005005e-15      8.7850000000000037      7.5300000000000047
   143   1  3.5527136788005005e-15      10.040000000000003      6.2750000000000021
   144   1  3.5527136788005005e-15      8.7850000000000037      10.040000000000003
   145   1  3.5527136788005005e-15      10.040000000000003      8.7850000000000037
   146   1  3.5527136788005005e-15      8.7850000000000037      12.550000000000004
   147   1  3.5527136788005005e-15      10.040000000000003      11.295000000000002
   148   1  3.5527136788005005e-15      8.7850000000000037                   15.06
   149   1  3.5527136788005005e-15      10.040000000000003      13.805000000000001
   150   1  3.5527136788005005e-15      8.7850000000000037                   17.57
   151   1  3.5527136788005005e-15      10.040000000000003      16.315000000000001
   152   1  3.5527136788005005e-15      8.7850000000000037      20.080000000000002
   153   1  3.5527136788005005e-15      10.040000000000003      18.825000000000003
   154   1  3.5527136788005005e-15      8.7850000000000037                   22.59
   155   1  3.5527136788005005e-15      10.040000000000003      21.335000000000001
   156   1  3.5527136788005005e-15      8.7850000000000037      25.100000000000001
   157   1  3.5527136788005005e-15      10.040000000000003      23.844999999999999
   158   1  3.5527136788005005e-15      8.7850000000000037      27.609999999999999
   159   1  3.5527136788005005e-15      10.040000000000003      26.355000000000004
   160   1  3.5527136788005005e-15      8.7850000000000037      30.119999999999997
   161   1  3.5527136788005005e-15      10.040000000000003      28.865000000000002
   162   1  3.5527136788005005e-15      8.7850000000000037      32.630000000000003
   163   1  3.5527136788005005e-15      10.040000000000003      31.374999999999996
   164   1  3.5527136788005005e-15      8.7850000000000037      35.140000000000001
   165   1  3.5527136788005005e-15      10.040000000000003      33.884999999999998
   166   1  3.5527136788005005e-15      8.7850000000000037      37.650000000000006
   167   1  3.5527136788005005e-15      10.040000000000003      36.394999999999996
   168   1  3.5527136788005005e-15      8.7850000000000037      40.160000000000004
   169   1  3.5527136788005005e-15      10.040000000000003      38.904999999999994
   170   1  3.5527136788005005e-15      8.7850000000000037      42.670000000000002
   171   1  3.5527136788005005e-15      10.040000000000003      41.414999999999992
   172   1  3.5527136788005005e-15      8.7850000000000037                   45.18
   173   1  3.5527136788005005e-15      10.040000000000003      43.924999999999997
   174   1  3.5527136788005005e-15      8.7850000000000037      47.689999999999998
   175   1  3.5527136788005005e-15      10.040000000000003      46.435000000000002
   176   1  3.5527136788005005e-15      11.295000000000002  3.5527136788005005e-15
   177   1  3.5527136788005005e-15      11.295000000000002      2.5100000000000051
   178   1  3.5527136788005005e-15      12.550000000000004      1.2550000000000061
   179   1  3.5527136788005005e-15      11.295000000000002      5.0200000000000022
   180   1  3.5527136788005005e-15      12.550000000000004      3.7650000000000037
   181   1  3.5527136788005005e-15      11.295000000000002      7.5300000000000047
   182   1  3.5527136788005005e-15      12.550000000000004      6.2750000000000021
   183   1  3.5527136788005005e-15      11.295000000000002      10.040000000000003
   184   1  3.5527136788005005e-15      12.550000000000004      8.7850000000000037
   185   1  3.5527136788005005e-15      11.295000000000002      12.550000000000004
   186   1  3.5527136788005005e-15      12.550000000000004      11.295000000000002
   187   1  3.5527136788005005e-15      11.295000000000002                   15.06
   188   1  3.5527136788005005e-15      12.550000000000004      13.805000000000001
   189   1  3.5527136788005005e-15      11.295000000000002                   17.57
   190   1  3.5527136788005005e-15      12.550000000000004      16.315000000000001
   191   1  3.5527136788005005e-15      11.295000000000002      20.080000000000002
   192   1  3.5527136788005005e-15      12.550000000000004      18.825000000000003
   193   1  3.5527136788005005e-15      11.295000000000002                   22.59
   194   1  3.5527136788005005e-15      12.550000000000004      21.335000000000001
   195   1  3.5527136788005005e-15      11.295000000000002      25.100000000000001
   196   1  3.5527136788005005e-15      12.550000000000004      23.844999999999999
   197   1  3.5527136788005005e-15      11.295000000000002      27.609999999999999
   198   1  3.5527136788005005e-15      12.550000000000004      26.355000000000004
   199   1  3.5527136788005005e-15      11.295000000000002      30.119999999999997
   200   1  3.5527136788005005e-15      12.550000000000004      28.865000000000002
   201   1  3.5527136788005005e-15      11.295000000000002      32.630000000000003
   202   1  3.5527136788005005e-15      12.550000000000004      31.374999999999996
   203   1  3.5527136788005005e-15      11.295000000000002      35.140000000000001
   204   1  3.5527136788005005e-15      12.550000000000004      33.884999999999998
   205   1  3.5527136788005005e-15      11.295000000000002      37.650000000000006
   206   1  3.5527136788005005e-15      12.550000000000004      36.394999999999996
   207   1  3.5527136788005005e-15      11.295000000000002      40.160000000000004
   208   1  3.5527136788005005e-15      12.550000000000004      38.904999999999994
   209   1  3.5527136788005005e-15      11.295000000000002      42.670000000000002
   210   1  3.5527136788005005e-15      12.550000000000004      41.414999999999992
   211   1  3.5527136788005005e-15      11.295000000000002                   45.18
   212   1  3.5527136788005005e-15      12.550000000000004      43.924999999999997
   213   1  3.5527136788005005e-15      11.295000000000002      47.689999999999998
   214   1  3.5527136788005005e-15      12.550000000000004      46.435000000000002
   215   1  3.5527136788005005e-15      13.805000000000001  3.5527136788005005e-15
   216   1  3.5527136788005005e-15      13.805000000000001      2.5100000000000051
   217   1  3.5527136788005005e-15                   15.06      1.2550000000000061
   218   1  3.5527136788005005e-15      13.805000000000001      5.0200000000000022
   219   1  3.5527136788005005e-15                   15.06      3.7650000000000037
   220   1  3.5527136788005005e-15      13.805000000000001      7.5300000000000047
   221   1  3.5527136788005005e-15                   15.06      6.2750000000000021
   222   1  3.5527136788005005e-15      13.805000000000001      10.040000000000003
   223   1  3.5527136788005005e-15                   15.06      8.7850000000000037
   224   1  3.5527136788005005e-15      13.805000000000001      12.550000000000004
   225   1  3.5527136788005005e-15                   15.06      11.295000000000002
   226   1  3.5527136788005005e-15      13.805000000000001                   15.06
   227   1  3.5527136788005005e-15                   15.06      13.805000000000001
   228   1  3.5527136788005005e-15      13.805000000000001                   17.57
   229   1  3.5527136788005005e-15                   15.06      16.315000000000001
   230   1  3.5527136788005005e-15      13.805000000000001      20.080000000000002
   231   1  3.5527136788005005e-15                   15.06      18.825000000000003
   232   1  3.5527136788005005e-15      13.805000000000001                   22.59
   233   1  3.5527136788005005e-15                   15.06      21.335000000000001
   234   1  3.5527136788005005e-15      13.805000000000001      25.100000000000001
   235   1  3.5527136788005005e-15                   15.06      23.844999999999999
   236   1  3.5527136788005005e-15      13.805000000000001      27.609999999999999
   237   1  3.5527136788005005e-15                   15.06      26.355000000000004
   238   1  3.5527136788005005e-15      13.805000000000001      30.119999999999997
   239   1  3.5527136788005005e-15                   15.06      28.865000000000002
   240   1  3.5527136788005005e-15      13.805000000000001      32.630000000000003
   241   1  3.5527136788005005e-15                   15.06      31.374999999999996
   242   1  3.5527136788005005e-15      13.805000000000001      35.140000000000001
   243   1  3.5527136788005005e-15                   15.06      33.884999999999998
   244   1  3.5527136788005005e-15      13.805000000000001      37.650000000000006
   245   1  3.5527136788005005e-15                   15.06      36.394999999999996
   246   1  3.5527136788005005e-15      13.805000000000001      40.160000000000004
   247   1  3.5527136788005005e-15                   15.06      38.904999999999994
   248   1  3.5527136788005005e-15      13.805000000000001      42.670000000000002
   249   1  3.5527136788005005e-15                   15.06      41.414999999999992
   250   1  3.5527136788005005e-15      13.805000000000001                   45.18
   251   1  3.5527136788005005e-15                   15.06      43.924999999999997
   252   1  3.5527136788005005e-15      13.805000000000001      47.689999999999998
   253   1  3.5527136788005005e-15                   15.06      46.435000000000002
   254   1  3.5527136788005005e-15      16.315000000000001  3.5527136788005005e-15
   255   1  3.5527136788005005e-15      16.315000000000001      2.5100000000000051
   256   1  3.5527136788005005e-15                   17.57      1.2550000000000061
   257   1  3.5527136788005005e-15      16.315000000000001      5.0200000000000022
   258   1  3.5527136788005005e-15                   17.57      3.7650000000000037
   259   1  3.5527136788005005e-15      16.315000000000001      7.5300000000000047
   260   1  3.5527136788005005e-15                   17.57      6.2750000000000021
   261   1  3.5527136788005005e-15      16.315000000000001      10.040000000000003
   262   1  3.5527136788005005e-15                   17.57      8.7850000000000037
   263   1  3.5527136788005005e-15      16.315000000000001      12.550000000000004
   264   1  3.5527136788005005e-15                   17.57      11.295000000000002
   265   1  3.5527136788005005e-15      16.315000000000001                   15.06
   266   1  3.5527136788005005e-15                   17.57      13.805000000000001
   267   1  3.5527136788005005e-15      16.315000000000001                   17.57
   268   1  3.5527136788005005e-15                   17.57      16.315000000000001
   269   1  3.5527136788005005e-15      16.315000000000001      20.080000000000002
   270   1  3.5527136788005005e-15                   17.57      18.825000000000003
   271   1  3.5527136788005005e-15      16.315000000000001                   22.59
   272   1  3.5527136788005005e-15                   17.57      21.335000000000001
   273   1  3.5527136788005005e-15      16.315000000000001      25.100000000000001
   274   1  3.5527136788005005e-15                   17.57      23.844999999999999
   275   1  3.5527136788005005e-15      16.315000000000001      27.609999999999999
   276   1  3.5527136788005005e-15                   17.57      26.355000000000004
   277   1  3.5527136788005005e-15      16.315000000000001      30.119999999999997
   278   1  3.5527136788005005e-15                   17.57      28.865000000000002
   279   1  3.5527136788005005e-15      16.315000000000001      32.630000000000003
   280   1  3.5527136788005005e-15                   17.57      31.374999999999996
   281   1  3.5527136788005005e-15      16.315000000000001      35.140000000000001
   282   1  3.5527136788005005e-15                   17.57      33.884999999999998
   283   1  3.5527136788005005e-15      16.315000000000001      37.650000000000006
   284   1  3.5527136788005005e-15                   17.57      36.394999999999996
   285   1  3.5527136788005005e-15      16.315000000000001      40.160000000000004
   286   1  3.5527136788005005e-15                   17.57      38.904999999999994
   287   1  3.5527136788005005e-15      16.315000000000001      42.670000000000002
   288   1  3.5527136788005005e-15                   17.57      41.414999999999992
   289   1  3.5527136788005005e-15      16.315000000000001                   45.18
   290   1  3.5527136788005005e-15                   17.57      43.924999999999997
   291   1  3.5527136788005005e-15      16.315000000000001      47.689999999999998
   292   1  3.5527136788005005e-15                   17.57      46.435000000000002
   293   1  3.5527136788005005e-15      18.825000000000003  3.5527136788005005e-15
   294   1  3.5527136788005005e-15      18.825000000000003      2.5100000000000051
   295   1  3.5527136788005005e-15      20.080000000000002      1.2550000000000061
   296   1  3.5527136788005005e-15      18.825000000000003      5.0200000000000022
   297   1  3.5527136788005005e-15      20.080000000000002      3.7650000000000037
   298   1  3.5527136788005005e-15      18.825000000000003      7.5300000000000047
   299   1  3.5527136788005005e-15      20.080000000000002      6.2750000000000021
   300   1  3.5527136788005005e-15      18.825000000000003      10.040000000000003
   301   1  3.5527136788005005e-15      20.080000000000002      8.7850000000000037
   302   1  3.5527136788005005e-15      18.825000000000003      12.550000000000004
   303   1  3.5527136788005005e-15      20.080000000000002      11.295000000000002
   304   1  3.5527136788005005e-15      18.825000000000003                   15.06
   305   1  3.5527136788005005e-15      20.080000000000002      13.805000000000001
   306   1  3.5527136788005005e-15      18.825000000000003                   17.57
   307   1  3.5527136788005005e-15      20.080000000000002      16.315000000000001
   308   1  3.5527136788005005e-15      18.825000000000003      20.080000000000002
   309   1  3.5527136788005005e-15      20.080000000000002      18.825000000000003
   310   1  3.5527136788005005e-15      18.825000000000003                   22.59
   311   1  3.5527136788005005e-15      20.080000000000002      21.335000000000001
   312   1  3.5527136788005005e-15      18.825000000000003      25.100000000000001
   313   1  3.5527136788005005e-15      20.080000000000002      23.844999999999999
   314   1  3.5527136788005005e-15      18.825000000000003      27.609999999999999
   315   1  3.5527136788005005e-15      20.080000000000002      26.355000000000004
   316   1  3.5527136788005005e-15      18.825000000000003      30.119999999999997
   317   1  3.5527136788005005e-15      20.080000000000002      28.865000000000002
   318   1  3.5527136788005005e-15      18.825000000000003      32.630000000000003
   319   1  3.5527136788005005e-15      20.080000000000002      31.374999999999996
   320   1  3.5527136788005005e-15      18.825000000000003      35.140000000000001
   321   1  3.5527136788005005e-15      20.080000000000002      33.884999999999998
   322   1  3.5527136788005005e-15      18.825000000000003      37.650000000000006
   323   1  3.5527136788005005e-15      20.080000000000002      36.394999999999996
   324   1  3.5527136788005005e-15      18.825000000000003      40.160000000000004
   325   1  3.5527136788005005e-15      20.080000000000002      38.904999999999994
   326   1  3.5527136788005005e-15      18.825000000000003      42.670000000000002
   327   1  3.5527136788005005e-15      20.080000000000002      41.414999999999992
   328   1  3.5527136788005005e-15      18.825000000000003                   45.18
   329   1  3.5527136788005005e-15      20.080000000000002      43.924999999999997
   330   1  3.5527136788005005e-15      18.825000000000003      47.689999999999998
   331   1  3.5527136788005005e-15      20.080000000000002      46.435000000000002
   332   1  3.5527136788005005e-15      21.335000000000001  3.5527136788005005e-15
   333   1  3.5527136788005005e-15      21.335000000000001      2.5100000000000051
   334   1  3.5527136788005005e-15                   22.59      1.2550000000000061
   335   1  3.5527136788005005e-15      21.335000000000001      5.0200000000000022
   336   1  3.5527136788005005e-15                   22.59      3.7650000000000037
   337   1  3.5527136788005005e-15      21.335000000000001      7.5300000000000047
   338   1  3.5527136788005005e-15                   22.59      6.2750000000000021
   339   1  3.5527136788005005e-15      21.335000000000001      10.040000000000003
   340   1  3.5527136788005005e-15                   22.59      8.7850000000000037
   341   1  3.5527136788005005e-15      21.335000000000001      12.550000000000004
   342   1  3.5527136788005005e-15                   22.59      11.295000000000002
   343   1  3.5527136788005005e-15      21.335000000000001                   15.06
   344   1  3.5527136788005005e-15                   22.59      13.805000000000001
   345   1  3.5527136788005005e-15      21.335000000000001                   17.57
   346   1  3.5527136788005005e-15                   22.59      16.315000000000001
   347   1  3.5527136788005005e-15      21.335000000000001      20.080000000000002
   348   1  3.5527136788005005e-15                   22.59      18.825000000000003
   349   1  3.5527136788005005e-15      21.335000000000001                   22.59
   350   1  3.5527136788005005e-15                   22.59      21.335000000000001
   351   1  3.5527136788005005e-15      21.335000000000001      25.100000000000001
   352   1  3.5527136788005005e-15                   22.59      23.844999999999999
   353   1  3.5527136788005005e-15      21.335000000000001      27.609999999999999
   354   1  3.5527136788005005e-15                   22.59      26.355000000000004
   355   1  3.5527136788005005e-15      21.335000000000001      30.119999999999997
   356   1  3.5527136788005005e-15                   22.59      28.865000000000002
   357   1  3.5527136788005005e-15      21.335000000000001      32.630000000000003
   358   1  3.5527136788005005e-15                   22.59      31.374999999999996