model_files/PtFe/PtFe_30000/PtFe_322/PtFe_322_fcc_30187_temp.data (written by ASE) 

30187 	 atoms 
2  atom types
0.0                     112  xlo xhi
0.0                     112  ylo yhi
0.0                     112  zlo zhi


Atoms 

     1   1      1.8799999999999955      54.519999999999989      56.399999999999984
     2   1      1.8799999999999955      56.399999999999984      54.519999999999989
     3   1      111.99999999999999      56.399999999999984      56.399999999999984
     4   1      1.8799999999999955      56.399999999999984      58.279999999999987
     5   1      1.8799999999999955      58.279999999999987      56.399999999999984
     6   1      5.6399999999999935      46.999999999999986      56.399999999999984
     7   1      3.7599999999999909      50.759999999999998      54.519999999999989
     8   1      5.6399999999999935      48.879999999999995      54.519999999999989
     9   1      5.6399999999999935      50.759999999999998      52.639999999999993
    10   1      3.7599999999999909      48.879999999999995      56.399999999999984
    11   1      3.7599999999999909      50.759999999999998      58.279999999999987
    12   1      5.6399999999999935      48.879999999999995      58.279999999999987
    13   1      5.6399999999999935      50.759999999999998      56.399999999999984
    14   1      5.6399999999999935      50.759999999999998      60.159999999999989
    15   1      3.7599999999999909      54.519999999999989      50.759999999999998
    16   1      5.6399999999999935      52.639999999999993      50.759999999999998
    17   1      5.6399999999999935      54.519999999999989      48.879999999999995
    18   1      3.7599999999999909      52.639999999999993      52.639999999999993
    19   1      3.7599999999999909      54.519999999999989      54.519999999999989
    20   1      5.6399999999999935      52.639999999999993      54.519999999999989
    21   1      5.6399999999999935      54.519999999999989      52.639999999999993
    22   1      3.7599999999999909      52.639999999999993      56.399999999999984
    23   1      3.7599999999999909      54.519999999999989      58.279999999999987
    24   1      5.6399999999999935      52.639999999999993      58.279999999999987
    25   1      5.6399999999999935      54.519999999999989      56.399999999999984
    26   1      3.7599999999999909      52.639999999999993      60.159999999999989
    27   1      3.7599999999999909      54.519999999999989      62.039999999999992
    28   1      5.6399999999999935      52.639999999999993      62.039999999999992
    29   1      5.6399999999999935      54.519999999999989      60.159999999999989
    30   1      5.6399999999999935      54.519999999999989      63.919999999999987
    31   1      5.6399999999999935      56.399999999999984      46.999999999999986
    32   1      3.7599999999999909      56.399999999999984      48.879999999999995
    33   1      3.7599999999999909      58.279999999999987      50.759999999999998
    34   1      5.6399999999999935      56.399999999999984      50.759999999999998
    35   1      5.6399999999999935      58.279999999999987      48.879999999999995
    36   1      3.7599999999999909      56.399999999999984      52.639999999999993
    37   1      3.7599999999999909      58.279999999999987      54.519999999999989
    38   1      5.6399999999999935      56.399999999999984      54.519999999999989
    39   1      5.6399999999999935      58.279999999999987      52.639999999999993
    40   1      3.7599999999999909      56.399999999999984      56.399999999999984
    41   1      3.7599999999999909      58.279999999999987      58.279999999999987
    42   1      5.6399999999999935      56.399999999999984      58.279999999999987
    43   1      5.6399999999999935      58.279999999999987      56.399999999999984
    44   1      3.7599999999999909      56.399999999999984      60.159999999999989
    45   1      3.7599999999999909      58.279999999999987      62.039999999999992
    46   1      5.6399999999999935      56.399999999999984      62.039999999999992
    47   1      5.6399999999999935      58.279999999999987      60.159999999999989
    48   1      3.7599999999999909      56.399999999999984      63.919999999999987
    49   1      5.6399999999999935      56.399999999999984      65.799999999999983
    50   1      5.6399999999999935      58.279999999999987      63.919999999999987
    51   1      5.6399999999999935      60.159999999999989      50.759999999999998
    52   1      3.7599999999999909      60.159999999999989      52.639999999999993
    53   1      3.7599999999999909      62.039999999999992      54.519999999999989
    54   1      5.6399999999999935      60.159999999999989      54.519999999999989
    55   1      5.6399999999999935      62.039999999999992      52.639999999999993
    56   1      3.7599999999999909      60.159999999999989      56.399999999999984
    57   1      3.7599999999999909      62.039999999999992      58.279999999999987
    58   1      5.6399999999999935      60.159999999999989      58.279999999999987
    59   1      5.6399999999999935      62.039999999999992      56.399999999999984
    60   1      3.7599999999999909      60.159999999999989      60.159999999999989
    61   1      5.6399999999999935      60.159999999999989      62.039999999999992
    62   1      5.6399999999999935      62.039999999999992      60.159999999999989
    63   1      5.6399999999999935      63.919999999999987      54.519999999999989
    64   1      3.7599999999999909      63.919999999999987      56.399999999999984
    65   1      5.6399999999999935      63.919999999999987      58.279999999999987
    66   1      5.6399999999999935      65.799999999999983      56.399999999999984
    67   1      9.3999999999999915      43.239999999999995      56.399999999999984
    68   1      7.5199999999999951      46.999999999999986      54.519999999999989
    69   1      9.3999999999999915       45.11999999999999      54.519999999999989
    70   1      9.3999999999999915      46.999999999999986      52.639999999999993
    71   1      7.5199999999999951       45.11999999999999      56.399999999999984
    72   1      7.5199999999999951      46.999999999999986      58.279999999999987
    73   1      9.3999999999999915       45.11999999999999      58.279999999999987
    74   1      9.3999999999999915      46.999999999999986      56.399999999999984
    75   1      9.3999999999999915      46.999999999999986      60.159999999999989
    76   1      7.5199999999999951      50.759999999999998      50.759999999999998
    77   1      9.3999999999999915      48.879999999999995      50.759999999999998
    78   1      9.3999999999999915      50.759999999999998      48.879999999999995
    79   1      7.5199999999999951      48.879999999999995      52.639999999999993
    80   1      7.5199999999999951      50.759999999999998      54.519999999999989
    81   1      9.3999999999999915      48.879999999999995      54.519999999999989
    82   1      9.3999999999999915      50.759999999999998      52.639999999999993
    83   1      7.5199999999999951      48.879999999999995      56.399999999999984
    84   1      7.5199999999999951      50.759999999999998      58.279999999999987
    85   1      9.3999999999999915      48.879999999999995      58.279999999999987
    86   1      9.3999999999999915      50.759999999999998      56.399999999999984
    87   1      7.5199999999999951      48.879999999999995      60.159999999999989
    88   1      7.5199999999999951      50.759999999999998      62.039999999999992
    89   1      9.3999999999999915      48.879999999999995      62.039999999999992
    90   1      9.3999999999999915      50.759999999999998      60.159999999999989
    91   1      9.3999999999999915      50.759999999999998      63.919999999999987
    92   1      7.5199999999999951      54.519999999999989      46.999999999999986
    93   1      9.3999999999999915      52.639999999999993      46.999999999999986
    94   1      9.3999999999999915      54.519999999999989       45.11999999999999
    95   1      7.5199999999999951      52.639999999999993      48.879999999999995
    96   1      7.5199999999999951      54.519999999999989      50.759999999999998
    97   1      9.3999999999999915      52.639999999999993      50.759999999999998
    98   1      9.3999999999999915      54.519999999999989      48.879999999999995
    99   1      7.5199999999999951      52.639999999999993      52.639999999999993
   100   1      7.5199999999999951      54.519999999999989      54.519999999999989
   101   1      9.3999999999999915      52.639999999999993      54.519999999999989
   102   1      9.3999999999999915      54.519999999999989      52.639999999999993
   103   1      7.5199999999999951      52.639999999999993      56.399999999999984
   104   1      7.5199999999999951      54.519999999999989      58.279999999999987
   105   1      9.3999999999999915      52.639999999999993      58.279999999999987
   106   1      9.3999999999999915      54.519999999999989      56.399999999999984
   107   1      7.5199999999999951      52.639999999999993      60.159999999999989
   108   1      7.5199999999999951      54.519999999999989      62.039999999999992
   109   1      9.3999999999999915      52.639999999999993      62.039999999999992
   110   1      9.3999999999999915      54.519999999999989      60.159999999999989
   111   1      7.5199999999999951      52.639999999999993      63.919999999999987
   112   1      7.5199999999999951      54.519999999999989      65.799999999999983
   113   1      9.3999999999999915      52.639999999999993      65.799999999999983
   114   1      9.3999999999999915      54.519999999999989      63.919999999999987
   115   1      9.3999999999999915      54.519999999999989      67.679999999999993
   116   1      9.3999999999999915      56.399999999999984      43.239999999999995
   117   1      7.5199999999999951      56.399999999999984       45.11999999999999
   118   1      7.5199999999999951      58.279999999999987      46.999999999999986
   119   1      9.3999999999999915      56.399999999999984      46.999999999999986
   120   1      9.3999999999999915      58.279999999999987       45.11999999999999
   121   1      7.5199999999999951      56.399999999999984      48.879999999999995
   122   1      7.5199999999999951      58.279999999999987      50.759999999999998
   123   1      9.3999999999999915      56.399999999999984      50.759999999999998
   124   1      9.3999999999999915      58.279999999999987      48.879999999999995
   125   1      7.5199999999999951      56.399999999999984      52.639999999999993
   126   1      7.5199999999999951      58.279999999999987      54.519999999999989
   127   1      9.3999999999999915      56.399999999999984      54.519999999999989
   128   1      9.3999999999999915      58.279999999999987      52.639999999999993
   129   1      7.5199999999999951      56.399999999999984      56.399999999999984
   130   1      7.5199999999999951      58.279999999999987      58.279999999999987
   131   1      9.3999999999999915      56.399999999999984      58.279999999999987
   132   1      9.3999999999999915      58.279999999999987      56.399999999999984
   133   1      7.5199999999999951      56.399999999999984      60.159999999999989
   134   1      7.5199999999999951      58.279999999999987      62.039999999999992
   135   1      9.3999999999999915      56.399999999999984      62.039999999999992
   136   1      9.3999999999999915      58.279999999999987      60.159999999999989
   137   1      7.5199999999999951      56.399999999999984      63.919999999999987
   138   1      7.5199999999999951      58.279999999999987      65.799999999999983
   139   1      9.3999999999999915      56.399999999999984      65.799999999999983
   140   1      9.3999999999999915      58.279999999999987      63.919999999999987
   141   1      7.5199999999999951      56.399999999999984      67.679999999999993
   142   1      9.3999999999999915      56.399999999999984      69.559999999999974
   143   1      9.3999999999999915      58.279999999999987      67.679999999999993
   144   1      9.3999999999999915      60.159999999999989      46.999999999999986
   145   1      7.5199999999999951      60.159999999999989      48.879999999999995
   146   1      7.5199999999999951      62.039999999999992      50.759999999999998
   147   1      9.3999999999999915      60.159999999999989      50.759999999999998
   148   1      9.3999999999999915      62.039999999999992      48.879999999999995
   149   1      7.5199999999999951      60.159999999999989      52.639999999999993
   150   1      7.5199999999999951      62.039999999999992      54.519999999999989
   151   1      9.3999999999999915      60.159999999999989      54.519999999999989
   152   1      9.3999999999999915      62.039999999999992      52.639999999999993
   153   1      7.5199999999999951      60.159999999999989      56.399999999999984
   154   1      7.5199999999999951      62.039999999999992      58.279999999999987
   155   1      9.3999999999999915      60.159999999999989      58.279999999999987
   156   1      9.3999999999999915      62.039999999999992      56.399999999999984
   157   1      7.5199999999999951      60.159999999999989      60.159999999999989
   158   1      7.5199999999999951      62.039999999999992      62.039999999999992
   159   1      9.3999999999999915      60.159999999999989      62.039999999999992
   160   1      9.3999999999999915      62.039999999999992      60.159999999999989
   161   1      7.5199999999999951      60.159999999999989      63.919999999999987
   162   1      9.3999999999999915      60.159999999999989      65.799999999999983
   163   1      9.3999999999999915      62.039999999999992      63.919999999999987
   164   1      9.3999999999999915      63.919999999999987      50.759999999999998
   165   1      7.5199999999999951      63.919999999999987      52.639999999999993
   166   1      7.5199999999999951      65.799999999999983      54.519999999999989
   167   1      9.3999999999999915      63.919999999999987      54.519999999999989
   168   1      9.3999999999999915      65.799999999999983      52.639999999999993
   169   1      7.5199999999999951      63.919999999999987      56.399999999999984
   170   1      7.5199999999999951      65.799999999999983      58.279999999999987
   171   1      9.3999999999999915      63.919999999999987      58.279999999999987
   172   1      9.3999999999999915      65.799999999999983      56.399999999999984
   173   1      7.5199999999999951      63.919999999999987      60.159999999999989
   174   1      9.3999999999999915      63.919999999999987      62.039999999999992
   175   1      9.3999999999999915      65.799999999999983      60.159999999999989
   176   1      9.3999999999999915      67.679999999999993      54.519999999999989
   177   1      7.5199999999999951      67.679999999999993      56.399999999999984
   178   1      9.3999999999999915      67.679999999999993      58.279999999999987
   179   1      9.3999999999999915      69.559999999999974      56.399999999999984
   180   1      13.159999999999997      35.719999999999992      56.399999999999984
   181   1      11.279999999999994      39.479999999999997      54.519999999999989
   182   1      13.159999999999997      37.599999999999994      54.519999999999989
   183   1      13.159999999999997      39.479999999999997      52.639999999999993
   184   1      11.279999999999994      37.599999999999994      56.399999999999984
   185   1      11.279999999999994      39.479999999999997      58.279999999999987
   186   1      13.159999999999997      37.599999999999994      58.279999999999987
   187   1      13.159999999999997      39.479999999999997      56.399999999999984
   188   1      13.159999999999997      39.479999999999997      60.159999999999989
   189   1      11.279999999999994      43.239999999999995      50.759999999999998
   190   1      13.159999999999997      41.359999999999992      50.759999999999998
   191   1      13.159999999999997      43.239999999999995      48.879999999999995
   192   1      11.279999999999994      41.359999999999992      52.639999999999993
   193   1      11.279999999999994      43.239999999999995      54.519999999999989
   194   1      13.159999999999997      41.359999999999992      54.519999999999989
   195   1      13.159999999999997      43.239999999999995      52.639999999999993
   196   1      11.279999999999994      41.359999999999992      56.399999999999984
   197   1      11.279999999999994      43.239999999999995      58.279999999999987
   198   1      13.159999999999997      41.359999999999992      58.279999999999987
   199   1      13.159999999999997      43.239999999999995      56.399999999999984
   200   1      11.279999999999994      41.359999999999992      60.159999999999989
   201   1      11.279999999999994      43.239999999999995      62.039999999999992
   202   1      13.159999999999997      41.359999999999992      62.039999999999992
   203   1      13.159999999999997      43.239999999999995      60.159999999999989
   204   1      13.159999999999997      43.239999999999995      63.919999999999987
   205   1      11.279999999999994      46.999999999999986      46.999999999999986
   206   1      13.159999999999997       45.11999999999999      46.999999999999986
   207   1      13.159999999999997      46.999999999999986       45.11999999999999
   208   1      11.279999999999994       45.11999999999999      48.879999999999995
   209   1      11.279999999999994      46.999999999999986      50.759999999999998
   210   1      13.159999999999997       45.11999999999999      50.759999999999998
   211   1      13.159999999999997      46.999999999999986      48.879999999999995
   212   1      11.279999999999994       45.11999999999999      52.639999999999993
   213   1      11.279999999999994      46.999999999999986      54.519999999999989
   214   1      13.159999999999997       45.11999999999999      54.519999999999989
   215   1      13.159999999999997      46.999999999999986      52.639999999999993
   216   1      11.279999999999994       45.11999999999999      56.399999999999984
   217   1      11.279999999999994      46.999999999999986      58.279999999999987
   218   1      13.159999999999997       45.11999999999999      58.279999999999987
   219   1      13.159999999999997      46.999999999999986      56.399999999999984
   220   1      11.279999999999994       45.11999999999999      60.159999999999989
   221   1      11.279999999999994      46.999999999999986      62.039999999999992
   222   1      13.159999999999997       45.11999999999999      62.039999999999992
   223   1      13.159999999999997      46.999999999999986      60.159999999999989
   224   1      11.279999999999994       45.11999999999999      63.919999999999987
   225   1      11.279999999999994      46.999999999999986      65.799999999999983
   226   1      13.159999999999997       45.11999999999999      65.799999999999983
   227   1      13.159999999999997      46.999999999999986      63.919999999999987
   228   1      13.159999999999997      46.999999999999986      67.679999999999993
   229   1      11.279999999999994      50.759999999999998      43.239999999999995
   230   1      13.159999999999997      48.879999999999995      43.239999999999995
   231   1      13.159999999999997      50.759999999999998      41.359999999999992
   232   1      11.279999999999994      48.879999999999995       45.11999999999999
   233   1      11.279999999999994      50.759999999999998      46.999999999999986
   234   1      13.159999999999997      48.879999999999995      46.999999999999986
   235   1      13.159999999999997      50.759999999999998       45.11999999999999
   236   1      11.279999999999994      48.879999999999995      48.879999999999995
   237   1      11.279999999999994      50.759999999999998      50.759999999999998
   238   1      13.159999999999997      48.879999999999995      50.759999999999998
   239   1      13.159999999999997      50.759999999999998      48.879999999999995
   240   1      11.279999999999994      48.879999999999995      52.639999999999993
   241   1      11.279999999999994      50.759999999999998      54.519999999999989
   242   1      13.159999999999997      48.879999999999995      54.519999999999989
   243   1      13.159999999999997      50.759999999999998      52.639999999999993
   244   1      11.279999999999994      48.879999999999995      56.399999999999984
   245   1      11.279999999999994      50.759999999999998      58.279999999999987
   246   1      13.159999999999997      48.879999999999995      58.279999999999987
   247   1      13.159999999999997      50.759999999999998      56.399999999999984
   248   1      11.279999999999994      48.879999999999995      60.159999999999989
   249   1      11.279999999999994      50.759999999999998      62.039999999999992
   250   1      13.159999999999997      48.879999999999995      62.039999999999992
   251   1      13.159999999999997      50.759999999999998      60.159999999999989
   252   1      11.279999999999994      48.879999999999995      63.919999999999987
   253   1      11.279999999999994      50.759999999999998      65.799999999999983
   254   1      13.159999999999997      48.879999999999995      65.799999999999983
   255   1      13.159999999999997      50.759999999999998      63.919999999999987
   256   1      11.279999999999994      48.879999999999995      67.679999999999993
   257   1      11.279999999999994      50.759999999999998      69.559999999999974
   258   1      13.159999999999997      48.879999999999995      69.559999999999974
   259   1      13.159999999999997      50.759999999999998      67.679999999999993
   260   1      13.159999999999997      50.759999999999998      71.439999999999984
   261   1      11.279999999999994      54.519999999999989      39.479999999999997
   262   1      13.159999999999997      52.639999999999993      39.479999999999997
   263   1      13.159999999999997      54.519999999999989      37.599999999999994
   264   1      11.279999999999994      52.639999999999993      41.359999999999992
   265   1      11.279999999999994      54.519999999999989      43.239999999999995
   266   1      13.159999999999997      52.639999999999993      43.239999999999995
   267   1      13.159999999999997      54.519999999999989      41.359999999999992
   268   1      11.279999999999994      52.639999999999993       45.11999999999999
   269   1      11.279999999999994      54.519999999999989      46.999999999999986
   270   1      13.159999999999997      52.639999999999993      46.999999999999986
   271   1      13.159999999999997      54.519999999999989       45.11999999999999
   272   1      11.279999999999994      52.639999999999993      48.879999999999995
   273   1      11.279999999999994      54.519999999999989      50.759999999999998
   274   1      13.159999999999997      52.639999999999993      50.759999999999998
   275   1      13.159999999999997      54.519999999999989      48.879999999999995
   276   1      11.279999999999994      52.639999999999993      52.639999999999993
   277   1      11.279999999999994      54.519999999999989      54.519999999999989
   278   1      13.159999999999997      52.639999999999993      54.519999999999989
   279   1      13.159999999999997      54.519999999999989      52.639999999999993
   280   1      11.279999999999994      52.639999999999993      56.399999999999984
   281   1      11.279999999999994      54.519999999999989      58.279999999999987
   282   1      13.159999999999997      52.639999999999993      58.279999999999987
   283   1      13.159999999999997      54.519999999999989      56.399999999999984
   284   1      11.279999999999994      52.639999999999993      60.159999999999989
   285   1      11.279999999999994      54.519999999999989      62.039999999999992
   286   1      13.159999999999997      52.639999999999993      62.039999999999992
   287   1      13.159999999999997      54.519999999999989      60.159999999999989
   288   1      11.279999999999994      52.639999999999993      63.919999999999987
   289   1      11.279999999999994      54.519999999999989      65.799999999999983
   290   1      13.159999999999997      52.639999999999993      65.799999999999983
   291   1      13.159999999999997      54.519999999999989      63.919999999999987
   292   1      11.279999999999994      52.639999999999993      67.679999999999993
   293   1      11.279999999999994      54.519999999999989      69.559999999999974
   294   1      13.159999999999997      52.639999999999993      69.559999999999974
   295   1      13.159999999999997      54.519999999999989      67.679999999999993
   296   1      11.279999999999994      52.639999999999993      71.439999999999984
   297   1      11.279999999999994      54.519999999999989      73.319999999999979
   298   1      13.159999999999997      52.639999999999993      73.319999999999979
   299   1      13.159999999999997      54.519999999999989      71.439999999999984
   300   1      13.159999999999997      54.519999999999989      75.199999999999989
   301   1      13.159999999999997      56.399999999999984      35.719999999999992
   302   1      11.279999999999994      56.399999999999984      37.599999999999994
   303   1      11.279999999999994      58.279999999999987      39.479999999999997
   304   1      13.159999999999997      56.399999999999984      39.479999999999997
   305   1      13.159999999999997      58.279999999999987      37.599999999999994
   306   1      11.279999999999994      56.399999999999984      41.359999999999992
   307   1      11.279999999999994      58.279999999999987      43.239999999999995
   308   1      13.159999999999997      56.399999999999984      43.239999999999995
   309   1      13.159999999999997      58.279999999999987      41.359999999999992
   310   1      11.279999999999994      56.399999999999984       45.11999999999999
   311   1      11.279999999999994      58.279999999999987      46.999999999999986
   312   1      13.159999999999997      56.399999999999984      46.999999999999986
   313   1      13.159999999999997      58.279999999999987       45.11999999999999
   314   1      11.279999999999994      56.399999999999984      48.879999999999995
   315   1      11.279999999999994      58.279999999999987      50.759999999999998
   316   1      13.159999999999997      56.399999999999984      50.759999999999998
   317   1      13.159999999999997      58.279999999999987      48.879999999999995
   318   1      11.279999999999994      56.399999999999984      52.639999999999993
   319   1      11.279999999999994      58.279999999999987      54.519999999999989
   320   1      13.159999999999997      56.399999999999984      54.519999999999989
   321   1      13.159999999999997      58.279999999999987      52.639999999999993
   322   1      11.279999999999994      56.399999999999984      56.399999999999984
   323   1      11.279999999999994      58.279999999999987      58.279999999999987
   324   1      13.159999999999997      56.399999999999984      58.279999999999987
   325   1      13.159999999999997      58.279999999999987      56.399999999999984
   326   1      11.279999999999994      56.399999999999984      60.159999999999989
   327   1      11.279999999999994      58.279999999999987      62.039999999999992
   328   1      13.159999999999997      56.399999999999984      62.039999999999992
   329   1      13.159999999999997      58.279999999999987      60.159999999999989
   330   1      11.279999999999994      56.399999999999984      63.919999999999987
   331   1      11.279999999999994      58.279999999999987      65.799999999999983
   332   1      13.159999999999997      56.399999999999984      65.799999999999983
   333   1      13.159999999999997      58.279999999999987      63.919999999999987
   334   1      11.279999999999994      56.399999999999984      67.679999999999993
   335   1      11.279999999999994      58.279999999999987      69.559999999999974
   336   1      13.159999999999997      56.399999999999984      69.559999999999974
   337   1      13.159999999999997      58.279999999999987      67.679999999999993
   338   1      11.279999999999994      56.399999999999984      71.439999999999984
   339   1      11.279999999999994      58.279999999999987      73.319999999999979
   340   1      13.159999999999997      56.399999999999984      73.319999999999979
   341   1      13.159999999999997      58.279999999999987      71.439999999999984
   342   1      11.279999999999994      56.399999999999984      75.199999999999989
   343   1      13.159999999999997      56.399999999999984      77.079999999999984
   344   1      13.159999999999997      58.279999999999987      75.199999999999989
   345   1      13.159999999999997      60.159999999999989      39.479999999999997
   346   1      11.279999999999994      60.159999999999989      41.359999999999992
   347   1      11.279999999999994      62.039999999999992      43.239999999999995
   348   1      13.159999999999997      60.159999999999989      43.239999999999995
   349   1      13.159999999999997      62.039999999999992      41.359999999999992
   350   1      11.279999999999994      60.159999999999989       45.11999999999999
   351   1      11.279999999999994      62.039999999999992      46.999999999999986
   352   1      13.159999999999997      60.159999999999989      46.999999999999986
   353   1      13.159999999999997      62.039999999999992       45.11999999999999
   354   1      11.279999999999994      60.159999999999989      48.879999999999995
   355   1      11.279999999999994      62.039999999999992      50.759999999999998
   356   1      13.159999999999997      60.159999999999989      50.759999999999998
   357   1      13.159999999999997      62.039999999999992      48.879999999999995
   358   1      11.279999999999994      60.159999999999989      52.639999999999993