model_files/PdCo/PdCo_30000/PdCo_542/PdCo_542_fcc_29823_temp.data (written by ASE) 

29823 	 atoms 
2  atom types
0.0                     112  xlo xhi
0.0                     112  ylo yhi
0.0                     112  zlo zhi


Atoms 

     1   1                   1.875                  54.375      56.249999999999993
     2   1                   1.875      56.249999999999993                  54.375
     3   1                       0      56.249999999999993      56.249999999999993
     4   1                   1.875      56.249999999999993                  58.125
     5   1                   1.875                  58.125      56.249999999999993
     6   1                    3.75                  50.625                  54.375
     7   1      5.6249999999999991      48.749999999999993                  54.375
     8   1      5.6249999999999991                  50.625                    52.5
     9   1                    3.75                  50.625                  58.125
    10   1      5.6249999999999991      48.749999999999993                  58.125
    11   1      5.6249999999999991                  50.625      56.249999999999993
    12   1      5.6249999999999991                  50.625                      60
    13   1                    3.75                  54.375                  50.625
    14   1      5.6249999999999991                    52.5                  50.625
    15   1      5.6249999999999991                  54.375      48.749999999999993
    16   1                    3.75                    52.5                    52.5
    17   1                    3.75                  54.375                  54.375
    18   1      5.6249999999999991                    52.5                  54.375
    19   1      5.6249999999999991                  54.375                    52.5
    20   1                    3.75                    52.5      56.249999999999993
    21   1                    3.75                  54.375                  58.125
    22   1      5.6249999999999991                    52.5                  58.125
    23   1      5.6249999999999991                  54.375      56.249999999999993
    24   1                    3.75                    52.5                      60
    25   1                    3.75                  54.375      61.874999999999993
    26   1      5.6249999999999991                    52.5      61.874999999999993
    27   1      5.6249999999999991                  54.375                      60
    28   1      5.6249999999999991                  54.375      63.749999999999993
    29   1                    3.75                  58.125                  50.625
    30   1      5.6249999999999991      56.249999999999993                  50.625
    31   1      5.6249999999999991                  58.125      48.749999999999993
    32   1                    3.75      56.249999999999993                    52.5
    33   1                    3.75                  58.125                  54.375
    34   1      5.6249999999999991      56.249999999999993                  54.375
    35   1      5.6249999999999991                  58.125                    52.5
    36   1                    3.75      56.249999999999993      56.249999999999993
    37   1                    3.75                  58.125                  58.125
    38   1      5.6249999999999991      56.249999999999993                  58.125
    39   1      5.6249999999999991                  58.125      56.249999999999993
    40   1                    3.75      56.249999999999993                      60
    41   1                    3.75                  58.125      61.874999999999993
    42   1      5.6249999999999991      56.249999999999993      61.874999999999993
    43   1      5.6249999999999991                  58.125                      60
    44   1      5.6249999999999991                  58.125      63.749999999999993
    45   1      5.6249999999999991                      60                  50.625
    46   1                    3.75                      60                    52.5
    47   1                    3.75      61.874999999999993                  54.375
    48   1      5.6249999999999991                      60                  54.375
    49   1      5.6249999999999991      61.874999999999993                    52.5
    50   1                    3.75                      60      56.249999999999993
    51   1                    3.75      61.874999999999993                  58.125
    52   1      5.6249999999999991                      60                  58.125
    53   1      5.6249999999999991      61.874999999999993      56.249999999999993
    54   1                    3.75                      60                      60
    55   1      5.6249999999999991                      60      61.874999999999993
    56   1      5.6249999999999991      61.874999999999993                      60
    57   1      5.6249999999999991      63.749999999999993                  54.375
    58   1      5.6249999999999991      63.749999999999993                  58.125
    59   1                   9.375                  43.125      56.249999999999993
    60   1                   9.375                  46.875      48.749999999999993
    61   1                     7.5                  46.875                  54.375
    62   1                   9.375      44.999999999999993                  54.375
    63   1                   9.375                  46.875                    52.5
    64   1                     7.5      44.999999999999993      56.249999999999993
    65   1                     7.5                  46.875                  58.125
    66   1                   9.375      44.999999999999993                  58.125
    67   1                   9.375                  46.875      56.249999999999993
    68   1                   9.375                  46.875                      60
    69   1                   9.375                  46.875      63.749999999999993
    70   1                   9.375      48.749999999999993                  46.875
    71   1                     7.5      48.749999999999993      48.749999999999993
    72   1                     7.5                  50.625                  50.625
    73   1                   9.375      48.749999999999993                  50.625
    74   1                   9.375                  50.625      48.749999999999993
    75   1                     7.5      48.749999999999993                    52.5
    76   1                     7.5                  50.625                  54.375
    77   1                   9.375      48.749999999999993                  54.375
    78   1                   9.375                  50.625                    52.5
    79   1                     7.5      48.749999999999993      56.249999999999993
    80   1                     7.5                  50.625                  58.125
    81   1                   9.375      48.749999999999993                  58.125
    82   1                   9.375                  50.625      56.249999999999993
    83   1                     7.5      48.749999999999993                      60
    84   1                     7.5                  50.625      61.874999999999993
    85   1                   9.375      48.749999999999993      61.874999999999993
    86   1                   9.375                  50.625                      60
    87   1                     7.5      48.749999999999993      63.749999999999993
    88   1                   9.375      48.749999999999993                  65.625
    89   1                   9.375                  50.625      63.749999999999993
    90   1                     7.5                  54.375                  46.875
    91   1                   9.375                    52.5                  46.875
    92   1                   9.375                  54.375      44.999999999999993
    93   1                     7.5                    52.5      48.749999999999993
    94   1                     7.5                  54.375                  50.625
    95   1                   9.375                    52.5                  50.625
    96   1                   9.375                  54.375      48.749999999999993
    97   1                     7.5                    52.5                    52.5
    98   1                     7.5                  54.375                  54.375
    99   1                   9.375                    52.5                  54.375
   100   1                   9.375                  54.375                    52.5
   101   1                     7.5                    52.5      56.249999999999993
   102   1                     7.5                  54.375                  58.125
   103   1                   9.375                    52.5                  58.125
   104   1                   9.375                  54.375      56.249999999999993
   105   1                     7.5                    52.5                      60
   106   1                     7.5                  54.375      61.874999999999993
   107   1                   9.375                    52.5      61.874999999999993
   108   1                   9.375                  54.375                      60
   109   1                     7.5                    52.5      63.749999999999993
   110   1                     7.5                  54.375                  65.625
   111   1                   9.375                    52.5                  65.625
   112   1                   9.375                  54.375      63.749999999999993
   113   1                   9.375                  54.375                    67.5
   114   1                   9.375      56.249999999999993                  43.125
   115   1                     7.5      56.249999999999993      44.999999999999993
   116   1                     7.5                  58.125                  46.875
   117   1                   9.375      56.249999999999993                  46.875
   118   1                   9.375                  58.125      44.999999999999993
   119   1                     7.5      56.249999999999993      48.749999999999993
   120   1                     7.5                  58.125                  50.625
   121   1                   9.375      56.249999999999993                  50.625
   122   1                   9.375                  58.125      48.749999999999993
   123   1                     7.5      56.249999999999993                    52.5
   124   1                     7.5                  58.125                  54.375
   125   1                   9.375      56.249999999999993                  54.375
   126   1                   9.375                  58.125                    52.5
   127   1                     7.5      56.249999999999993      56.249999999999993
   128   1                     7.5                  58.125                  58.125
   129   1                   9.375      56.249999999999993                  58.125
   130   1                   9.375                  58.125      56.249999999999993
   131   1                     7.5      56.249999999999993                      60
   132   1                     7.5                  58.125      61.874999999999993
   133   1                   9.375      56.249999999999993      61.874999999999993
   134   1                   9.375                  58.125                      60
   135   1                     7.5      56.249999999999993      63.749999999999993
   136   1                     7.5                  58.125                  65.625
   137   1                   9.375      56.249999999999993                  65.625
   138   1                   9.375                  58.125      63.749999999999993
   139   1                     7.5      56.249999999999993                    67.5
   140   1                   9.375      56.249999999999993                  69.375
   141   1                   9.375                  58.125                    67.5
   142   1                   9.375                      60                  46.875
   143   1                     7.5                      60      48.749999999999993
   144   1                     7.5      61.874999999999993                  50.625
   145   1                   9.375                      60                  50.625
   146   1                   9.375      61.874999999999993      48.749999999999993
   147   1                     7.5                      60                    52.5
   148   1                     7.5      61.874999999999993                  54.375
   149   1                   9.375                      60                  54.375
   150   1                   9.375      61.874999999999993                    52.5
   151   1                     7.5                      60      56.249999999999993
   152   1                     7.5      61.874999999999993                  58.125
   153   1                   9.375                      60                  58.125
   154   1                   9.375      61.874999999999993      56.249999999999993
   155   1                     7.5                      60                      60
   156   1                     7.5      61.874999999999993      61.874999999999993
   157   1                   9.375                      60      61.874999999999993
   158   1                   9.375      61.874999999999993                      60
   159   1                     7.5                      60      63.749999999999993
   160   1                   9.375                      60                  65.625
   161   1                   9.375      61.874999999999993      63.749999999999993
   162   1                   9.375      63.749999999999993                  46.875
   163   1                     7.5      63.749999999999993      48.749999999999993
   164   1                   9.375      63.749999999999993                  50.625
   165   1                   9.375                  65.625      48.749999999999993
   166   1                     7.5      63.749999999999993                    52.5
   167   1                     7.5                  65.625                  54.375
   168   1                   9.375      63.749999999999993                  54.375
   169   1                   9.375                  65.625                    52.5
   170   1                     7.5      63.749999999999993      56.249999999999993
   171   1                     7.5                  65.625                  58.125
   172   1                   9.375      63.749999999999993                  58.125
   173   1                   9.375                  65.625      56.249999999999993
   174   1                     7.5      63.749999999999993                      60
   175   1                   9.375      63.749999999999993      61.874999999999993
   176   1                   9.375                  65.625                      60
   177   1                     7.5      63.749999999999993      63.749999999999993
   178   1                   9.375      63.749999999999993                  65.625
   179   1                   9.375                  65.625      63.749999999999993
   180   1                   9.375                    67.5                  54.375
   181   1                     7.5                    67.5      56.249999999999993
   182   1                   9.375                    67.5                  58.125
   183   1                   9.375                  69.375      56.249999999999993
   184   1                  13.125                  39.375      56.249999999999993
   185   1      11.249999999999998                  43.125                  50.625
   186   1                  13.125                   41.25                  50.625
   187   1                  13.125                  43.125      48.749999999999993
   188   1      11.249999999999998                  43.125                  54.375
   189   1                  13.125                   41.25                  54.375
   190   1                  13.125                  43.125                    52.5
   191   1      11.249999999999998                   41.25      56.249999999999993
   192   1      11.249999999999998                  43.125                  58.125
   193   1                  13.125                   41.25                  58.125
   194   1                  13.125                  43.125      56.249999999999993
   195   1      11.249999999999998                  43.125      61.874999999999993
   196   1                  13.125                   41.25      61.874999999999993
   197   1                  13.125                  43.125                      60
   198   1                  13.125                  43.125      63.749999999999993
   199   1      11.249999999999998                  46.875                  46.875
   200   1                  13.125      44.999999999999993                  46.875
   201   1                  13.125                  46.875      44.999999999999993
   202   1      11.249999999999998      44.999999999999993      48.749999999999993
   203   1      11.249999999999998                  46.875                  50.625
   204   1                  13.125      44.999999999999993                  50.625
   205   1                  13.125                  46.875      48.749999999999993
   206   1      11.249999999999998      44.999999999999993                    52.5
   207   1      11.249999999999998                  46.875                  54.375
   208   1                  13.125      44.999999999999993                  54.375
   209   1                  13.125                  46.875                    52.5
   210   1      11.249999999999998      44.999999999999993      56.249999999999993
   211   1      11.249999999999998                  46.875                  58.125
   212   1                  13.125      44.999999999999993                  58.125
   213   1                  13.125                  46.875      56.249999999999993
   214   1      11.249999999999998      44.999999999999993                      60
   215   1      11.249999999999998                  46.875      61.874999999999993
   216   1                  13.125      44.999999999999993      61.874999999999993
   217   1                  13.125                  46.875                      60
   218   1      11.249999999999998      44.999999999999993      63.749999999999993
   219   1      11.249999999999998                  46.875                  65.625
   220   1                  13.125      44.999999999999993                  65.625
   221   1                  13.125                  46.875      63.749999999999993
   222   1                  13.125                  46.875                    67.5
   223   1      11.249999999999998                  50.625                  43.125
   224   1                  13.125      48.749999999999993                  43.125
   225   1                  13.125                  50.625                   41.25
   226   1      11.249999999999998      48.749999999999993      44.999999999999993
   227   1      11.249999999999998                  50.625                  46.875
   228   1                  13.125      48.749999999999993                  46.875
   229   1                  13.125                  50.625      44.999999999999993
   230   1      11.249999999999998      48.749999999999993      48.749999999999993
   231   1      11.249999999999998                  50.625                  50.625
   232   1                  13.125      48.749999999999993                  50.625
   233   1                  13.125                  50.625      48.749999999999993
   234   1      11.249999999999998      48.749999999999993                    52.5
   235   1      11.249999999999998                  50.625                  54.375
   236   1                  13.125      48.749999999999993                  54.375
   237   1                  13.125                  50.625                    52.5
   238   1      11.249999999999998      48.749999999999993      56.249999999999993
   239   1      11.249999999999998                  50.625                  58.125
   240   1                  13.125      48.749999999999993                  58.125
   241   1                  13.125                  50.625      56.249999999999993
   242   1      11.249999999999998      48.749999999999993                      60
   243   1      11.249999999999998                  50.625      61.874999999999993
   244   1                  13.125      48.749999999999993      61.874999999999993
   245   1                  13.125                  50.625                      60
   246   1      11.249999999999998      48.749999999999993      63.749999999999993
   247   1      11.249999999999998                  50.625                  65.625
   248   1                  13.125      48.749999999999993                  65.625
   249   1                  13.125                  50.625      63.749999999999993
   250   1      11.249999999999998      48.749999999999993                    67.5
   251   1      11.249999999999998                  50.625                  69.375
   252   1                  13.125      48.749999999999993                  69.375
   253   1                  13.125                  50.625                    67.5
   254   1                  13.125                  50.625                   71.25
   255   1      11.249999999999998                  54.375                  43.125
   256   1                  13.125                    52.5                  43.125
   257   1                  13.125                  54.375                   41.25
   258   1      11.249999999999998                    52.5      44.999999999999993
   259   1      11.249999999999998                  54.375                  46.875
   260   1                  13.125                    52.5                  46.875
   261   1                  13.125                  54.375      44.999999999999993
   262   1      11.249999999999998                    52.5      48.749999999999993
   263   1      11.249999999999998                  54.375                  50.625
   264   1                  13.125                    52.5                  50.625
   265   1                  13.125                  54.375      48.749999999999993
   266   1      11.249999999999998                    52.5                    52.5
   267   1      11.249999999999998                  54.375                  54.375
   268   1                  13.125                    52.5                  54.375
   269   1                  13.125                  54.375                    52.5
   270   1      11.249999999999998                    52.5      56.249999999999993
   271   1      11.249999999999998                  54.375                  58.125
   272   1                  13.125                    52.5                  58.125
   273   1                  13.125                  54.375      56.249999999999993
   274   1      11.249999999999998                    52.5                      60
   275   1      11.249999999999998                  54.375      61.874999999999993
   276   1                  13.125                    52.5      61.874999999999993
   277   1                  13.125                  54.375                      60
   278   1      11.249999999999998                    52.5      63.749999999999993
   279   1      11.249999999999998                  54.375                  65.625
   280   1                  13.125                    52.5                  65.625
   281   1                  13.125                  54.375      63.749999999999993
   282   1      11.249999999999998                    52.5                    67.5
   283   1      11.249999999999998                  54.375                  69.375
   284   1                  13.125                    52.5                  69.375
   285   1                  13.125                  54.375                    67.5
   286   1                  13.125                  54.375                   71.25
   287   1                  13.125      56.249999999999993                  39.375
   288   1      11.249999999999998      56.249999999999993                   41.25
   289   1      11.249999999999998                  58.125                  43.125
   290   1                  13.125      56.249999999999993                  43.125
   291   1                  13.125                  58.125                   41.25
   292   1      11.249999999999998      56.249999999999993      44.999999999999993
   293   1      11.249999999999998                  58.125                  46.875
   294   1                  13.125      56.249999999999993                  46.875
   295   1                  13.125                  58.125      44.999999999999993
   296   1      11.249999999999998      56.249999999999993      48.749999999999993
   297   1      11.249999999999998                  58.125                  50.625
   298   1                  13.125      56.249999999999993                  50.625
   299   1                  13.125                  58.125      48.749999999999993
   300   1      11.249999999999998      56.249999999999993                    52.5
   301   1      11.249999999999998                  58.125                  54.375
   302   1                  13.125      56.249999999999993                  54.375
   303   1                  13.125                  58.125                    52.5
   304   1      11.249999999999998      56.249999999999993      56.249999999999993
   305   1      11.249999999999998                  58.125                  58.125
   306   1                  13.125      56.249999999999993                  58.125
   307   1                  13.125                  58.125      56.249999999999993
   308   1      11.249999999999998      56.249999999999993                      60
   309   1      11.249999999999998                  58.125      61.874999999999993
   310   1                  13.125      56.249999999999993      61.874999999999993
   311   1                  13.125                  58.125                      60
   312   1      11.249999999999998      56.249999999999993      63.749999999999993
   313   1      11.249999999999998                  58.125                  65.625
   314   1                  13.125      56.249999999999993                  65.625
   315   1                  13.125                  58.125      63.749999999999993
   316   1      11.249999999999998      56.249999999999993                    67.5
   317   1      11.249999999999998                  58.125                  69.375
   318   1                  13.125      56.249999999999993                  69.375
   319   1                  13.125                  58.125                    67.5
   320   1      11.249999999999998      56.249999999999993                   71.25
   321   1                  13.125      56.249999999999993                  73.125
   322   1                  13.125                  58.125                   71.25
   323   1      11.249999999999998      61.874999999999993                  43.125
   324   1                  13.125                      60                  43.125
   325   1                  13.125      61.874999999999993                   41.25
   326   1      11.249999999999998                      60      44.999999999999993
   327   1      11.249999999999998      61.874999999999993                  46.875
   328   1                  13.125                      60                  46.875
   329   1                  13.125      61.874999999999993      44.999999999999993
   330   1      11.249999999999998                      60      48.749999999999993
   331   1      11.249999999999998      61.874999999999993                  50.625
   332   1                  13.125                      60                  50.625
   333   1                  13.125      61.874999999999993      48.749999999999993
   334   1      11.249999999999998                      60                    52.5
   335   1      11.249999999999998      61.874999999999993                  54.375
   336   1                  13.125                      60                  54.375
   337   1                  13.125      61.874999999999993                    52.5
   338   1      11.249999999999998                      60      56.249999999999993
   339   1      11.249999999999998      61.874999999999993                  58.125
   340   1                  13.125                      60                  58.125
   341   1                  13.125      61.874999999999993      56.249999999999993
   342   1      11.249999999999998                      60                      60
   343   1      11.249999999999998      61.874999999999993      61.874999999999993
   344   1                  13.125                      60      61.874999999999993
   345   1                  13.125      61.874999999999993                      60
   346   1      11.249999999999998                      60      63.749999999999993
   347   1      11.249999999999998      61.874999999999993                  65.625
   348   1                  13.125                      60                  65.625
   349   1                  13.125      61.874999999999993      63.749999999999993
   350   1      11.249999999999998                      60                    67.5
   351   1      11.249999999999998      61.874999999999993                  69.375
   352   1                  13.125                      60                  69.375
   353   1                  13.125      61.874999999999993                    67.5
   354   1                  13.125      61.874999999999993                   71.25
   355   1                  13.125      63.749999999999993                  43.125
   356   1      11.249999999999998      63.749999999999993      44.999999999999993
   357   1      11.249999999999998                  65.625                  46.875
   358   1                  13.125      63.749999999999993                  46.875