model_files/CuAu/CuAu_30000/CuAu_553/CuAu_553_fcc_29881_temp.data (written by ASE) 

29881 	 atoms 
2  atom types
0.0                     121  xlo xhi
0.0                     121  ylo yhi
0.0                     121  zlo zhi


Atoms 

     1   1      120.99999999999999      57.969999999999992      57.969999999999992
     2   1      1.8699999999999903      56.100000000000001      57.969999999999992
     3   1      1.8699999999999903      57.969999999999992      56.100000000000001
     4   1      120.99999999999999      57.969999999999992      61.710000000000001
     5   1      1.8699999999999903      56.100000000000001      61.710000000000001
     6   1      1.8699999999999903      57.969999999999992      59.839999999999996
     7   1      1.8699999999999903      57.969999999999992      63.580000000000005
     8   1      120.99999999999999      61.710000000000001      57.969999999999992
     9   1      1.8699999999999903      59.839999999999996      57.969999999999992
    10   1      1.8699999999999903      61.710000000000001      56.100000000000001
    11   1      120.99999999999999      59.839999999999996      59.839999999999996
    12   1      120.99999999999999      61.710000000000001      61.710000000000001
    13   1      1.8699999999999903      59.839999999999996      61.710000000000001
    14   1      1.8699999999999903      61.710000000000001      59.839999999999996
    15   1      1.8699999999999903      61.710000000000001      63.580000000000005
    16   1      1.8699999999999903      63.580000000000005      57.969999999999992
    17   1      1.8699999999999903      63.580000000000005      61.710000000000001
    18   1      3.7399999999999878       54.22999999999999      57.969999999999992
    19   1      5.6099999999999923      52.359999999999992      57.969999999999992
    20   1      5.6099999999999923       54.22999999999999      56.100000000000001
    21   1      3.7399999999999878       54.22999999999999      61.710000000000001
    22   1      5.6099999999999923      52.359999999999992      61.710000000000001
    23   1      5.6099999999999923       54.22999999999999      59.839999999999996
    24   1      5.6099999999999923       54.22999999999999      63.580000000000005
    25   1      3.7399999999999878      57.969999999999992       54.22999999999999
    26   1      5.6099999999999923      56.100000000000001       54.22999999999999
    27   1      5.6099999999999923      57.969999999999992      52.359999999999992
    28   1      3.7399999999999878      56.100000000000001      56.100000000000001
    29   1      3.7399999999999878      57.969999999999992      57.969999999999992
    30   1      5.6099999999999923      56.100000000000001      57.969999999999992
    31   1      5.6099999999999923      57.969999999999992      56.100000000000001
    32   1      3.7399999999999878      56.100000000000001      59.839999999999996
    33   1      3.7399999999999878      57.969999999999992      61.710000000000001
    34   1      5.6099999999999923      56.100000000000001      61.710000000000001
    35   1      5.6099999999999923      57.969999999999992      59.839999999999996
    36   1      3.7399999999999878      56.100000000000001      63.580000000000005
    37   1      3.7399999999999878      57.969999999999992      65.450000000000003
    38   1      5.6099999999999923      56.100000000000001      65.450000000000003
    39   1      5.6099999999999923      57.969999999999992      63.580000000000005
    40   1      5.6099999999999923      57.969999999999992      67.319999999999993
    41   1      3.7399999999999878      61.710000000000001       54.22999999999999
    42   1      5.6099999999999923      59.839999999999996       54.22999999999999
    43   1      5.6099999999999923      61.710000000000001      52.359999999999992
    44   1      3.7399999999999878      59.839999999999996      56.100000000000001
    45   1      3.7399999999999878      61.710000000000001      57.969999999999992
    46   1      5.6099999999999923      59.839999999999996      57.969999999999992
    47   1      5.6099999999999923      61.710000000000001      56.100000000000001
    48   1      3.7399999999999878      59.839999999999996      59.839999999999996
    49   1      3.7399999999999878      61.710000000000001      61.710000000000001
    50   1      5.6099999999999923      59.839999999999996      61.710000000000001
    51   1      5.6099999999999923      61.710000000000001      59.839999999999996
    52   1      3.7399999999999878      59.839999999999996      63.580000000000005
    53   1      3.7399999999999878      61.710000000000001      65.450000000000003
    54   1      5.6099999999999923      59.839999999999996      65.450000000000003
    55   1      5.6099999999999923      61.710000000000001      63.580000000000005
    56   1      5.6099999999999923      61.710000000000001      67.319999999999993
    57   1      5.6099999999999923      63.580000000000005       54.22999999999999
    58   1      3.7399999999999878      63.580000000000005      56.100000000000001
    59   1      3.7399999999999878      65.450000000000003      57.969999999999992
    60   1      5.6099999999999923      63.580000000000005      57.969999999999992
    61   1      5.6099999999999923      65.450000000000003      56.100000000000001
    62   1      3.7399999999999878      63.580000000000005      59.839999999999996
    63   1      3.7399999999999878      65.450000000000003      61.710000000000001
    64   1      5.6099999999999923      63.580000000000005      61.710000000000001
    65   1      5.6099999999999923      65.450000000000003      59.839999999999996
    66   1      3.7399999999999878      63.580000000000005      63.580000000000005
    67   1      5.6099999999999923      63.580000000000005      65.450000000000003
    68   1      5.6099999999999923      65.450000000000003      63.580000000000005
    69   1      5.6099999999999923      67.319999999999993      57.969999999999992
    70   1      5.6099999999999923      67.319999999999993      61.710000000000001
    71   1      7.4799999999999907      50.489999999999988      57.969999999999992
    72   1      9.3499999999999872       48.61999999999999      57.969999999999992
    73   1      9.3499999999999872      50.489999999999988      56.100000000000001
    74   1      7.4799999999999907      50.489999999999988      61.710000000000001
    75   1      9.3499999999999872       48.61999999999999      61.710000000000001
    76   1      9.3499999999999872      50.489999999999988      59.839999999999996
    77   1      9.3499999999999872      50.489999999999988      63.580000000000005
    78   1      7.4799999999999907       54.22999999999999       54.22999999999999
    79   1      9.3499999999999872      52.359999999999992       54.22999999999999
    80   1      9.3499999999999872       54.22999999999999      52.359999999999992
    81   1      7.4799999999999907      52.359999999999992      56.100000000000001
    82   1      7.4799999999999907       54.22999999999999      57.969999999999992
    83   1      9.3499999999999872      52.359999999999992      57.969999999999992
    84   1      9.3499999999999872       54.22999999999999      56.100000000000001
    85   1      7.4799999999999907      52.359999999999992      59.839999999999996
    86   1      7.4799999999999907       54.22999999999999      61.710000000000001
    87   1      9.3499999999999872      52.359999999999992      61.710000000000001
    88   1      9.3499999999999872       54.22999999999999      59.839999999999996
    89   1      7.4799999999999907      52.359999999999992      63.580000000000005
    90   1      7.4799999999999907       54.22999999999999      65.450000000000003
    91   1      9.3499999999999872      52.359999999999992      65.450000000000003
    92   1      9.3499999999999872       54.22999999999999      63.580000000000005
    93   1      9.3499999999999872       54.22999999999999      67.319999999999993
    94   1      7.4799999999999907      57.969999999999992      50.489999999999988
    95   1      9.3499999999999872      56.100000000000001      50.489999999999988
    96   1      9.3499999999999872      57.969999999999992       48.61999999999999
    97   1      7.4799999999999907      56.100000000000001      52.359999999999992
    98   1      7.4799999999999907      57.969999999999992       54.22999999999999
    99   1      9.3499999999999872      56.100000000000001       54.22999999999999
   100   1      9.3499999999999872      57.969999999999992      52.359999999999992
   101   1      7.4799999999999907      56.100000000000001      56.100000000000001
   102   1      7.4799999999999907      57.969999999999992      57.969999999999992
   103   1      9.3499999999999872      56.100000000000001      57.969999999999992
   104   1      9.3499999999999872      57.969999999999992      56.100000000000001
   105   1      7.4799999999999907      56.100000000000001      59.839999999999996
   106   1      7.4799999999999907      57.969999999999992      61.710000000000001
   107   1      9.3499999999999872      56.100000000000001      61.710000000000001
   108   1      9.3499999999999872      57.969999999999992      59.839999999999996
   109   1      7.4799999999999907      56.100000000000001      63.580000000000005
   110   1      7.4799999999999907      57.969999999999992      65.450000000000003
   111   1      9.3499999999999872      56.100000000000001      65.450000000000003
   112   1      9.3499999999999872      57.969999999999992      63.580000000000005
   113   1      7.4799999999999907      56.100000000000001      67.319999999999993
   114   1      7.4799999999999907      57.969999999999992      69.189999999999998
   115   1      9.3499999999999872      56.100000000000001      69.189999999999998
   116   1      9.3499999999999872      57.969999999999992      67.319999999999993
   117   1      9.3499999999999872      57.969999999999992      71.060000000000002
   118   1      7.4799999999999907      61.710000000000001      50.489999999999988
   119   1      9.3499999999999872      59.839999999999996      50.489999999999988
   120   1      9.3499999999999872      61.710000000000001       48.61999999999999
   121   1      7.4799999999999907      59.839999999999996      52.359999999999992
   122   1      7.4799999999999907      61.710000000000001       54.22999999999999
   123   1      9.3499999999999872      59.839999999999996       54.22999999999999
   124   1      9.3499999999999872      61.710000000000001      52.359999999999992
   125   1      7.4799999999999907      59.839999999999996      56.100000000000001
   126   1      7.4799999999999907      61.710000000000001      57.969999999999992
   127   1      9.3499999999999872      59.839999999999996      57.969999999999992
   128   1      9.3499999999999872      61.710000000000001      56.100000000000001
   129   1      7.4799999999999907      59.839999999999996      59.839999999999996
   130   1      7.4799999999999907      61.710000000000001      61.710000000000001
   131   1      9.3499999999999872      59.839999999999996      61.710000000000001
   132   1      9.3499999999999872      61.710000000000001      59.839999999999996
   133   1      7.4799999999999907      59.839999999999996      63.580000000000005
   134   1      7.4799999999999907      61.710000000000001      65.450000000000003
   135   1      9.3499999999999872      59.839999999999996      65.450000000000003
   136   1      9.3499999999999872      61.710000000000001      63.580000000000005
   137   1      7.4799999999999907      59.839999999999996      67.319999999999993
   138   1      7.4799999999999907      61.710000000000001      69.189999999999998
   139   1      9.3499999999999872      59.839999999999996      69.189999999999998
   140   1      9.3499999999999872      61.710000000000001      67.319999999999993
   141   1      9.3499999999999872      61.710000000000001      71.060000000000002
   142   1      9.3499999999999872      63.580000000000005      50.489999999999988
   143   1      7.4799999999999907      63.580000000000005      52.359999999999992
   144   1      7.4799999999999907      65.450000000000003       54.22999999999999
   145   1      9.3499999999999872      63.580000000000005       54.22999999999999
   146   1      9.3499999999999872      65.450000000000003      52.359999999999992
   147   1      7.4799999999999907      63.580000000000005      56.100000000000001
   148   1      7.4799999999999907      65.450000000000003      57.969999999999992
   149   1      9.3499999999999872      63.580000000000005      57.969999999999992
   150   1      9.3499999999999872      65.450000000000003      56.100000000000001
   151   1      7.4799999999999907      63.580000000000005      59.839999999999996
   152   1      7.4799999999999907      65.450000000000003      61.710000000000001
   153   1      9.3499999999999872      63.580000000000005      61.710000000000001
   154   1      9.3499999999999872      65.450000000000003      59.839999999999996
   155   1      7.4799999999999907      63.580000000000005      63.580000000000005
   156   1      7.4799999999999907      65.450000000000003      65.450000000000003
   157   1      9.3499999999999872      63.580000000000005      65.450000000000003
   158   1      9.3499999999999872      65.450000000000003      63.580000000000005
   159   1      7.4799999999999907      63.580000000000005      67.319999999999993
   160   1      9.3499999999999872      63.580000000000005      69.189999999999998
   161   1      9.3499999999999872      65.450000000000003      67.319999999999993
   162   1      9.3499999999999872      67.319999999999993       54.22999999999999
   163   1      7.4799999999999907      67.319999999999993      56.100000000000001
   164   1      7.4799999999999907      69.189999999999998      57.969999999999992
   165   1      9.3499999999999872      67.319999999999993      57.969999999999992
   166   1      9.3499999999999872      69.189999999999998      56.100000000000001
   167   1      7.4799999999999907      67.319999999999993      59.839999999999996
   168   1      7.4799999999999907      69.189999999999998      61.710000000000001
   169   1      9.3499999999999872      67.319999999999993      61.710000000000001
   170   1      9.3499999999999872      69.189999999999998      59.839999999999996
   171   1      7.4799999999999907      67.319999999999993      63.580000000000005
   172   1      9.3499999999999872      67.319999999999993      65.450000000000003
   173   1      9.3499999999999872      69.189999999999998      63.580000000000005
   174   1      9.3499999999999872      71.060000000000002      57.969999999999992
   175   1      9.3499999999999872      71.060000000000002      61.710000000000001
   176   1      11.219999999999992      46.749999999999993      57.969999999999992
   177   1      13.089999999999996      44.879999999999995      57.969999999999992
   178   1      13.089999999999996      46.749999999999993      56.100000000000001
   179   1      11.219999999999992      46.749999999999993      61.710000000000001
   180   1      13.089999999999996      44.879999999999995      61.710000000000001
   181   1      13.089999999999996      46.749999999999993      59.839999999999996
   182   1      13.089999999999996      46.749999999999993      63.580000000000005
   183   1      11.219999999999992      50.489999999999988       54.22999999999999
   184   1      13.089999999999996       48.61999999999999       54.22999999999999
   185   1      13.089999999999996      50.489999999999988      52.359999999999992
   186   1      11.219999999999992       48.61999999999999      56.100000000000001
   187   1      11.219999999999992      50.489999999999988      57.969999999999992
   188   1      13.089999999999996       48.61999999999999      57.969999999999992
   189   1      13.089999999999996      50.489999999999988      56.100000000000001
   190   1      11.219999999999992       48.61999999999999      59.839999999999996
   191   1      11.219999999999992      50.489999999999988      61.710000000000001
   192   1      13.089999999999996       48.61999999999999      61.710000000000001
   193   1      13.089999999999996      50.489999999999988      59.839999999999996
   194   1      11.219999999999992       48.61999999999999      63.580000000000005
   195   1      11.219999999999992      50.489999999999988      65.450000000000003
   196   1      13.089999999999996       48.61999999999999      65.450000000000003
   197   1      13.089999999999996      50.489999999999988      63.580000000000005
   198   1      13.089999999999996      50.489999999999988      67.319999999999993
   199   1      11.219999999999992       54.22999999999999      50.489999999999988
   200   1      13.089999999999996      52.359999999999992      50.489999999999988
   201   1      13.089999999999996       54.22999999999999       48.61999999999999
   202   1      11.219999999999992      52.359999999999992      52.359999999999992
   203   1      11.219999999999992       54.22999999999999       54.22999999999999
   204   1      13.089999999999996      52.359999999999992       54.22999999999999
   205   1      13.089999999999996       54.22999999999999      52.359999999999992
   206   1      11.219999999999992      52.359999999999992      56.100000000000001
   207   1      11.219999999999992       54.22999999999999      57.969999999999992
   208   1      13.089999999999996      52.359999999999992      57.969999999999992
   209   1      13.089999999999996       54.22999999999999      56.100000000000001
   210   1      11.219999999999992      52.359999999999992      59.839999999999996
   211   1      11.219999999999992       54.22999999999999      61.710000000000001
   212   1      13.089999999999996      52.359999999999992      61.710000000000001
   213   1      13.089999999999996       54.22999999999999      59.839999999999996
   214   1      11.219999999999992      52.359999999999992      63.580000000000005
   215   1      11.219999999999992       54.22999999999999      65.450000000000003
   216   1      13.089999999999996      52.359999999999992      65.450000000000003
   217   1      13.089999999999996       54.22999999999999      63.580000000000005
   218   1      11.219999999999992      52.359999999999992      67.319999999999993
   219   1      11.219999999999992       54.22999999999999      69.189999999999998
   220   1      13.089999999999996      52.359999999999992      69.189999999999998
   221   1      13.089999999999996       54.22999999999999      67.319999999999993
   222   1      13.089999999999996       54.22999999999999      71.060000000000002
   223   1      11.219999999999992      57.969999999999992      46.749999999999993
   224   1      13.089999999999996      56.100000000000001      46.749999999999993
   225   1      13.089999999999996      57.969999999999992      44.879999999999995
   226   1      11.219999999999992      56.100000000000001       48.61999999999999
   227   1      11.219999999999992      57.969999999999992      50.489999999999988
   228   1      13.089999999999996      56.100000000000001      50.489999999999988
   229   1      13.089999999999996      57.969999999999992       48.61999999999999
   230   1      11.219999999999992      56.100000000000001      52.359999999999992
   231   1      11.219999999999992      57.969999999999992       54.22999999999999
   232   1      13.089999999999996      56.100000000000001       54.22999999999999
   233   1      13.089999999999996      57.969999999999992      52.359999999999992
   234   1      11.219999999999992      56.100000000000001      56.100000000000001
   235   1      11.219999999999992      57.969999999999992      57.969999999999992
   236   1      13.089999999999996      56.100000000000001      57.969999999999992
   237   1      13.089999999999996      57.969999999999992      56.100000000000001
   238   1      11.219999999999992      56.100000000000001      59.839999999999996
   239   1      11.219999999999992      57.969999999999992      61.710000000000001
   240   1      13.089999999999996      56.100000000000001      61.710000000000001
   241   1      13.089999999999996      57.969999999999992      59.839999999999996
   242   1      11.219999999999992      56.100000000000001      63.580000000000005
   243   1      11.219999999999992      57.969999999999992      65.450000000000003
   244   1      13.089999999999996      56.100000000000001      65.450000000000003
   245   1      13.089999999999996      57.969999999999992      63.580000000000005
   246   1      11.219999999999992      56.100000000000001      67.319999999999993
   247   1      11.219999999999992      57.969999999999992      69.189999999999998
   248   1      13.089999999999996      56.100000000000001      69.189999999999998
   249   1      13.089999999999996      57.969999999999992      67.319999999999993
   250   1      11.219999999999992      56.100000000000001      71.060000000000002
   251   1      11.219999999999992      57.969999999999992      72.930000000000007
   252   1      13.089999999999996      56.100000000000001      72.930000000000007
   253   1      13.089999999999996      57.969999999999992      71.060000000000002
   254   1      13.089999999999996      57.969999999999992      74.799999999999997
   255   1      11.219999999999992      61.710000000000001      46.749999999999993
   256   1      13.089999999999996      59.839999999999996      46.749999999999993
   257   1      13.089999999999996      61.710000000000001      44.879999999999995
   258   1      11.219999999999992      59.839999999999996       48.61999999999999
   259   1      11.219999999999992      61.710000000000001      50.489999999999988
   260   1      13.089999999999996      59.839999999999996      50.489999999999988
   261   1      13.089999999999996      61.710000000000001       48.61999999999999
   262   1      11.219999999999992      59.839999999999996      52.359999999999992
   263   1      11.219999999999992      61.710000000000001       54.22999999999999
   264   1      13.089999999999996      59.839999999999996       54.22999999999999
   265   1      13.089999999999996      61.710000000000001      52.359999999999992
   266   1      11.219999999999992      59.839999999999996      56.100000000000001
   267   1      11.219999999999992      61.710000000000001      57.969999999999992
   268   1      13.089999999999996      59.839999999999996      57.969999999999992
   269   1      13.089999999999996      61.710000000000001      56.100000000000001
   270   1      11.219999999999992      59.839999999999996      59.839999999999996
   271   1      11.219999999999992      61.710000000000001      61.710000000000001
   272   1      13.089999999999996      59.839999999999996      61.710000000000001
   273   1      13.089999999999996      61.710000000000001      59.839999999999996
   274   1      11.219999999999992      59.839999999999996      63.580000000000005
   275   1      11.219999999999992      61.710000000000001      65.450000000000003
   276   1      13.089999999999996      59.839999999999996      65.450000000000003
   277   1      13.089999999999996      61.710000000000001      63.580000000000005
   278   1      11.219999999999992      59.839999999999996      67.319999999999993
   279   1      11.219999999999992      61.710000000000001      69.189999999999998
   280   1      13.089999999999996      59.839999999999996      69.189999999999998
   281   1      13.089999999999996      61.710000000000001      67.319999999999993
   282   1      11.219999999999992      59.839999999999996      71.060000000000002
   283   1      11.219999999999992      61.710000000000001      72.930000000000007
   284   1      13.089999999999996      59.839999999999996      72.930000000000007
   285   1      13.089999999999996      61.710000000000001      71.060000000000002
   286   1      13.089999999999996      61.710000000000001      74.799999999999997
   287   1      13.089999999999996      63.580000000000005      46.749999999999993
   288   1      11.219999999999992      63.580000000000005       48.61999999999999
   289   1      11.219999999999992      65.450000000000003      50.489999999999988
   290   1      13.089999999999996      63.580000000000005      50.489999999999988
   291   1      13.089999999999996      65.450000000000003       48.61999999999999
   292   1      11.219999999999992      63.580000000000005      52.359999999999992
   293   1      11.219999999999992      65.450000000000003       54.22999999999999
   294   1      13.089999999999996      63.580000000000005       54.22999999999999
   295   1      13.089999999999996      65.450000000000003      52.359999999999992
   296   1      11.219999999999992      63.580000000000005      56.100000000000001
   297   1      11.219999999999992      65.450000000000003      57.969999999999992
   298   1      13.089999999999996      63.580000000000005      57.969999999999992
   299   1      13.089999999999996      65.450000000000003      56.100000000000001
   300   1      11.219999999999992      63.580000000000005      59.839999999999996
   301   1      11.219999999999992      65.450000000000003      61.710000000000001
   302   1      13.089999999999996      63.580000000000005      61.710000000000001
   303   1      13.089999999999996      65.450000000000003      59.839999999999996
   304   1      11.219999999999992      63.580000000000005      63.580000000000005
   305   1      11.219999999999992      65.450000000000003      65.450000000000003
   306   1      13.089999999999996      63.580000000000005      65.450000000000003
   307   1      13.089999999999996      65.450000000000003      63.580000000000005
   308   1      11.219999999999992      63.580000000000005      67.319999999999993
   309   1      11.219999999999992      65.450000000000003      69.189999999999998
   310   1      13.089999999999996      63.580000000000005      69.189999999999998
   311   1      13.089999999999996      65.450000000000003      67.319999999999993
   312   1      11.219999999999992      63.580000000000005      71.060000000000002
   313   1      13.089999999999996      63.580000000000005      72.930000000000007
   314   1      13.089999999999996      65.450000000000003      71.060000000000002
   315   1      13.089999999999996      67.319999999999993      50.489999999999988
   316   1      11.219999999999992      67.319999999999993      52.359999999999992
   317   1      11.219999999999992      69.189999999999998       54.22999999999999
   318   1      13.089999999999996      67.319999999999993       54.22999999999999
   319   1      13.089999999999996      69.189999999999998      52.359999999999992
   320   1      11.219999999999992      67.319999999999993      56.100000000000001
   321   1      11.219999999999992      69.189999999999998      57.969999999999992
   322   1      13.089999999999996      67.319999999999993      57.969999999999992
   323   1      13.089999999999996      69.189999999999998      56.100000000000001
   324   1      11.219999999999992      67.319999999999993      59.839999999999996
   325   1      11.219999999999992      69.189999999999998      61.710000000000001
   326   1      13.089999999999996      67.319999999999993      61.710000000000001
   327   1      13.089999999999996      69.189999999999998      59.839999999999996
   328   1      11.219999999999992      67.319999999999993      63.580000000000005
   329   1      11.219999999999992      69.189999999999998      65.450000000000003
   330   1      13.089999999999996      67.319999999999993      65.450000000000003
   331   1      13.089999999999996      69.189999999999998      63.580000000000005
   332   1      11.219999999999992      67.319999999999993      67.319999999999993
   333   1      13.089999999999996      67.319999999999993      69.189999999999998
   334   1      13.089999999999996      69.189999999999998      67.319999999999993
   335   1      13.089999999999996      71.060000000000002       54.22999999999999
   336   1      11.219999999999992      71.060000000000002      56.100000000000001
   337   1      11.219999999999992      72.930000000000007      57.969999999999992
   338   1      13.089999999999996      71.060000000000002      57.969999999999992
   339   1      13.089999999999996      72.930000000000007      56.100000000000001
   340   1      11.219999999999992      71.060000000000002      59.839999999999996
   341   1      11.219999999999992      72.930000000000007      61.710000000000001
   342   1      13.089999999999996      71.060000000000002      61.710000000000001
   343   1      13.089999999999996      72.930000000000007      59.839999999999996
   344   1      11.219999999999992      71.060000000000002      63.580000000000005
   345   1      13.089999999999996      71.060000000000002      65.450000000000003
   346   1      13.089999999999996      72.930000000000007      63.580000000000005
   347   1      13.089999999999996      74.799999999999997      57.969999999999992
   348   1      13.089999999999996      74.799999999999997      61.710000000000001
   349   1      14.959999999999994      43.009999999999998      57.969999999999992
   350   1      16.829999999999991      41.139999999999993      57.969999999999992
   351   1      16.829999999999991      43.009999999999998      56.100000000000001
   352   1      14.959999999999994      43.009999999999998      61.710000000000001
   353   1      16.829999999999991      41.139999999999993      61.710000000000001
   354   1      16.829999999999991      43.009999999999998      59.839999999999996
   355   1      16.829999999999991      43.009999999999998      63.580000000000005
   356   1      16.829999999999991      46.749999999999993       48.61999999999999
   357   1      14.959999999999994      46.749999999999993       54.22999999999999
   358   1      16.829999999999991      44.879999999999995       54.22999999999999