model_files/PdCu/PdCu_30000/PdCu_522/PdCu_522_fcc_30243_temp.data (written by ASE) 

30243 	 atoms 
2  atom types
0.0                      98  xlo xhi
0.0                      98  ylo yhi
0.0                      98  zlo zhi


Atoms 

     1   1      1.8874999999999955      43.412499999999987      49.074999999999989
     2   1      1.8874999999999955       45.29999999999999      47.187499999999986
     3   1      1.8874999999999955      47.187499999999986       45.29999999999999
     4   1      1.8874999999999955       45.29999999999999      50.962499999999999
     5   1      1.8874999999999955      47.187499999999986      49.074999999999989
     6   1      1.8874999999999955      47.187499999999986      52.849999999999987
     7   1      1.8874999999999955      49.074999999999989      43.412499999999987
     8   1      1.8874999999999955      49.074999999999989      47.187499999999986
     9   1      1.8874999999999955      50.962499999999999       45.29999999999999
    10   1      97.999999999999986      49.074999999999989      49.074999999999989
    11   1      1.8874999999999955      49.074999999999989      50.962499999999999
    12   1      1.8874999999999955      50.962499999999999      49.074999999999989
    13   1      1.8874999999999955      49.074999999999989      54.737499999999997
    14   1      1.8874999999999955      50.962499999999999      52.849999999999987
    15   1      1.8874999999999955      52.849999999999987      47.187499999999986
    16   1      1.8874999999999955      52.849999999999987      50.962499999999999
    17   1      1.8874999999999955      54.737499999999997      49.074999999999989
    18   1      5.6624999999999934      32.087499999999999      49.074999999999989
    19   1      5.6624999999999934      33.974999999999994      47.187499999999986
    20   1      5.6624999999999934      35.862499999999997       45.29999999999999
    21   1      5.6624999999999934      33.974999999999994      50.962499999999999
    22   1      5.6624999999999934      35.862499999999997      49.074999999999989
    23   1      5.6624999999999934      35.862499999999997      52.849999999999987
    24   1      5.6624999999999934      37.749999999999993      43.412499999999987
    25   1      5.6624999999999934      39.637499999999996      41.524999999999991
    26   1       3.774999999999991      39.637499999999996      47.187499999999986
    27   1      5.6624999999999934      37.749999999999993      47.187499999999986
    28   1      5.6624999999999934      39.637499999999996       45.29999999999999
    29   1       3.774999999999991      37.749999999999993      49.074999999999989
    30   1       3.774999999999991      39.637499999999996      50.962499999999999
    31   1      5.6624999999999934      37.749999999999993      50.962499999999999
    32   1      5.6624999999999934      39.637499999999996      49.074999999999989
    33   1      5.6624999999999934      37.749999999999993      54.737499999999997
    34   1      5.6624999999999934      39.637499999999996      52.849999999999987
    35   1      5.6624999999999934      39.637499999999996      56.624999999999986
    36   1      5.6624999999999934      41.524999999999991      39.637499999999996
    37   1      5.6624999999999934      43.412499999999987      37.749999999999993
    38   1       3.774999999999991      43.412499999999987      43.412499999999987
    39   1      5.6624999999999934      41.524999999999991      43.412499999999987
    40   1      5.6624999999999934      43.412499999999987      41.524999999999991
    41   1       3.774999999999991      41.524999999999991       45.29999999999999
    42   1       3.774999999999991      43.412499999999987      47.187499999999986
    43   1      5.6624999999999934      41.524999999999991      47.187499999999986
    44   1      5.6624999999999934      43.412499999999987       45.29999999999999
    45   1       3.774999999999991      41.524999999999991      49.074999999999989
    46   1       3.774999999999991      43.412499999999987      50.962499999999999
    47   1      5.6624999999999934      41.524999999999991      50.962499999999999
    48   1      5.6624999999999934      43.412499999999987      49.074999999999989
    49   1       3.774999999999991      41.524999999999991      52.849999999999987
    50   1       3.774999999999991      43.412499999999987      54.737499999999997
    51   1      5.6624999999999934      41.524999999999991      54.737499999999997
    52   1      5.6624999999999934      43.412499999999987      52.849999999999987
    53   1      5.6624999999999934      41.524999999999991      58.512499999999996
    54   1      5.6624999999999934      43.412499999999987      56.624999999999986
    55   1      5.6624999999999934      43.412499999999987      60.399999999999984
    56   1      5.6624999999999934       45.29999999999999      35.862499999999997
    57   1      5.6624999999999934      47.187499999999986      33.974999999999994
    58   1       3.774999999999991      47.187499999999986      39.637499999999996
    59   1      5.6624999999999934       45.29999999999999      39.637499999999996
    60   1      5.6624999999999934      47.187499999999986      37.749999999999993
    61   1       3.774999999999991       45.29999999999999      41.524999999999991
    62   1       3.774999999999991      47.187499999999986      43.412499999999987
    63   1      5.6624999999999934       45.29999999999999      43.412499999999987
    64   1      5.6624999999999934      47.187499999999986      41.524999999999991
    65   1       3.774999999999991       45.29999999999999       45.29999999999999
    66   1       3.774999999999991      47.187499999999986      47.187499999999986
    67   1      5.6624999999999934       45.29999999999999      47.187499999999986
    68   1      5.6624999999999934      47.187499999999986       45.29999999999999
    69   1       3.774999999999991       45.29999999999999      49.074999999999989
    70   1       3.774999999999991      47.187499999999986      50.962499999999999
    71   1      5.6624999999999934       45.29999999999999      50.962499999999999
    72   1      5.6624999999999934      47.187499999999986      49.074999999999989
    73   1       3.774999999999991       45.29999999999999      52.849999999999987
    74   1       3.774999999999991      47.187499999999986      54.737499999999997
    75   1      5.6624999999999934       45.29999999999999      54.737499999999997
    76   1      5.6624999999999934      47.187499999999986      52.849999999999987
    77   1       3.774999999999991       45.29999999999999      56.624999999999986
    78   1       3.774999999999991      47.187499999999986      58.512499999999996
    79   1      5.6624999999999934       45.29999999999999      58.512499999999996
    80   1      5.6624999999999934      47.187499999999986      56.624999999999986
    81   1      5.6624999999999934       45.29999999999999      62.287499999999994
    82   1      5.6624999999999934      47.187499999999986      60.399999999999984
    83   1      5.6624999999999934      47.187499999999986      64.174999999999997
    84   1      5.6624999999999934      49.074999999999989      32.087499999999999
    85   1      5.6624999999999934      49.074999999999989      35.862499999999997
    86   1      5.6624999999999934      50.962499999999999      33.974999999999994
    87   1       3.774999999999991      49.074999999999989      37.749999999999993
    88   1       3.774999999999991      50.962499999999999      39.637499999999996
    89   1      5.6624999999999934      49.074999999999989      39.637499999999996
    90   1      5.6624999999999934      50.962499999999999      37.749999999999993
    91   1       3.774999999999991      49.074999999999989      41.524999999999991
    92   1       3.774999999999991      50.962499999999999      43.412499999999987
    93   1      5.6624999999999934      49.074999999999989      43.412499999999987
    94   1      5.6624999999999934      50.962499999999999      41.524999999999991
    95   1       3.774999999999991      49.074999999999989       45.29999999999999
    96   1       3.774999999999991      50.962499999999999      47.187499999999986
    97   1      5.6624999999999934      49.074999999999989      47.187499999999986
    98   1      5.6624999999999934      50.962499999999999       45.29999999999999
    99   1       3.774999999999991      49.074999999999989      49.074999999999989
   100   1       3.774999999999991      50.962499999999999      50.962499999999999
   101   1      5.6624999999999934      49.074999999999989      50.962499999999999
   102   1      5.6624999999999934      50.962499999999999      49.074999999999989
   103   1       3.774999999999991      49.074999999999989      52.849999999999987
   104   1       3.774999999999991      50.962499999999999      54.737499999999997
   105   1      5.6624999999999934      49.074999999999989      54.737499999999997
   106   1      5.6624999999999934      50.962499999999999      52.849999999999987
   107   1       3.774999999999991      49.074999999999989      56.624999999999986
   108   1       3.774999999999991      50.962499999999999      58.512499999999996
   109   1      5.6624999999999934      49.074999999999989      58.512499999999996
   110   1      5.6624999999999934      50.962499999999999      56.624999999999986
   111   1       3.774999999999991      49.074999999999989      60.399999999999984
   112   1      5.6624999999999934      49.074999999999989      62.287499999999994
   113   1      5.6624999999999934      50.962499999999999      60.399999999999984
   114   1      5.6624999999999934      49.074999999999989                 66.0625
   115   1      5.6624999999999934      50.962499999999999      64.174999999999997
   116   1      5.6624999999999934      52.849999999999987      35.862499999999997
   117   1      5.6624999999999934      52.849999999999987      39.637499999999996
   118   1      5.6624999999999934      54.737499999999997      37.749999999999993
   119   1       3.774999999999991      52.849999999999987      41.524999999999991
   120   1       3.774999999999991      54.737499999999997      43.412499999999987
   121   1      5.6624999999999934      52.849999999999987      43.412499999999987
   122   1      5.6624999999999934      54.737499999999997      41.524999999999991
   123   1       3.774999999999991      52.849999999999987       45.29999999999999
   124   1       3.774999999999991      54.737499999999997      47.187499999999986
   125   1      5.6624999999999934      52.849999999999987      47.187499999999986
   126   1      5.6624999999999934      54.737499999999997       45.29999999999999
   127   1       3.774999999999991      52.849999999999987      49.074999999999989
   128   1       3.774999999999991      54.737499999999997      50.962499999999999
   129   1      5.6624999999999934      52.849999999999987      50.962499999999999
   130   1      5.6624999999999934      54.737499999999997      49.074999999999989
   131   1       3.774999999999991      52.849999999999987      52.849999999999987
   132   1       3.774999999999991      54.737499999999997      54.737499999999997
   133   1      5.6624999999999934      52.849999999999987      54.737499999999997
   134   1      5.6624999999999934      54.737499999999997      52.849999999999987
   135   1       3.774999999999991      52.849999999999987      56.624999999999986
   136   1      5.6624999999999934      52.849999999999987      58.512499999999996
   137   1      5.6624999999999934      54.737499999999997      56.624999999999986
   138   1      5.6624999999999934      52.849999999999987      62.287499999999994
   139   1      5.6624999999999934      54.737499999999997      60.399999999999984
   140   1      5.6624999999999934      56.624999999999986      39.637499999999996
   141   1      5.6624999999999934      56.624999999999986      43.412499999999987
   142   1      5.6624999999999934      58.512499999999996      41.524999999999991
   143   1       3.774999999999991      56.624999999999986       45.29999999999999
   144   1       3.774999999999991      58.512499999999996      47.187499999999986
   145   1      5.6624999999999934      56.624999999999986      47.187499999999986
   146   1      5.6624999999999934      58.512499999999996       45.29999999999999
   147   1       3.774999999999991      56.624999999999986      49.074999999999989
   148   1       3.774999999999991      58.512499999999996      50.962499999999999
   149   1      5.6624999999999934      56.624999999999986      50.962499999999999
   150   1      5.6624999999999934      58.512499999999996      49.074999999999989
   151   1       3.774999999999991      56.624999999999986      52.849999999999987
   152   1      5.6624999999999934      56.624999999999986      54.737499999999997
   153   1      5.6624999999999934      58.512499999999996      52.849999999999987
   154   1      5.6624999999999934      56.624999999999986      58.512499999999996
   155   1      5.6624999999999934      58.512499999999996      56.624999999999986
   156   1      5.6624999999999934      60.399999999999984      43.412499999999987
   157   1      5.6624999999999934      60.399999999999984      47.187499999999986
   158   1      5.6624999999999934      62.287499999999994       45.29999999999999
   159   1       3.774999999999991      60.399999999999984      49.074999999999989
   160   1      5.6624999999999934      60.399999999999984      50.962499999999999
   161   1      5.6624999999999934      62.287499999999994      49.074999999999989
   162   1      5.6624999999999934      60.399999999999984      54.737499999999997
   163   1      5.6624999999999934      62.287499999999994      52.849999999999987
   164   1      5.6624999999999934      64.174999999999997      47.187499999999986
   165   1      5.6624999999999934      64.174999999999997      50.962499999999999
   166   1      5.6624999999999934                 66.0625      49.074999999999989
   167   1      9.4374999999999929      24.537499999999994      49.074999999999989
   168   1      9.4374999999999929      26.424999999999994      47.187499999999986
   169   1      9.4374999999999929      28.312499999999993       45.29999999999999
   170   1      9.4374999999999929      26.424999999999994      50.962499999999999
   171   1      9.4374999999999929      28.312499999999993      49.074999999999989
   172   1      9.4374999999999929      28.312499999999993      52.849999999999987
   173   1      9.4374999999999929      30.199999999999992      43.412499999999987
   174   1      9.4374999999999929      32.087499999999999      41.524999999999991
   175   1      7.5499999999999901      32.087499999999999      47.187499999999986
   176   1      9.4374999999999929      30.199999999999992      47.187499999999986
   177   1      9.4374999999999929      32.087499999999999       45.29999999999999
   178   1      7.5499999999999901      30.199999999999992      49.074999999999989
   179   1      7.5499999999999901      32.087499999999999      50.962499999999999
   180   1      9.4374999999999929      30.199999999999992      50.962499999999999
   181   1      9.4374999999999929      32.087499999999999      49.074999999999989
   182   1      9.4374999999999929      30.199999999999992      54.737499999999997
   183   1      9.4374999999999929      32.087499999999999      52.849999999999987
   184   1      9.4374999999999929      32.087499999999999      56.624999999999986
   185   1      9.4374999999999929      33.974999999999994      39.637499999999996
   186   1      9.4374999999999929      35.862499999999997      37.749999999999993
   187   1      7.5499999999999901      35.862499999999997      43.412499999999987
   188   1      9.4374999999999929      33.974999999999994      43.412499999999987
   189   1      9.4374999999999929      35.862499999999997      41.524999999999991
   190   1      7.5499999999999901      33.974999999999994       45.29999999999999
   191   1      7.5499999999999901      35.862499999999997      47.187499999999986
   192   1      9.4374999999999929      33.974999999999994      47.187499999999986
   193   1      9.4374999999999929      35.862499999999997       45.29999999999999
   194   1      7.5499999999999901      33.974999999999994      49.074999999999989
   195   1      7.5499999999999901      35.862499999999997      50.962499999999999
   196   1      9.4374999999999929      33.974999999999994      50.962499999999999
   197   1      9.4374999999999929      35.862499999999997      49.074999999999989
   198   1      7.5499999999999901      33.974999999999994      52.849999999999987
   199   1      7.5499999999999901      35.862499999999997      54.737499999999997
   200   1      9.4374999999999929      33.974999999999994      54.737499999999997
   201   1      9.4374999999999929      35.862499999999997      52.849999999999987
   202   1      9.4374999999999929      33.974999999999994      58.512499999999996
   203   1      9.4374999999999929      35.862499999999997      56.624999999999986
   204   1      9.4374999999999929      35.862499999999997      60.399999999999984
   205   1      9.4374999999999929      37.749999999999993      35.862499999999997
   206   1      9.4374999999999929      39.637499999999996      33.974999999999994
   207   1      7.5499999999999901      39.637499999999996      39.637499999999996
   208   1      9.4374999999999929      37.749999999999993      39.637499999999996
   209   1      9.4374999999999929      39.637499999999996      37.749999999999993
   210   1      7.5499999999999901      37.749999999999993      41.524999999999991
   211   1      7.5499999999999901      39.637499999999996      43.412499999999987
   212   1      9.4374999999999929      37.749999999999993      43.412499999999987
   213   1      9.4374999999999929      39.637499999999996      41.524999999999991
   214   1      7.5499999999999901      37.749999999999993       45.29999999999999
   215   1      7.5499999999999901      39.637499999999996      47.187499999999986
   216   1      9.4374999999999929      37.749999999999993      47.187499999999986
   217   1      9.4374999999999929      39.637499999999996       45.29999999999999
   218   1      7.5499999999999901      37.749999999999993      49.074999999999989
   219   1      7.5499999999999901      39.637499999999996      50.962499999999999
   220   1      9.4374999999999929      37.749999999999993      50.962499999999999
   221   1      9.4374999999999929      39.637499999999996      49.074999999999989
   222   1      7.5499999999999901      37.749999999999993      52.849999999999987
   223   1      7.5499999999999901      39.637499999999996      54.737499999999997
   224   1      9.4374999999999929      37.749999999999993      54.737499999999997
   225   1      9.4374999999999929      39.637499999999996      52.849999999999987
   226   1      7.5499999999999901      37.749999999999993      56.624999999999986
   227   1      7.5499999999999901      39.637499999999996      58.512499999999996
   228   1      9.4374999999999929      37.749999999999993      58.512499999999996
   229   1      9.4374999999999929      39.637499999999996      56.624999999999986
   230   1      9.4374999999999929      37.749999999999993      62.287499999999994
   231   1      9.4374999999999929      39.637499999999996      60.399999999999984
   232   1      9.4374999999999929      39.637499999999996      64.174999999999997
   233   1      9.4374999999999929      41.524999999999991      32.087499999999999
   234   1      9.4374999999999929      43.412499999999987      30.199999999999992
   235   1      7.5499999999999901      43.412499999999987      35.862499999999997
   236   1      9.4374999999999929      41.524999999999991      35.862499999999997
   237   1      9.4374999999999929      43.412499999999987      33.974999999999994
   238   1      7.5499999999999901      41.524999999999991      37.749999999999993
   239   1      7.5499999999999901      43.412499999999987      39.637499999999996
   240   1      9.4374999999999929      41.524999999999991      39.637499999999996
   241   1      9.4374999999999929      43.412499999999987      37.749999999999993
   242   1      7.5499999999999901      41.524999999999991      41.524999999999991
   243   1      7.5499999999999901      43.412499999999987      43.412499999999987
   244   1      9.4374999999999929      41.524999999999991      43.412499999999987
   245   1      9.4374999999999929      43.412499999999987      41.524999999999991
   246   1      7.5499999999999901      41.524999999999991       45.29999999999999
   247   1      7.5499999999999901      43.412499999999987      47.187499999999986
   248   1      9.4374999999999929      41.524999999999991      47.187499999999986
   249   1      9.4374999999999929      43.412499999999987       45.29999999999999
   250   1      7.5499999999999901      41.524999999999991      49.074999999999989
   251   1      7.5499999999999901      43.412499999999987      50.962499999999999
   252   1      9.4374999999999929      41.524999999999991      50.962499999999999
   253   1      9.4374999999999929      43.412499999999987      49.074999999999989
   254   1      7.5499999999999901      41.524999999999991      52.849999999999987
   255   1      7.5499999999999901      43.412499999999987      54.737499999999997
   256   1      9.4374999999999929      41.524999999999991      54.737499999999997
   257   1      9.4374999999999929      43.412499999999987      52.849999999999987
   258   1      7.5499999999999901      41.524999999999991      56.624999999999986
   259   1      7.5499999999999901      43.412499999999987      58.512499999999996
   260   1      9.4374999999999929      41.524999999999991      58.512499999999996
   261   1      9.4374999999999929      43.412499999999987      56.624999999999986
   262   1      7.5499999999999901      41.524999999999991      60.399999999999984
   263   1      7.5499999999999901      43.412499999999987      62.287499999999994
   264   1      9.4374999999999929      41.524999999999991      62.287499999999994
   265   1      9.4374999999999929      43.412499999999987      60.399999999999984
   266   1      9.4374999999999929      41.524999999999991                 66.0625
   267   1      9.4374999999999929      43.412499999999987      64.174999999999997
   268   1      9.4374999999999929      43.412499999999987      67.949999999999989
   269   1      9.4374999999999929       45.29999999999999      28.312499999999993
   270   1      9.4374999999999929      47.187499999999986      26.424999999999994
   271   1      7.5499999999999901      47.187499999999986      32.087499999999999
   272   1      9.4374999999999929       45.29999999999999      32.087499999999999
   273   1      9.4374999999999929      47.187499999999986      30.199999999999992
   274   1      7.5499999999999901       45.29999999999999      33.974999999999994
   275   1      7.5499999999999901      47.187499999999986      35.862499999999997
   276   1      9.4374999999999929       45.29999999999999      35.862499999999997
   277   1      9.4374999999999929      47.187499999999986      33.974999999999994
   278   1      7.5499999999999901       45.29999999999999      37.749999999999993
   279   1      7.5499999999999901      47.187499999999986      39.637499999999996
   280   1      9.4374999999999929       45.29999999999999      39.637499999999996
   281   1      9.4374999999999929      47.187499999999986      37.749999999999993
   282   1      7.5499999999999901       45.29999999999999      41.524999999999991
   283   1      7.5499999999999901      47.187499999999986      43.412499999999987
   284   1      9.4374999999999929       45.29999999999999      43.412499999999987
   285   1      9.4374999999999929      47.187499999999986      41.524999999999991
   286   1      7.5499999999999901       45.29999999999999       45.29999999999999
   287   1      7.5499999999999901      47.187499999999986      47.187499999999986
   288   1      9.4374999999999929       45.29999999999999      47.187499999999986
   289   1      9.4374999999999929      47.187499999999986       45.29999999999999
   290   1      7.5499999999999901       45.29999999999999      49.074999999999989
   291   1      7.5499999999999901      47.187499999999986      50.962499999999999
   292   1      9.4374999999999929       45.29999999999999      50.962499999999999
   293   1      9.4374999999999929      47.187499999999986      49.074999999999989
   294   1      7.5499999999999901       45.29999999999999      52.849999999999987
   295   1      7.5499999999999901      47.187499999999986      54.737499999999997
   296   1      9.4374999999999929       45.29999999999999      54.737499999999997
   297   1      9.4374999999999929      47.187499999999986      52.849999999999987
   298   1      7.5499999999999901       45.29999999999999      56.624999999999986
   299   1      7.5499999999999901      47.187499999999986      58.512499999999996
   300   1      9.4374999999999929       45.29999999999999      58.512499999999996
   301   1      9.4374999999999929      47.187499999999986      56.624999999999986
   302   1      7.5499999999999901       45.29999999999999      60.399999999999984
   303   1      7.5499999999999901      47.187499999999986      62.287499999999994
   304   1      9.4374999999999929       45.29999999999999      62.287499999999994
   305   1      9.4374999999999929      47.187499999999986      60.399999999999984
   306   1      7.5499999999999901       45.29999999999999      64.174999999999997
   307   1      7.5499999999999901      47.187499999999986                 66.0625
   308   1      9.4374999999999929       45.29999999999999                 66.0625
   309   1      9.4374999999999929      47.187499999999986      64.174999999999997
   310   1      9.4374999999999929       45.29999999999999      69.837499999999977
   311   1      9.4374999999999929      47.187499999999986      67.949999999999989
   312   1      9.4374999999999929      47.187499999999986      71.724999999999994
   313   1      9.4374999999999929      49.074999999999989      24.537499999999994
   314   1      9.4374999999999929      49.074999999999989      28.312499999999993
   315   1      9.4374999999999929      50.962499999999999      26.424999999999994
   316   1      7.5499999999999901      49.074999999999989      30.199999999999992
   317   1      7.5499999999999901      50.962499999999999      32.087499999999999
   318   1      9.4374999999999929      49.074999999999989      32.087499999999999
   319   1      9.4374999999999929      50.962499999999999      30.199999999999992
   320   1      7.5499999999999901      49.074999999999989      33.974999999999994
   321   1      7.5499999999999901      50.962499999999999      35.862499999999997
   322   1      9.4374999999999929      49.074999999999989      35.862499999999997
   323   1      9.4374999999999929      50.962499999999999      33.974999999999994
   324   1      7.5499999999999901      49.074999999999989      37.749999999999993
   325   1      7.5499999999999901      50.962499999999999      39.637499999999996
   326   1      9.4374999999999929      49.074999999999989      39.637499999999996
   327   1      9.4374999999999929      50.962499999999999      37.749999999999993
   328   1      7.5499999999999901      49.074999999999989      41.524999999999991
   329   1      7.5499999999999901      50.962499999999999      43.412499999999987
   330   1      9.4374999999999929      49.074999999999989      43.412499999999987
   331   1      9.4374999999999929      50.962499999999999      41.524999999999991
   332   1      7.5499999999999901      49.074999999999989       45.29999999999999
   333   1      7.5499999999999901      50.962499999999999      47.187499999999986
   334   1      9.4374999999999929      49.074999999999989      47.187499999999986
   335   1      9.4374999999999929      50.962499999999999       45.29999999999999
   336   1      7.5499999999999901      49.074999999999989      49.074999999999989
   337   1      7.5499999999999901      50.962499999999999      50.962499999999999
   338   1      9.4374999999999929      49.074999999999989      50.962499999999999
   339   1      9.4374999999999929      50.962499999999999      49.074999999999989
   340   1      7.5499999999999901      49.074999999999989      52.849999999999987
   341   1      7.5499999999999901      50.962499999999999      54.737499999999997
   342   1      9.4374999999999929      49.074999999999989      54.737499999999997
   343   1      9.4374999999999929      50.962499999999999      52.849999999999987
   344   1      7.5499999999999901      49.074999999999989      56.624999999999986
   345   1      7.5499999999999901      50.962499999999999      58.512499999999996
   346   1      9.4374999999999929      49.074999999999989      58.512499999999996
   347   1      9.4374999999999929      50.962499999999999      56.624999999999986
   348   1      7.5499999999999901      49.074999999999989      60.399999999999984
   349   1      7.5499999999999901      50.962499999999999      62.287499999999994
   350   1      9.4374999999999929      49.074999999999989      62.287499999999994
   351   1      9.4374999999999929      50.962499999999999      60.399999999999984
   352   1      7.5499999999999901      49.074999999999989      64.174999999999997
   353   1      7.5499999999999901      50.962499999999999                 66.0625
   354   1      9.4374999999999929      49.074999999999989                 66.0625
   355   1      9.4374999999999929      50.962499999999999      64.174999999999997
   356   1      7.5499999999999901      49.074999999999989      67.949999999999989
   357   1      9.4374999999999929      49.074999999999989      69.837499999999977
   358   1      9.4374999999999929      50.962499999999999      67.949999999999989