model_files/CuNi/CuNi_30000/CuNi_221/CuNi_221_fcc_29329_temp.data (written by ASE) 

29329 	 atoms 
2  atom types
0.0                     114  xlo xhi
0.0                     114  ylo yhi
0.0                     114  zlo zhi


Atoms 

     1   1      1.7829999999999941      55.273000000000003      57.055999999999997
     2   1      1.7829999999999941      57.055999999999997      55.273000000000003
     3   1                       0      57.055999999999997      57.055999999999997
     4   1      1.7829999999999941      57.055999999999997      58.839000000000006
     5   1      1.7829999999999941      58.839000000000006      57.055999999999997
     6   1      5.3489999999999958      51.706999999999994      53.490000000000002
     7   1      5.3489999999999958      51.706999999999994      57.055999999999997
     8   1      5.3489999999999958      51.706999999999994      60.621999999999993
     9   1      5.3489999999999958      53.490000000000002      51.706999999999994
    10   1      3.5659999999999954      53.490000000000002      53.490000000000002
    11   1      3.5659999999999954      55.273000000000003      55.273000000000003
    12   1      5.3489999999999958      53.490000000000002      55.273000000000003
    13   1      5.3489999999999958      55.273000000000003      53.490000000000002
    14   1      3.5659999999999954      53.490000000000002      57.055999999999997
    15   1      3.5659999999999954      55.273000000000003      58.839000000000006
    16   1      5.3489999999999958      53.490000000000002      58.839000000000006
    17   1      5.3489999999999958      55.273000000000003      57.055999999999997
    18   1      3.5659999999999954      53.490000000000002      60.621999999999993
    19   1      5.3489999999999958      53.490000000000002      62.405000000000001
    20   1      5.3489999999999958      55.273000000000003      60.621999999999993
    21   1      5.3489999999999958      57.055999999999997      51.706999999999994
    22   1      3.5659999999999954      57.055999999999997      53.490000000000002
    23   1      3.5659999999999954      58.839000000000006      55.273000000000003
    24   1      5.3489999999999958      57.055999999999997      55.273000000000003
    25   1      5.3489999999999958      58.839000000000006      53.490000000000002
    26   1      3.5659999999999954      57.055999999999997      57.055999999999997
    27   1      3.5659999999999954      58.839000000000006      58.839000000000006
    28   1      5.3489999999999958      57.055999999999997      58.839000000000006
    29   1      5.3489999999999958      58.839000000000006      57.055999999999997
    30   1      3.5659999999999954      57.055999999999997      60.621999999999993
    31   1      5.3489999999999958      57.055999999999997      62.405000000000001
    32   1      5.3489999999999958      58.839000000000006      60.621999999999993
    33   1      5.3489999999999958      60.621999999999993      51.706999999999994
    34   1      3.5659999999999954      60.621999999999993      53.490000000000002
    35   1      5.3489999999999958      60.621999999999993      55.273000000000003
    36   1      5.3489999999999958      62.405000000000001      53.490000000000002
    37   1      3.5659999999999954      60.621999999999993      57.055999999999997
    38   1      5.3489999999999958      60.621999999999993      58.839000000000006
    39   1      5.3489999999999958      62.405000000000001      57.055999999999997
    40   1      3.5659999999999954      60.621999999999993      60.621999999999993
    41   1      5.3489999999999958      60.621999999999993      62.405000000000001
    42   1      5.3489999999999958      62.405000000000001      60.621999999999993
    43   1      8.9149999999999991      48.141000000000005      53.490000000000002
    44   1      8.9149999999999991      48.141000000000005      57.055999999999997
    45   1      8.9149999999999991      48.141000000000005      60.621999999999993
    46   1       7.131999999999997      51.706999999999994      51.706999999999994
    47   1      8.9149999999999991      49.923999999999999      51.706999999999994
    48   1      8.9149999999999991      51.706999999999994      49.923999999999999
    49   1       7.131999999999997      49.923999999999999      53.490000000000002
    50   1       7.131999999999997      51.706999999999994      55.273000000000003
    51   1      8.9149999999999991      49.923999999999999      55.273000000000003
    52   1      8.9149999999999991      51.706999999999994      53.490000000000002
    53   1       7.131999999999997      49.923999999999999      57.055999999999997
    54   1       7.131999999999997      51.706999999999994      58.839000000000006
    55   1      8.9149999999999991      49.923999999999999      58.839000000000006
    56   1      8.9149999999999991      51.706999999999994      57.055999999999997
    57   1       7.131999999999997      49.923999999999999      60.621999999999993
    58   1       7.131999999999997      51.706999999999994      62.405000000000001
    59   1      8.9149999999999991      49.923999999999999      62.405000000000001
    60   1      8.9149999999999991      51.706999999999994      60.621999999999993
    61   1      8.9149999999999991      51.706999999999994      64.188000000000002
    62   1      8.9149999999999991      53.490000000000002      48.141000000000005
    63   1       7.131999999999997      53.490000000000002      49.923999999999999
    64   1       7.131999999999997      55.273000000000003      51.706999999999994
    65   1      8.9149999999999991      53.490000000000002      51.706999999999994
    66   1      8.9149999999999991      55.273000000000003      49.923999999999999
    67   1       7.131999999999997      53.490000000000002      53.490000000000002
    68   1       7.131999999999997      55.273000000000003      55.273000000000003
    69   1      8.9149999999999991      53.490000000000002      55.273000000000003
    70   1      8.9149999999999991      55.273000000000003      53.490000000000002
    71   1       7.131999999999997      53.490000000000002      57.055999999999997
    72   1       7.131999999999997      55.273000000000003      58.839000000000006
    73   1      8.9149999999999991      53.490000000000002      58.839000000000006
    74   1      8.9149999999999991      55.273000000000003      57.055999999999997
    75   1       7.131999999999997      53.490000000000002      60.621999999999993
    76   1       7.131999999999997      55.273000000000003      62.405000000000001
    77   1      8.9149999999999991      53.490000000000002      62.405000000000001
    78   1      8.9149999999999991      55.273000000000003      60.621999999999993
    79   1       7.131999999999997      53.490000000000002      64.188000000000002
    80   1      8.9149999999999991      53.490000000000002      65.970999999999989
    81   1      8.9149999999999991      55.273000000000003      64.188000000000002
    82   1      8.9149999999999991      57.055999999999997      48.141000000000005
    83   1       7.131999999999997      57.055999999999997      49.923999999999999
    84   1       7.131999999999997      58.839000000000006      51.706999999999994
    85   1      8.9149999999999991      57.055999999999997      51.706999999999994
    86   1      8.9149999999999991      58.839000000000006      49.923999999999999
    87   1       7.131999999999997      57.055999999999997      53.490000000000002
    88   1       7.131999999999997      58.839000000000006      55.273000000000003
    89   1      8.9149999999999991      57.055999999999997      55.273000000000003
    90   1      8.9149999999999991      58.839000000000006      53.490000000000002
    91   1       7.131999999999997      57.055999999999997      57.055999999999997
    92   1       7.131999999999997      58.839000000000006      58.839000000000006
    93   1      8.9149999999999991      57.055999999999997      58.839000000000006
    94   1      8.9149999999999991      58.839000000000006      57.055999999999997
    95   1       7.131999999999997      57.055999999999997      60.621999999999993
    96   1       7.131999999999997      58.839000000000006      62.405000000000001
    97   1      8.9149999999999991      57.055999999999997      62.405000000000001
    98   1      8.9149999999999991      58.839000000000006      60.621999999999993
    99   1       7.131999999999997      57.055999999999997      64.188000000000002
   100   1      8.9149999999999991      57.055999999999997      65.970999999999989
   101   1      8.9149999999999991      58.839000000000006      64.188000000000002
   102   1      8.9149999999999991      60.621999999999993      48.141000000000005
   103   1       7.131999999999997      60.621999999999993      49.923999999999999
   104   1       7.131999999999997      62.405000000000001      51.706999999999994
   105   1      8.9149999999999991      60.621999999999993      51.706999999999994
   106   1      8.9149999999999991      62.405000000000001      49.923999999999999
   107   1       7.131999999999997      60.621999999999993      53.490000000000002
   108   1       7.131999999999997      62.405000000000001      55.273000000000003
   109   1      8.9149999999999991      60.621999999999993      55.273000000000003
   110   1      8.9149999999999991      62.405000000000001      53.490000000000002
   111   1       7.131999999999997      60.621999999999993      57.055999999999997
   112   1       7.131999999999997      62.405000000000001      58.839000000000006
   113   1      8.9149999999999991      60.621999999999993      58.839000000000006
   114   1      8.9149999999999991      62.405000000000001      57.055999999999997
   115   1       7.131999999999997      60.621999999999993      60.621999999999993
   116   1       7.131999999999997      62.405000000000001      62.405000000000001
   117   1      8.9149999999999991      60.621999999999993      62.405000000000001
   118   1      8.9149999999999991      62.405000000000001      60.621999999999993
   119   1       7.131999999999997      60.621999999999993      64.188000000000002
   120   1      8.9149999999999991      60.621999999999993      65.970999999999989
   121   1      8.9149999999999991      62.405000000000001      64.188000000000002
   122   1      8.9149999999999991      64.188000000000002      51.706999999999994
   123   1       7.131999999999997      64.188000000000002      53.490000000000002
   124   1      8.9149999999999991      64.188000000000002      55.273000000000003
   125   1      8.9149999999999991      65.970999999999989      53.490000000000002
   126   1       7.131999999999997      64.188000000000002      57.055999999999997
   127   1      8.9149999999999991      64.188000000000002      58.839000000000006
   128   1      8.9149999999999991      65.970999999999989      57.055999999999997
   129   1       7.131999999999997      64.188000000000002      60.621999999999993
   130   1      8.9149999999999991      64.188000000000002      62.405000000000001
   131   1      8.9149999999999991      65.970999999999989      60.621999999999993
   132   1      12.481000000000002      44.575000000000003      53.490000000000002
   133   1      12.481000000000002      44.575000000000003      57.055999999999997
   134   1      12.481000000000002      44.575000000000003      60.621999999999993
   135   1                  10.698      48.141000000000005      51.706999999999994
   136   1      12.481000000000002      46.357999999999997      51.706999999999994
   137   1      12.481000000000002      48.141000000000005      49.923999999999999
   138   1                  10.698      46.357999999999997      53.490000000000002
   139   1                  10.698      48.141000000000005      55.273000000000003
   140   1      12.481000000000002      46.357999999999997      55.273000000000003
   141   1      12.481000000000002      48.141000000000005      53.490000000000002
   142   1                  10.698      46.357999999999997      57.055999999999997
   143   1                  10.698      48.141000000000005      58.839000000000006
   144   1      12.481000000000002      46.357999999999997      58.839000000000006
   145   1      12.481000000000002      48.141000000000005      57.055999999999997
   146   1                  10.698      46.357999999999997      60.621999999999993
   147   1                  10.698      48.141000000000005      62.405000000000001
   148   1      12.481000000000002      46.357999999999997      62.405000000000001
   149   1      12.481000000000002      48.141000000000005      60.621999999999993
   150   1      12.481000000000002      48.141000000000005      64.188000000000002
   151   1                  10.698      51.706999999999994      48.141000000000005
   152   1      12.481000000000002      49.923999999999999      48.141000000000005
   153   1      12.481000000000002      51.706999999999994      46.357999999999997
   154   1                  10.698      49.923999999999999      49.923999999999999
   155   1                  10.698      51.706999999999994      51.706999999999994
   156   1      12.481000000000002      49.923999999999999      51.706999999999994
   157   1      12.481000000000002      51.706999999999994      49.923999999999999
   158   1                  10.698      49.923999999999999      53.490000000000002
   159   1                  10.698      51.706999999999994      55.273000000000003
   160   1      12.481000000000002      49.923999999999999      55.273000000000003
   161   1      12.481000000000002      51.706999999999994      53.490000000000002
   162   1                  10.698      49.923999999999999      57.055999999999997
   163   1                  10.698      51.706999999999994      58.839000000000006
   164   1      12.481000000000002      49.923999999999999      58.839000000000006
   165   1      12.481000000000002      51.706999999999994      57.055999999999997
   166   1                  10.698      49.923999999999999      60.621999999999993
   167   1                  10.698      51.706999999999994      62.405000000000001
   168   1      12.481000000000002      49.923999999999999      62.405000000000001
   169   1      12.481000000000002      51.706999999999994      60.621999999999993
   170   1                  10.698      49.923999999999999      64.188000000000002
   171   1                  10.698      51.706999999999994      65.970999999999989
   172   1      12.481000000000002      49.923999999999999      65.970999999999989
   173   1      12.481000000000002      51.706999999999994      64.188000000000002
   174   1      12.481000000000002      51.706999999999994      67.754000000000005
   175   1      12.481000000000002      53.490000000000002      44.575000000000003
   176   1                  10.698      53.490000000000002      46.357999999999997
   177   1                  10.698      55.273000000000003      48.141000000000005
   178   1      12.481000000000002      53.490000000000002      48.141000000000005
   179   1      12.481000000000002      55.273000000000003      46.357999999999997
   180   1                  10.698      53.490000000000002      49.923999999999999
   181   1                  10.698      55.273000000000003      51.706999999999994
   182   1      12.481000000000002      53.490000000000002      51.706999999999994
   183   1      12.481000000000002      55.273000000000003      49.923999999999999
   184   1                  10.698      53.490000000000002      53.490000000000002
   185   1                  10.698      55.273000000000003      55.273000000000003
   186   1      12.481000000000002      53.490000000000002      55.273000000000003
   187   1      12.481000000000002      55.273000000000003      53.490000000000002
   188   1                  10.698      53.490000000000002      57.055999999999997
   189   1                  10.698      55.273000000000003      58.839000000000006
   190   1      12.481000000000002      53.490000000000002      58.839000000000006
   191   1      12.481000000000002      55.273000000000003      57.055999999999997
   192   1                  10.698      53.490000000000002      60.621999999999993
   193   1                  10.698      55.273000000000003      62.405000000000001
   194   1      12.481000000000002      53.490000000000002      62.405000000000001
   195   1      12.481000000000002      55.273000000000003      60.621999999999993
   196   1                  10.698      53.490000000000002      64.188000000000002
   197   1                  10.698      55.273000000000003      65.970999999999989
   198   1      12.481000000000002      53.490000000000002      65.970999999999989
   199   1      12.481000000000002      55.273000000000003      64.188000000000002
   200   1                  10.698      53.490000000000002      67.754000000000005
   201   1      12.481000000000002      53.490000000000002      69.537000000000006
   202   1      12.481000000000002      55.273000000000003      67.754000000000005
   203   1      12.481000000000002      57.055999999999997      44.575000000000003
   204   1                  10.698      57.055999999999997      46.357999999999997
   205   1                  10.698      58.839000000000006      48.141000000000005
   206   1      12.481000000000002      57.055999999999997      48.141000000000005
   207   1      12.481000000000002      58.839000000000006      46.357999999999997
   208   1                  10.698      57.055999999999997      49.923999999999999
   209   1                  10.698      58.839000000000006      51.706999999999994
   210   1      12.481000000000002      57.055999999999997      51.706999999999994
   211   1      12.481000000000002      58.839000000000006      49.923999999999999
   212   1                  10.698      57.055999999999997      53.490000000000002
   213   1                  10.698      58.839000000000006      55.273000000000003
   214   1      12.481000000000002      57.055999999999997      55.273000000000003
   215   1      12.481000000000002      58.839000000000006      53.490000000000002
   216   1                  10.698      57.055999999999997      57.055999999999997
   217   1                  10.698      58.839000000000006      58.839000000000006
   218   1      12.481000000000002      57.055999999999997      58.839000000000006
   219   1      12.481000000000002      58.839000000000006      57.055999999999997
   220   1                  10.698      57.055999999999997      60.621999999999993
   221   1                  10.698      58.839000000000006      62.405000000000001
   222   1      12.481000000000002      57.055999999999997      62.405000000000001
   223   1      12.481000000000002      58.839000000000006      60.621999999999993
   224   1                  10.698      57.055999999999997      64.188000000000002
   225   1                  10.698      58.839000000000006      65.970999999999989
   226   1      12.481000000000002      57.055999999999997      65.970999999999989
   227   1      12.481000000000002      58.839000000000006      64.188000000000002
   228   1                  10.698      57.055999999999997      67.754000000000005
   229   1      12.481000000000002      57.055999999999997      69.537000000000006
   230   1      12.481000000000002      58.839000000000006      67.754000000000005
   231   1      12.481000000000002      60.621999999999993      44.575000000000003
   232   1                  10.698      60.621999999999993      46.357999999999997
   233   1                  10.698      62.405000000000001      48.141000000000005
   234   1      12.481000000000002      60.621999999999993      48.141000000000005
   235   1      12.481000000000002      62.405000000000001      46.357999999999997
   236   1                  10.698      60.621999999999993      49.923999999999999
   237   1                  10.698      62.405000000000001      51.706999999999994
   238   1      12.481000000000002      60.621999999999993      51.706999999999994
   239   1      12.481000000000002      62.405000000000001      49.923999999999999
   240   1                  10.698      60.621999999999993      53.490000000000002
   241   1                  10.698      62.405000000000001      55.273000000000003
   242   1      12.481000000000002      60.621999999999993      55.273000000000003
   243   1      12.481000000000002      62.405000000000001      53.490000000000002
   244   1                  10.698      60.621999999999993      57.055999999999997
   245   1                  10.698      62.405000000000001      58.839000000000006
   246   1      12.481000000000002      60.621999999999993      58.839000000000006
   247   1      12.481000000000002      62.405000000000001      57.055999999999997
   248   1                  10.698      60.621999999999993      60.621999999999993
   249   1                  10.698      62.405000000000001      62.405000000000001
   250   1      12.481000000000002      60.621999999999993      62.405000000000001
   251   1      12.481000000000002      62.405000000000001      60.621999999999993
   252   1                  10.698      60.621999999999993      64.188000000000002
   253   1                  10.698      62.405000000000001      65.970999999999989
   254   1      12.481000000000002      60.621999999999993      65.970999999999989
   255   1      12.481000000000002      62.405000000000001      64.188000000000002
   256   1                  10.698      60.621999999999993      67.754000000000005
   257   1      12.481000000000002      60.621999999999993      69.537000000000006
   258   1      12.481000000000002      62.405000000000001      67.754000000000005
   259   1      12.481000000000002      64.188000000000002      48.141000000000005
   260   1                  10.698      64.188000000000002      49.923999999999999
   261   1                  10.698      65.970999999999989      51.706999999999994
   262   1      12.481000000000002      64.188000000000002      51.706999999999994
   263   1      12.481000000000002      65.970999999999989      49.923999999999999
   264   1                  10.698      64.188000000000002      53.490000000000002
   265   1                  10.698      65.970999999999989      55.273000000000003
   266   1      12.481000000000002      64.188000000000002      55.273000000000003
   267   1      12.481000000000002      65.970999999999989      53.490000000000002
   268   1                  10.698      64.188000000000002      57.055999999999997
   269   1                  10.698      65.970999999999989      58.839000000000006
   270   1      12.481000000000002      64.188000000000002      58.839000000000006
   271   1      12.481000000000002      65.970999999999989      57.055999999999997
   272   1                  10.698      64.188000000000002      60.621999999999993
   273   1                  10.698      65.970999999999989      62.405000000000001
   274   1      12.481000000000002      64.188000000000002      62.405000000000001
   275   1      12.481000000000002      65.970999999999989      60.621999999999993
   276   1                  10.698      64.188000000000002      64.188000000000002
   277   1      12.481000000000002      64.188000000000002      65.970999999999989
   278   1      12.481000000000002      65.970999999999989      64.188000000000002
   279   1      12.481000000000002      67.754000000000005      51.706999999999994
   280   1                  10.698      67.754000000000005      53.490000000000002
   281   1      12.481000000000002      67.754000000000005      55.273000000000003
   282   1      12.481000000000002      69.537000000000006      53.490000000000002
   283   1                  10.698      67.754000000000005      57.055999999999997
   284   1      12.481000000000002      67.754000000000005      58.839000000000006
   285   1      12.481000000000002      69.537000000000006      57.055999999999997
   286   1                  10.698      67.754000000000005      60.621999999999993
   287   1      12.481000000000002      67.754000000000005      62.405000000000001
   288   1      12.481000000000002      69.537000000000006      60.621999999999993
   289   1      16.047000000000004      41.008999999999993      53.490000000000002
   290   1      16.047000000000004      41.008999999999993      57.055999999999997
   291   1      16.047000000000004      41.008999999999993      60.621999999999993
   292   1      16.047000000000004      44.575000000000003      46.357999999999997
   293   1      14.264000000000003      44.575000000000003      51.706999999999994
   294   1      16.047000000000004      42.792000000000002      51.706999999999994
   295   1      16.047000000000004      44.575000000000003      49.923999999999999
   296   1      14.264000000000003      42.792000000000002      53.490000000000002
   297   1      14.264000000000003      44.575000000000003      55.273000000000003
   298   1      16.047000000000004      42.792000000000002      55.273000000000003
   299   1      16.047000000000004      44.575000000000003      53.490000000000002
   300   1      14.264000000000003      42.792000000000002      57.055999999999997
   301   1      14.264000000000003      44.575000000000003      58.839000000000006
   302   1      16.047000000000004      42.792000000000002      58.839000000000006
   303   1      16.047000000000004      44.575000000000003      57.055999999999997
   304   1      14.264000000000003      42.792000000000002      60.621999999999993
   305   1      14.264000000000003      44.575000000000003      62.405000000000001
   306   1      16.047000000000004      42.792000000000002      62.405000000000001
   307   1      16.047000000000004      44.575000000000003      60.621999999999993
   308   1      16.047000000000004      44.575000000000003      64.188000000000002
   309   1      16.047000000000004      44.575000000000003      67.754000000000005
   310   1      16.047000000000004      46.357999999999997      44.575000000000003
   311   1      14.264000000000003      46.357999999999997      46.357999999999997
   312   1      14.264000000000003      48.141000000000005      48.141000000000005
   313   1      16.047000000000004      46.357999999999997      48.141000000000005
   314   1      16.047000000000004      48.141000000000005      46.357999999999997
   315   1      14.264000000000003      46.357999999999997      49.923999999999999
   316   1      14.264000000000003      48.141000000000005      51.706999999999994
   317   1      16.047000000000004      46.357999999999997      51.706999999999994
   318   1      16.047000000000004      48.141000000000005      49.923999999999999
   319   1      14.264000000000003      46.357999999999997      53.490000000000002
   320   1      14.264000000000003      48.141000000000005      55.273000000000003
   321   1      16.047000000000004      46.357999999999997      55.273000000000003
   322   1      16.047000000000004      48.141000000000005      53.490000000000002
   323   1      14.264000000000003      46.357999999999997      57.055999999999997
   324   1      14.264000000000003      48.141000000000005      58.839000000000006
   325   1      16.047000000000004      46.357999999999997      58.839000000000006
   326   1      16.047000000000004      48.141000000000005      57.055999999999997
   327   1      14.264000000000003      46.357999999999997      60.621999999999993
   328   1      14.264000000000003      48.141000000000005      62.405000000000001
   329   1      16.047000000000004      46.357999999999997      62.405000000000001
   330   1      16.047000000000004      48.141000000000005      60.621999999999993
   331   1      14.264000000000003      46.357999999999997      64.188000000000002
   332   1      14.264000000000003      48.141000000000005      65.970999999999989
   333   1      16.047000000000004      46.357999999999997      65.970999999999989
   334   1      16.047000000000004      48.141000000000005      64.188000000000002
   335   1      14.264000000000003      46.357999999999997      67.754000000000005
   336   1      16.047000000000004      46.357999999999997      69.537000000000006
   337   1      16.047000000000004      48.141000000000005      67.754000000000005
   338   1      14.264000000000003      51.706999999999994      44.575000000000003
   339   1      16.047000000000004      49.923999999999999      44.575000000000003
   340   1      16.047000000000004      51.706999999999994      42.792000000000002
   341   1      14.264000000000003      49.923999999999999      46.357999999999997
   342   1      14.264000000000003      51.706999999999994      48.141000000000005
   343   1      16.047000000000004      49.923999999999999      48.141000000000005
   344   1      16.047000000000004      51.706999999999994      46.357999999999997
   345   1      14.264000000000003      49.923999999999999      49.923999999999999
   346   1      14.264000000000003      51.706999999999994      51.706999999999994
   347   1      16.047000000000004      49.923999999999999      51.706999999999994
   348   1      16.047000000000004      51.706999999999994      49.923999999999999
   349   1      14.264000000000003      49.923999999999999      53.490000000000002
   350   1      14.264000000000003      51.706999999999994      55.273000000000003
   351   1      16.047000000000004      49.923999999999999      55.273000000000003
   352   1      16.047000000000004      51.706999999999994      53.490000000000002
   353   1      14.264000000000003      49.923999999999999      57.055999999999997
   354   1      14.264000000000003      51.706999999999994      58.839000000000006
   355   1      16.047000000000004      49.923999999999999      58.839000000000006
   356   1      16.047000000000004      51.706999999999994      57.055999999999997
   357   1      14.264000000000003      49.923999999999999      60.621999999999993
   358   1      14.264000000000003      51.706999999999994      62.405000000000001