model_files/PtCu/PtCu_30000/PtCu_520/PtCu_520_fcc_30029_temp.data (written by ASE) 

30029 	 atoms 
2  atom types
0.0                      92  xlo xhi
0.0                      92  ylo yhi
0.0                      92  zlo zhi


Atoms 

     1   1      1.9249999999999898       40.42499999999999      42.349999999999994
     2   1      1.9249999999999898       40.42499999999999      46.199999999999996
     3   1      1.9249999999999898       40.42499999999999      50.049999999999983
     4   1      1.9249999999999898      42.349999999999994       40.42499999999999
     5   1      91.999999999999986      44.274999999999991      44.274999999999991
     6   1      1.9249999999999898      42.349999999999994      44.274999999999991
     7   1      1.9249999999999898      44.274999999999991      42.349999999999994
     8   1      91.999999999999986      44.274999999999991      48.124999999999993
     9   1      1.9249999999999898      42.349999999999994      48.124999999999993
    10   1      1.9249999999999898      44.274999999999991      46.199999999999996
    11   1      1.9249999999999898      42.349999999999994      51.974999999999987
    12   1      1.9249999999999898      44.274999999999991      50.049999999999983
    13   1      1.9249999999999898      46.199999999999996       40.42499999999999
    14   1      91.999999999999986      48.124999999999993      44.274999999999991
    15   1      1.9249999999999898      46.199999999999996      44.274999999999991
    16   1      1.9249999999999898      48.124999999999993      42.349999999999994
    17   1      91.999999999999986      46.199999999999996      46.199999999999996
    18   1      91.999999999999986      48.124999999999993      48.124999999999993
    19   1      1.9249999999999898      46.199999999999996      48.124999999999993
    20   1      1.9249999999999898      48.124999999999993      46.199999999999996
    21   1      1.9249999999999898      46.199999999999996      51.974999999999987
    22   1      1.9249999999999898      48.124999999999993      50.049999999999983
    23   1      1.9249999999999898      50.049999999999983       40.42499999999999
    24   1      1.9249999999999898      50.049999999999983      44.274999999999991
    25   1      1.9249999999999898      51.974999999999987      42.349999999999994
    26   1      1.9249999999999898      50.049999999999983      48.124999999999993
    27   1      1.9249999999999898      51.974999999999987      46.199999999999996
    28   1      1.9249999999999898      50.049999999999983      51.974999999999987
    29   1      1.9249999999999898      51.974999999999987      50.049999999999983
    30   1      5.7749999999999906       30.79999999999999      32.724999999999987
    31   1      5.7749999999999906      32.724999999999987       30.79999999999999
    32   1      5.7749999999999906       30.79999999999999      36.574999999999989
    33   1      5.7749999999999906      32.724999999999987      34.649999999999991
    34   1      5.7749999999999906       30.79999999999999       40.42499999999999
    35   1      5.7749999999999906      32.724999999999987      38.499999999999993
    36   1      5.7749999999999906       30.79999999999999      44.274999999999991
    37   1      5.7749999999999906      32.724999999999987      42.349999999999994
    38   1      5.7749999999999906       30.79999999999999      48.124999999999993
    39   1      5.7749999999999906      32.724999999999987      46.199999999999996
    40   1      5.7749999999999906       30.79999999999999      51.974999999999987
    41   1      5.7749999999999906      32.724999999999987      50.049999999999983
    42   1      5.7749999999999906       30.79999999999999      55.824999999999982
    43   1      5.7749999999999906      32.724999999999987      53.899999999999991
    44   1      5.7749999999999906       30.79999999999999       59.67499999999999
    45   1      5.7749999999999906      32.724999999999987      57.749999999999993
    46   1      5.7749999999999906      32.724999999999987      61.599999999999994
    47   1      5.7749999999999906      34.649999999999991      32.724999999999987
    48   1      5.7749999999999906      36.574999999999989       30.79999999999999
    49   1      3.8499999999999943      34.649999999999991      34.649999999999991
    50   1      3.8499999999999943      36.574999999999989      36.574999999999989
    51   1      5.7749999999999906      34.649999999999991      36.574999999999989
    52   1      5.7749999999999906      36.574999999999989      34.649999999999991
    53   1      3.8499999999999943      34.649999999999991      38.499999999999993
    54   1      3.8499999999999943      36.574999999999989       40.42499999999999
    55   1      5.7749999999999906      34.649999999999991       40.42499999999999
    56   1      5.7749999999999906      36.574999999999989      38.499999999999993
    57   1      3.8499999999999943      34.649999999999991      42.349999999999994
    58   1      3.8499999999999943      36.574999999999989      44.274999999999991
    59   1      5.7749999999999906      34.649999999999991      44.274999999999991
    60   1      5.7749999999999906      36.574999999999989      42.349999999999994
    61   1      3.8499999999999943      34.649999999999991      46.199999999999996
    62   1      3.8499999999999943      36.574999999999989      48.124999999999993
    63   1      5.7749999999999906      34.649999999999991      48.124999999999993
    64   1      5.7749999999999906      36.574999999999989      46.199999999999996
    65   1      3.8499999999999943      34.649999999999991      50.049999999999983
    66   1      3.8499999999999943      36.574999999999989      51.974999999999987
    67   1      5.7749999999999906      34.649999999999991      51.974999999999987
    68   1      5.7749999999999906      36.574999999999989      50.049999999999983
    69   1      3.8499999999999943      34.649999999999991      53.899999999999991
    70   1      3.8499999999999943      36.574999999999989      55.824999999999982
    71   1      5.7749999999999906      34.649999999999991      55.824999999999982
    72   1      5.7749999999999906      36.574999999999989      53.899999999999991
    73   1      3.8499999999999943      34.649999999999991      57.749999999999993
    74   1      5.7749999999999906      34.649999999999991       59.67499999999999
    75   1      5.7749999999999906      36.574999999999989      57.749999999999993
    76   1      5.7749999999999906      36.574999999999989      61.599999999999994
    77   1      5.7749999999999906      38.499999999999993      32.724999999999987
    78   1      5.7749999999999906       40.42499999999999       30.79999999999999
    79   1      3.8499999999999943      38.499999999999993      34.649999999999991
    80   1      3.8499999999999943       40.42499999999999      36.574999999999989
    81   1      5.7749999999999906      38.499999999999993      36.574999999999989
    82   1      5.7749999999999906       40.42499999999999      34.649999999999991
    83   1      3.8499999999999943      38.499999999999993      38.499999999999993
    84   1      3.8499999999999943       40.42499999999999       40.42499999999999
    85   1      5.7749999999999906      38.499999999999993       40.42499999999999
    86   1      5.7749999999999906       40.42499999999999      38.499999999999993
    87   1      3.8499999999999943      38.499999999999993      42.349999999999994
    88   1      3.8499999999999943       40.42499999999999      44.274999999999991
    89   1      5.7749999999999906      38.499999999999993      44.274999999999991
    90   1      5.7749999999999906       40.42499999999999      42.349999999999994
    91   1      3.8499999999999943      38.499999999999993      46.199999999999996
    92   1      3.8499999999999943       40.42499999999999      48.124999999999993
    93   1      5.7749999999999906      38.499999999999993      48.124999999999993
    94   1      5.7749999999999906       40.42499999999999      46.199999999999996
    95   1      3.8499999999999943      38.499999999999993      50.049999999999983
    96   1      3.8499999999999943       40.42499999999999      51.974999999999987
    97   1      5.7749999999999906      38.499999999999993      51.974999999999987
    98   1      5.7749999999999906       40.42499999999999      50.049999999999983
    99   1      3.8499999999999943      38.499999999999993      53.899999999999991
   100   1      3.8499999999999943       40.42499999999999      55.824999999999982
   101   1      5.7749999999999906      38.499999999999993      55.824999999999982
   102   1      5.7749999999999906       40.42499999999999      53.899999999999991
   103   1      3.8499999999999943      38.499999999999993      57.749999999999993
   104   1      5.7749999999999906      38.499999999999993       59.67499999999999
   105   1      5.7749999999999906       40.42499999999999      57.749999999999993
   106   1      5.7749999999999906       40.42499999999999      61.599999999999994
   107   1      5.7749999999999906      42.349999999999994      32.724999999999987
   108   1      5.7749999999999906      44.274999999999991       30.79999999999999
   109   1      3.8499999999999943      42.349999999999994      34.649999999999991
   110   1      3.8499999999999943      44.274999999999991      36.574999999999989
   111   1      5.7749999999999906      42.349999999999994      36.574999999999989
   112   1      5.7749999999999906      44.274999999999991      34.649999999999991
   113   1      3.8499999999999943      42.349999999999994      38.499999999999993
   114   1      3.8499999999999943      44.274999999999991       40.42499999999999
   115   1      5.7749999999999906      42.349999999999994       40.42499999999999
   116   1      5.7749999999999906      44.274999999999991      38.499999999999993
   117   1      3.8499999999999943      42.349999999999994      42.349999999999994
   118   1      3.8499999999999943      44.274999999999991      44.274999999999991
   119   1      5.7749999999999906      42.349999999999994      44.274999999999991
   120   1      5.7749999999999906      44.274999999999991      42.349999999999994
   121   1      3.8499999999999943      42.349999999999994      46.199999999999996
   122   1      3.8499999999999943      44.274999999999991      48.124999999999993
   123   1      5.7749999999999906      42.349999999999994      48.124999999999993
   124   1      5.7749999999999906      44.274999999999991      46.199999999999996
   125   1      3.8499999999999943      42.349999999999994      50.049999999999983
   126   1      3.8499999999999943      44.274999999999991      51.974999999999987
   127   1      5.7749999999999906      42.349999999999994      51.974999999999987
   128   1      5.7749999999999906      44.274999999999991      50.049999999999983
   129   1      3.8499999999999943      42.349999999999994      53.899999999999991
   130   1      3.8499999999999943      44.274999999999991      55.824999999999982
   131   1      5.7749999999999906      42.349999999999994      55.824999999999982
   132   1      5.7749999999999906      44.274999999999991      53.899999999999991
   133   1      3.8499999999999943      42.349999999999994      57.749999999999993
   134   1      5.7749999999999906      42.349999999999994       59.67499999999999
   135   1      5.7749999999999906      44.274999999999991      57.749999999999993
   136   1      5.7749999999999906      44.274999999999991      61.599999999999994
   137   1      5.7749999999999906      46.199999999999996      32.724999999999987
   138   1      5.7749999999999906      48.124999999999993       30.79999999999999
   139   1      3.8499999999999943      46.199999999999996      34.649999999999991
   140   1      3.8499999999999943      48.124999999999993      36.574999999999989
   141   1      5.7749999999999906      46.199999999999996      36.574999999999989
   142   1      5.7749999999999906      48.124999999999993      34.649999999999991
   143   1      3.8499999999999943      46.199999999999996      38.499999999999993
   144   1      3.8499999999999943      48.124999999999993       40.42499999999999
   145   1      5.7749999999999906      46.199999999999996       40.42499999999999
   146   1      5.7749999999999906      48.124999999999993      38.499999999999993
   147   1      3.8499999999999943      46.199999999999996      42.349999999999994
   148   1      3.8499999999999943      48.124999999999993      44.274999999999991
   149   1      5.7749999999999906      46.199999999999996      44.274999999999991
   150   1      5.7749999999999906      48.124999999999993      42.349999999999994
   151   1      3.8499999999999943      46.199999999999996      46.199999999999996
   152   1      3.8499999999999943      48.124999999999993      48.124999999999993
   153   1      5.7749999999999906      46.199999999999996      48.124999999999993
   154   1      5.7749999999999906      48.124999999999993      46.199999999999996
   155   1      3.8499999999999943      46.199999999999996      50.049999999999983
   156   1      3.8499999999999943      48.124999999999993      51.974999999999987
   157   1      5.7749999999999906      46.199999999999996      51.974999999999987
   158   1      5.7749999999999906      48.124999999999993      50.049999999999983
   159   1      3.8499999999999943      46.199999999999996      53.899999999999991
   160   1      3.8499999999999943      48.124999999999993      55.824999999999982
   161   1      5.7749999999999906      46.199999999999996      55.824999999999982
   162   1      5.7749999999999906      48.124999999999993      53.899999999999991
   163   1      3.8499999999999943      46.199999999999996      57.749999999999993
   164   1      5.7749999999999906      46.199999999999996       59.67499999999999
   165   1      5.7749999999999906      48.124999999999993      57.749999999999993
   166   1      5.7749999999999906      48.124999999999993      61.599999999999994
   167   1      5.7749999999999906      50.049999999999983      32.724999999999987
   168   1      5.7749999999999906      51.974999999999987       30.79999999999999
   169   1      3.8499999999999943      50.049999999999983      34.649999999999991
   170   1      3.8499999999999943      51.974999999999987      36.574999999999989
   171   1      5.7749999999999906      50.049999999999983      36.574999999999989
   172   1      5.7749999999999906      51.974999999999987      34.649999999999991
   173   1      3.8499999999999943      50.049999999999983      38.499999999999993
   174   1      3.8499999999999943      51.974999999999987       40.42499999999999
   175   1      5.7749999999999906      50.049999999999983       40.42499999999999
   176   1      5.7749999999999906      51.974999999999987      38.499999999999993
   177   1      3.8499999999999943      50.049999999999983      42.349999999999994
   178   1      3.8499999999999943      51.974999999999987      44.274999999999991
   179   1      5.7749999999999906      50.049999999999983      44.274999999999991
   180   1      5.7749999999999906      51.974999999999987      42.349999999999994
   181   1      3.8499999999999943      50.049999999999983      46.199999999999996
   182   1      3.8499999999999943      51.974999999999987      48.124999999999993
   183   1      5.7749999999999906      50.049999999999983      48.124999999999993
   184   1      5.7749999999999906      51.974999999999987      46.199999999999996
   185   1      3.8499999999999943      50.049999999999983      50.049999999999983
   186   1      3.8499999999999943      51.974999999999987      51.974999999999987
   187   1      5.7749999999999906      50.049999999999983      51.974999999999987
   188   1      5.7749999999999906      51.974999999999987      50.049999999999983
   189   1      3.8499999999999943      50.049999999999983      53.899999999999991
   190   1      3.8499999999999943      51.974999999999987      55.824999999999982
   191   1      5.7749999999999906      50.049999999999983      55.824999999999982
   192   1      5.7749999999999906      51.974999999999987      53.899999999999991
   193   1      3.8499999999999943      50.049999999999983      57.749999999999993
   194   1      5.7749999999999906      50.049999999999983       59.67499999999999
   195   1      5.7749999999999906      51.974999999999987      57.749999999999993
   196   1      5.7749999999999906      51.974999999999987      61.599999999999994
   197   1      5.7749999999999906      53.899999999999991      32.724999999999987
   198   1      5.7749999999999906      55.824999999999982       30.79999999999999
   199   1      3.8499999999999943      53.899999999999991      34.649999999999991
   200   1      3.8499999999999943      55.824999999999982      36.574999999999989
   201   1      5.7749999999999906      53.899999999999991      36.574999999999989
   202   1      5.7749999999999906      55.824999999999982      34.649999999999991
   203   1      3.8499999999999943      53.899999999999991      38.499999999999993
   204   1      3.8499999999999943      55.824999999999982       40.42499999999999
   205   1      5.7749999999999906      53.899999999999991       40.42499999999999
   206   1      5.7749999999999906      55.824999999999982      38.499999999999993
   207   1      3.8499999999999943      53.899999999999991      42.349999999999994
   208   1      3.8499999999999943      55.824999999999982      44.274999999999991
   209   1      5.7749999999999906      53.899999999999991      44.274999999999991
   210   1      5.7749999999999906      55.824999999999982      42.349999999999994
   211   1      3.8499999999999943      53.899999999999991      46.199999999999996
   212   1      3.8499999999999943      55.824999999999982      48.124999999999993
   213   1      5.7749999999999906      53.899999999999991      48.124999999999993
   214   1      5.7749999999999906      55.824999999999982      46.199999999999996
   215   1      3.8499999999999943      53.899999999999991      50.049999999999983
   216   1      3.8499999999999943      55.824999999999982      51.974999999999987
   217   1      5.7749999999999906      53.899999999999991      51.974999999999987
   218   1      5.7749999999999906      55.824999999999982      50.049999999999983
   219   1      3.8499999999999943      53.899999999999991      53.899999999999991
   220   1      3.8499999999999943      55.824999999999982      55.824999999999982
   221   1      5.7749999999999906      53.899999999999991      55.824999999999982
   222   1      5.7749999999999906      55.824999999999982      53.899999999999991
   223   1      3.8499999999999943      53.899999999999991      57.749999999999993
   224   1      5.7749999999999906      53.899999999999991       59.67499999999999
   225   1      5.7749999999999906      55.824999999999982      57.749999999999993
   226   1      5.7749999999999906      55.824999999999982      61.599999999999994
   227   1      5.7749999999999906      57.749999999999993      32.724999999999987
   228   1      5.7749999999999906       59.67499999999999       30.79999999999999
   229   1      3.8499999999999943      57.749999999999993      34.649999999999991
   230   1      5.7749999999999906      57.749999999999993      36.574999999999989
   231   1      5.7749999999999906       59.67499999999999      34.649999999999991
   232   1      3.8499999999999943      57.749999999999993      38.499999999999993
   233   1      5.7749999999999906      57.749999999999993       40.42499999999999
   234   1      5.7749999999999906       59.67499999999999      38.499999999999993
   235   1      3.8499999999999943      57.749999999999993      42.349999999999994
   236   1      5.7749999999999906      57.749999999999993      44.274999999999991
   237   1      5.7749999999999906       59.67499999999999      42.349999999999994
   238   1      3.8499999999999943      57.749999999999993      46.199999999999996
   239   1      5.7749999999999906      57.749999999999993      48.124999999999993
   240   1      5.7749999999999906       59.67499999999999      46.199999999999996
   241   1      3.8499999999999943      57.749999999999993      50.049999999999983
   242   1      5.7749999999999906      57.749999999999993      51.974999999999987
   243   1      5.7749999999999906       59.67499999999999      50.049999999999983
   244   1      3.8499999999999943      57.749999999999993      53.899999999999991
   245   1      5.7749999999999906      57.749999999999993      55.824999999999982
   246   1      5.7749999999999906       59.67499999999999      53.899999999999991
   247   1      3.8499999999999943      57.749999999999993      57.749999999999993
   248   1      5.7749999999999906      57.749999999999993       59.67499999999999
   249   1      5.7749999999999906       59.67499999999999      57.749999999999993
   250   1      5.7749999999999906       59.67499999999999      61.599999999999994
   251   1      5.7749999999999906      61.599999999999994      32.724999999999987
   252   1      5.7749999999999906      61.599999999999994      36.574999999999989
   253   1      5.7749999999999906      61.599999999999994       40.42499999999999
   254   1      5.7749999999999906      61.599999999999994      44.274999999999991
   255   1      5.7749999999999906      61.599999999999994      48.124999999999993
   256   1      5.7749999999999906      61.599999999999994      51.974999999999987
   257   1      5.7749999999999906      61.599999999999994      55.824999999999982
   258   1      5.7749999999999906      61.599999999999994       59.67499999999999
   259   1      9.6249999999999929      21.174999999999994      23.099999999999991
   260   1      9.6249999999999929      21.174999999999994      26.949999999999989
   261   1      9.6249999999999929      21.174999999999994       30.79999999999999
   262   1      9.6249999999999929      21.174999999999994      34.649999999999991
   263   1      9.6249999999999929      21.174999999999994      38.499999999999993
   264   1      9.6249999999999929      21.174999999999994      42.349999999999994
   265   1      9.6249999999999929      21.174999999999994      46.199999999999996
   266   1      9.6249999999999929      21.174999999999994      50.049999999999983
   267   1      9.6249999999999929      21.174999999999994      53.899999999999991
   268   1      9.6249999999999929      21.174999999999994      57.749999999999993
   269   1      9.6249999999999929      21.174999999999994      61.599999999999994
   270   1      9.6249999999999929      21.174999999999994      65.449999999999989
   271   1      9.6249999999999929      21.174999999999994      69.299999999999997
   272   1      9.6249999999999929      23.099999999999991      21.174999999999994
   273   1      7.6999999999999948      25.024999999999991      25.024999999999991
   274   1      9.6249999999999929      23.099999999999991      25.024999999999991
   275   1      9.6249999999999929      25.024999999999991      23.099999999999991
   276   1      7.6999999999999948      25.024999999999991      28.874999999999993
   277   1      9.6249999999999929      23.099999999999991      28.874999999999993
   278   1      9.6249999999999929      25.024999999999991      26.949999999999989
   279   1      7.6999999999999948      25.024999999999991      32.724999999999987
   280   1      9.6249999999999929      23.099999999999991      32.724999999999987
   281   1      9.6249999999999929      25.024999999999991       30.79999999999999
   282   1      7.6999999999999948      25.024999999999991      36.574999999999989
   283   1      9.6249999999999929      23.099999999999991      36.574999999999989
   284   1      9.6249999999999929      25.024999999999991      34.649999999999991
   285   1      7.6999999999999948      25.024999999999991       40.42499999999999
   286   1      9.6249999999999929      23.099999999999991       40.42499999999999
   287   1      9.6249999999999929      25.024999999999991      38.499999999999993
   288   1      7.6999999999999948      25.024999999999991      44.274999999999991
   289   1      9.6249999999999929      23.099999999999991      44.274999999999991
   290   1      9.6249999999999929      25.024999999999991      42.349999999999994
   291   1      7.6999999999999948      25.024999999999991      48.124999999999993
   292   1      9.6249999999999929      23.099999999999991      48.124999999999993
   293   1      9.6249999999999929      25.024999999999991      46.199999999999996
   294   1      7.6999999999999948      25.024999999999991      51.974999999999987
   295   1      9.6249999999999929      23.099999999999991      51.974999999999987
   296   1      9.6249999999999929      25.024999999999991      50.049999999999983
   297   1      7.6999999999999948      25.024999999999991      55.824999999999982
   298   1      9.6249999999999929      23.099999999999991      55.824999999999982
   299   1      9.6249999999999929      25.024999999999991      53.899999999999991
   300   1      7.6999999999999948      25.024999999999991       59.67499999999999
   301   1      9.6249999999999929      23.099999999999991       59.67499999999999
   302   1      9.6249999999999929      25.024999999999991      57.749999999999993
   303   1      7.6999999999999948      25.024999999999991      63.524999999999991
   304   1      9.6249999999999929      23.099999999999991      63.524999999999991
   305   1      9.6249999999999929      25.024999999999991      61.599999999999994
   306   1      7.6999999999999948      25.024999999999991      67.374999999999986
   307   1      9.6249999999999929      23.099999999999991      67.374999999999986
   308   1      9.6249999999999929      25.024999999999991      65.449999999999989
   309   1      9.6249999999999929      23.099999999999991      71.224999999999994
   310   1      9.6249999999999929      25.024999999999991      69.299999999999997
   311   1      9.6249999999999929      26.949999999999989      21.174999999999994
   312   1      7.6999999999999948      28.874999999999993      25.024999999999991
   313   1      9.6249999999999929      26.949999999999989      25.024999999999991
   314   1      9.6249999999999929      28.874999999999993      23.099999999999991
   315   1      7.6999999999999948      26.949999999999989      26.949999999999989
   316   1      7.6999999999999948      28.874999999999993      28.874999999999993
   317   1      9.6249999999999929      26.949999999999989      28.874999999999993
   318   1      9.6249999999999929      28.874999999999993      26.949999999999989
   319   1      7.6999999999999948      26.949999999999989       30.79999999999999
   320   1      7.6999999999999948      28.874999999999993      32.724999999999987
   321   1      9.6249999999999929      26.949999999999989      32.724999999999987
   322   1      9.6249999999999929      28.874999999999993       30.79999999999999
   323   1      7.6999999999999948      26.949999999999989      34.649999999999991
   324   1      7.6999999999999948      28.874999999999993      36.574999999999989
   325   1      9.6249999999999929      26.949999999999989      36.574999999999989
   326   1      9.6249999999999929      28.874999999999993      34.649999999999991
   327   1      7.6999999999999948      26.949999999999989      38.499999999999993
   328   1      7.6999999999999948      28.874999999999993       40.42499999999999
   329   1      9.6249999999999929      26.949999999999989       40.42499999999999
   330   1      9.6249999999999929      28.874999999999993      38.499999999999993
   331   1      7.6999999999999948      26.949999999999989      42.349999999999994
   332   1      7.6999999999999948      28.874999999999993      44.274999999999991
   333   1      9.6249999999999929      26.949999999999989      44.274999999999991
   334   1      9.6249999999999929      28.874999999999993      42.349999999999994
   335   1      7.6999999999999948      26.949999999999989      46.199999999999996
   336   1      7.6999999999999948      28.874999999999993      48.124999999999993
   337   1      9.6249999999999929      26.949999999999989      48.124999999999993
   338   1      9.6249999999999929      28.874999999999993      46.199999999999996
   339   1      7.6999999999999948      26.949999999999989      50.049999999999983
   340   1      7.6999999999999948      28.874999999999993      51.974999999999987
   341   1      9.6249999999999929      26.949999999999989      51.974999999999987
   342   1      9.6249999999999929      28.874999999999993      50.049999999999983
   343   1      7.6999999999999948      26.949999999999989      53.899999999999991
   344   1      7.6999999999999948      28.874999999999993      55.824999999999982
   345   1      9.6249999999999929      26.949999999999989      55.824999999999982
   346   1      9.6249999999999929      28.874999999999993      53.899999999999991
   347   1      7.6999999999999948      26.949999999999989      57.749999999999993
   348   1      7.6999999999999948      28.874999999999993       59.67499999999999
   349   1      9.6249999999999929      26.949999999999989       59.67499999999999
   350   1      9.6249999999999929      28.874999999999993      57.749999999999993
   351   1      7.6999999999999948      26.949999999999989      61.599999999999994
   352   1      7.6999999999999948      28.874999999999993      63.524999999999991
   353   1      9.6249999999999929      26.949999999999989      63.524999999999991
   354   1      9.6249999999999929      28.874999999999993      61.599999999999994
   355   1      7.6999999999999948      26.949999999999989      65.449999999999989
   356   1      7.6999999999999948      28.874999999999993      67.374999999999986
   357   1      9.6249999999999929      26.949999999999989      67.374999999999986
   358   1      9.6249999999999929      28.874999999999993      65.449999999999989