model_files/PdCo/PdCo_30000/PdCo_211/PdCo_211_fcc_30069_temp.data (written by ASE) 

30069 	 atoms 
2  atom types
0.0                     104  xlo xhi
0.0                     104  ylo yhi
0.0                     104  zlo zhi


Atoms 

     1   1      1.8750000000000002      50.625000000000007                    52.5
     2   1      1.8750000000000002                    52.5      50.625000000000007
     3   1                       0                    52.5                    52.5
     4   1      1.8750000000000002                    52.5                  54.375
     5   1      1.8750000000000002                  54.375                    52.5
     6   1                   5.625                  43.125                    52.5
     7   1      3.7500000000000004                  46.875      50.625000000000007
     8   1                   5.625                      45      50.625000000000007
     9   1                   5.625                  46.875                   48.75
    10   1      3.7500000000000004                      45                    52.5
    11   1      3.7500000000000004                  46.875                  54.375
    12   1                   5.625                      45                  54.375
    13   1                   5.625                  46.875                    52.5
    14   1                   5.625                  46.875      56.250000000000007
    15   1      3.7500000000000004      50.625000000000007                  46.875
    16   1                   5.625                   48.75                  46.875
    17   1                   5.625      50.625000000000007                      45
    18   1      3.7500000000000004                   48.75                   48.75
    19   1      3.7500000000000004      50.625000000000007      50.625000000000007
    20   1                   5.625                   48.75      50.625000000000007
    21   1                   5.625      50.625000000000007                   48.75
    22   1      3.7500000000000004                   48.75                    52.5
    23   1      3.7500000000000004      50.625000000000007                  54.375
    24   1                   5.625                   48.75                  54.375
    25   1                   5.625      50.625000000000007                    52.5
    26   1      3.7500000000000004                   48.75      56.250000000000007
    27   1      3.7500000000000004      50.625000000000007      58.125000000000007
    28   1                   5.625                   48.75      58.125000000000007
    29   1                   5.625      50.625000000000007      56.250000000000007
    30   1                   5.625      50.625000000000007      60.000000000000007
    31   1                   5.625                    52.5                  43.125
    32   1      3.7500000000000004                    52.5                      45
    33   1      3.7500000000000004                  54.375                  46.875
    34   1                   5.625                    52.5                  46.875
    35   1                   5.625                  54.375                      45
    36   1      3.7500000000000004                    52.5                   48.75
    37   1      3.7500000000000004                  54.375      50.625000000000007
    38   1                   5.625                    52.5      50.625000000000007
    39   1                   5.625                  54.375                   48.75
    40   1      3.7500000000000004                    52.5                    52.5
    41   1      3.7500000000000004                  54.375                  54.375
    42   1                   5.625                    52.5                  54.375
    43   1                   5.625                  54.375                    52.5
    44   1      3.7500000000000004                    52.5      56.250000000000007
    45   1      3.7500000000000004                  54.375      58.125000000000007
    46   1                   5.625                    52.5      58.125000000000007
    47   1                   5.625                  54.375      56.250000000000007
    48   1      3.7500000000000004                    52.5      60.000000000000007
    49   1                   5.625                    52.5      61.875000000000007
    50   1                   5.625                  54.375      60.000000000000007
    51   1                   5.625      56.250000000000007                  46.875
    52   1      3.7500000000000004      56.250000000000007                   48.75
    53   1      3.7500000000000004      58.125000000000007      50.625000000000007
    54   1                   5.625      56.250000000000007      50.625000000000007
    55   1                   5.625      58.125000000000007                   48.75
    56   1      3.7500000000000004      56.250000000000007                    52.5
    57   1      3.7500000000000004      58.125000000000007                  54.375
    58   1                   5.625      56.250000000000007                  54.375
    59   1                   5.625      58.125000000000007                    52.5
    60   1      3.7500000000000004      56.250000000000007      56.250000000000007
    61   1                   5.625      56.250000000000007      58.125000000000007
    62   1                   5.625      58.125000000000007      56.250000000000007
    63   1                   5.625      60.000000000000007      50.625000000000007
    64   1      3.7500000000000004      60.000000000000007                    52.5
    65   1                   5.625      60.000000000000007                  54.375
    66   1                   5.625      61.875000000000007                    52.5
    67   1                   9.375                  35.625                    52.5
    68   1      7.5000000000000009      39.375000000000007      50.625000000000007
    69   1                   9.375                    37.5      50.625000000000007
    70   1                   9.375      39.375000000000007                   48.75
    71   1      7.5000000000000009                    37.5                    52.5
    72   1      7.5000000000000009      39.375000000000007                  54.375
    73   1                   9.375                    37.5                  54.375
    74   1                   9.375      39.375000000000007                    52.5
    75   1                   9.375      39.375000000000007      56.250000000000007
    76   1      7.5000000000000009                  43.125                  46.875
    77   1                   9.375                   41.25                  46.875
    78   1                   9.375                  43.125                      45
    79   1      7.5000000000000009                   41.25                   48.75
    80   1      7.5000000000000009                  43.125      50.625000000000007
    81   1                   9.375                   41.25      50.625000000000007
    82   1                   9.375                  43.125                   48.75
    83   1      7.5000000000000009                   41.25                    52.5
    84   1      7.5000000000000009                  43.125                  54.375
    85   1                   9.375                   41.25                  54.375
    86   1                   9.375                  43.125                    52.5
    87   1      7.5000000000000009                   41.25      56.250000000000007
    88   1      7.5000000000000009                  43.125      58.125000000000007
    89   1                   9.375                   41.25      58.125000000000007
    90   1                   9.375                  43.125      56.250000000000007
    91   1                   9.375                  43.125      60.000000000000007
    92   1      7.5000000000000009                  46.875                  43.125
    93   1                   9.375                      45                  43.125
    94   1                   9.375                  46.875                   41.25
    95   1      7.5000000000000009                      45                      45
    96   1      7.5000000000000009                  46.875                  46.875
    97   1                   9.375                      45                  46.875
    98   1                   9.375                  46.875                      45
    99   1      7.5000000000000009                      45                   48.75
   100   1      7.5000000000000009                  46.875      50.625000000000007
   101   1                   9.375                      45      50.625000000000007
   102   1                   9.375                  46.875                   48.75
   103   1      7.5000000000000009                      45                    52.5
   104   1      7.5000000000000009                  46.875                  54.375
   105   1                   9.375                      45                  54.375
   106   1                   9.375                  46.875                    52.5
   107   1      7.5000000000000009                      45      56.250000000000007
   108   1      7.5000000000000009                  46.875      58.125000000000007
   109   1                   9.375                      45      58.125000000000007
   110   1                   9.375                  46.875      56.250000000000007
   111   1      7.5000000000000009                      45      60.000000000000007
   112   1      7.5000000000000009                  46.875      61.875000000000007
   113   1                   9.375                      45      61.875000000000007
   114   1                   9.375                  46.875      60.000000000000007
   115   1                   9.375                  46.875      63.750000000000007
   116   1      7.5000000000000009      50.625000000000007      39.375000000000007
   117   1                   9.375                   48.75      39.375000000000007
   118   1                   9.375      50.625000000000007                    37.5
   119   1      7.5000000000000009                   48.75                   41.25
   120   1      7.5000000000000009      50.625000000000007                  43.125
   121   1                   9.375                   48.75                  43.125
   122   1                   9.375      50.625000000000007                   41.25
   123   1      7.5000000000000009                   48.75                      45
   124   1      7.5000000000000009      50.625000000000007                  46.875
   125   1                   9.375                   48.75                  46.875
   126   1                   9.375      50.625000000000007                      45
   127   1      7.5000000000000009                   48.75                   48.75
   128   1      7.5000000000000009      50.625000000000007      50.625000000000007
   129   1                   9.375                   48.75      50.625000000000007
   130   1                   9.375      50.625000000000007                   48.75
   131   1      7.5000000000000009                   48.75                    52.5
   132   1      7.5000000000000009      50.625000000000007                  54.375
   133   1                   9.375                   48.75                  54.375
   134   1                   9.375      50.625000000000007                    52.5
   135   1      7.5000000000000009                   48.75      56.250000000000007
   136   1      7.5000000000000009      50.625000000000007      58.125000000000007
   137   1                   9.375                   48.75      58.125000000000007
   138   1                   9.375      50.625000000000007      56.250000000000007
   139   1      7.5000000000000009                   48.75      60.000000000000007
   140   1      7.5000000000000009      50.625000000000007      61.875000000000007
   141   1                   9.375                   48.75      61.875000000000007
   142   1                   9.375      50.625000000000007      60.000000000000007
   143   1      7.5000000000000009                   48.75      63.750000000000007
   144   1      7.5000000000000009      50.625000000000007                  65.625
   145   1                   9.375                   48.75                  65.625
   146   1                   9.375      50.625000000000007      63.750000000000007
   147   1                   9.375      50.625000000000007                    67.5
   148   1                   9.375                    52.5                  35.625
   149   1      7.5000000000000009                    52.5                    37.5
   150   1      7.5000000000000009                  54.375      39.375000000000007
   151   1                   9.375                    52.5      39.375000000000007
   152   1                   9.375                  54.375                    37.5
   153   1      7.5000000000000009                    52.5                   41.25
   154   1      7.5000000000000009                  54.375                  43.125
   155   1                   9.375                    52.5                  43.125
   156   1                   9.375                  54.375                   41.25
   157   1      7.5000000000000009                    52.5                      45
   158   1      7.5000000000000009                  54.375                  46.875
   159   1                   9.375                    52.5                  46.875
   160   1                   9.375                  54.375                      45
   161   1      7.5000000000000009                    52.5                   48.75
   162   1      7.5000000000000009                  54.375      50.625000000000007
   163   1                   9.375                    52.5      50.625000000000007
   164   1                   9.375                  54.375                   48.75
   165   1      7.5000000000000009                    52.5                    52.5
   166   1      7.5000000000000009                  54.375                  54.375
   167   1                   9.375                    52.5                  54.375
   168   1                   9.375                  54.375                    52.5
   169   1      7.5000000000000009                    52.5      56.250000000000007
   170   1      7.5000000000000009                  54.375      58.125000000000007
   171   1                   9.375                    52.5      58.125000000000007
   172   1                   9.375                  54.375      56.250000000000007
   173   1      7.5000000000000009                    52.5      60.000000000000007
   174   1      7.5000000000000009                  54.375      61.875000000000007
   175   1                   9.375                    52.5      61.875000000000007
   176   1                   9.375                  54.375      60.000000000000007
   177   1      7.5000000000000009                    52.5      63.750000000000007
   178   1      7.5000000000000009                  54.375                  65.625
   179   1                   9.375                    52.5                  65.625
   180   1                   9.375                  54.375      63.750000000000007
   181   1      7.5000000000000009                    52.5                    67.5
   182   1                   9.375                    52.5                  69.375
   183   1                   9.375                  54.375                    67.5
   184   1                   9.375      56.250000000000007      39.375000000000007
   185   1      7.5000000000000009      56.250000000000007                   41.25
   186   1      7.5000000000000009      58.125000000000007                  43.125
   187   1                   9.375      56.250000000000007                  43.125
   188   1                   9.375      58.125000000000007                   41.25
   189   1      7.5000000000000009      56.250000000000007                      45
   190   1      7.5000000000000009      58.125000000000007                  46.875
   191   1                   9.375      56.250000000000007                  46.875
   192   1                   9.375      58.125000000000007                      45
   193   1      7.5000000000000009      56.250000000000007                   48.75
   194   1      7.5000000000000009      58.125000000000007      50.625000000000007
   195   1                   9.375      56.250000000000007      50.625000000000007
   196   1                   9.375      58.125000000000007                   48.75
   197   1      7.5000000000000009      56.250000000000007                    52.5
   198   1      7.5000000000000009      58.125000000000007                  54.375
   199   1                   9.375      56.250000000000007                  54.375
   200   1                   9.375      58.125000000000007                    52.5
   201   1      7.5000000000000009      56.250000000000007      56.250000000000007
   202   1      7.5000000000000009      58.125000000000007      58.125000000000007
   203   1                   9.375      56.250000000000007      58.125000000000007
   204   1                   9.375      58.125000000000007      56.250000000000007
   205   1      7.5000000000000009      56.250000000000007      60.000000000000007
   206   1      7.5000000000000009      58.125000000000007      61.875000000000007
   207   1                   9.375      56.250000000000007      61.875000000000007
   208   1                   9.375      58.125000000000007      60.000000000000007
   209   1      7.5000000000000009      56.250000000000007      63.750000000000007
   210   1                   9.375      56.250000000000007                  65.625
   211   1                   9.375      58.125000000000007      63.750000000000007
   212   1                   9.375      60.000000000000007                  43.125
   213   1      7.5000000000000009      60.000000000000007                      45
   214   1      7.5000000000000009      61.875000000000007                  46.875
   215   1                   9.375      60.000000000000007                  46.875
   216   1                   9.375      61.875000000000007                      45
   217   1      7.5000000000000009      60.000000000000007                   48.75
   218   1      7.5000000000000009      61.875000000000007      50.625000000000007
   219   1                   9.375      60.000000000000007      50.625000000000007
   220   1                   9.375      61.875000000000007                   48.75
   221   1      7.5000000000000009      60.000000000000007                    52.5
   222   1      7.5000000000000009      61.875000000000007                  54.375
   223   1                   9.375      60.000000000000007                  54.375
   224   1                   9.375      61.875000000000007                    52.5
   225   1      7.5000000000000009      60.000000000000007      56.250000000000007
   226   1      7.5000000000000009      61.875000000000007      58.125000000000007
   227   1                   9.375      60.000000000000007      58.125000000000007
   228   1                   9.375      61.875000000000007      56.250000000000007
   229   1      7.5000000000000009      60.000000000000007      60.000000000000007
   230   1                   9.375      60.000000000000007      61.875000000000007
   231   1                   9.375      61.875000000000007      60.000000000000007
   232   1                   9.375      63.750000000000007                  46.875
   233   1      7.5000000000000009      63.750000000000007                   48.75
   234   1      7.5000000000000009                  65.625      50.625000000000007
   235   1                   9.375      63.750000000000007      50.625000000000007
   236   1                   9.375                  65.625                   48.75
   237   1      7.5000000000000009      63.750000000000007                    52.5
   238   1      7.5000000000000009                  65.625                  54.375
   239   1                   9.375      63.750000000000007                  54.375
   240   1                   9.375                  65.625                    52.5
   241   1      7.5000000000000009      63.750000000000007      56.250000000000007
   242   1                   9.375      63.750000000000007      58.125000000000007
   243   1                   9.375                  65.625      56.250000000000007
   244   1                   9.375                    67.5      50.625000000000007
   245   1      7.5000000000000009                    67.5                    52.5
   246   1                   9.375                    67.5                  54.375
   247   1                   9.375                  69.375                    52.5
   248   1                  13.125      28.125000000000004                    52.5
   249   1                   11.25      31.875000000000004      50.625000000000007
   250   1                  13.125      30.000000000000004      50.625000000000007
   251   1                  13.125      31.875000000000004                   48.75
   252   1                   11.25      30.000000000000004                    52.5
   253   1                   11.25      31.875000000000004                  54.375
   254   1                  13.125      30.000000000000004                  54.375
   255   1                  13.125      31.875000000000004                    52.5
   256   1                  13.125      31.875000000000004      56.250000000000007
   257   1                   11.25                  35.625                  46.875
   258   1                  13.125                   33.75                  46.875
   259   1                  13.125                  35.625                      45
   260   1                   11.25                   33.75                   48.75
   261   1                   11.25                  35.625      50.625000000000007
   262   1                  13.125                   33.75      50.625000000000007
   263   1                  13.125                  35.625                   48.75
   264   1                   11.25                   33.75                    52.5
   265   1                   11.25                  35.625                  54.375
   266   1                  13.125                   33.75                  54.375
   267   1                  13.125                  35.625                    52.5
   268   1                   11.25                   33.75      56.250000000000007
   269   1                   11.25                  35.625      58.125000000000007
   270   1                  13.125                   33.75      58.125000000000007
   271   1                  13.125                  35.625      56.250000000000007
   272   1                  13.125                  35.625      60.000000000000007
   273   1                   11.25      39.375000000000007                  43.125
   274   1                  13.125                    37.5                  43.125
   275   1                  13.125      39.375000000000007                   41.25
   276   1                   11.25                    37.5                      45
   277   1                   11.25      39.375000000000007                  46.875
   278   1                  13.125                    37.5                  46.875
   279   1                  13.125      39.375000000000007                      45
   280   1                   11.25                    37.5                   48.75
   281   1                   11.25      39.375000000000007      50.625000000000007
   282   1                  13.125                    37.5      50.625000000000007
   283   1                  13.125      39.375000000000007                   48.75
   284   1                   11.25                    37.5                    52.5
   285   1                   11.25      39.375000000000007                  54.375
   286   1                  13.125                    37.5                  54.375
   287   1                  13.125      39.375000000000007                    52.5
   288   1                   11.25                    37.5      56.250000000000007
   289   1                   11.25      39.375000000000007      58.125000000000007
   290   1                  13.125                    37.5      58.125000000000007
   291   1                  13.125      39.375000000000007      56.250000000000007
   292   1                   11.25                    37.5      60.000000000000007
   293   1                   11.25      39.375000000000007      61.875000000000007
   294   1                  13.125                    37.5      61.875000000000007
   295   1                  13.125      39.375000000000007      60.000000000000007
   296   1                  13.125      39.375000000000007      63.750000000000007
   297   1                   11.25                  43.125      39.375000000000007
   298   1                  13.125                   41.25      39.375000000000007
   299   1                  13.125                  43.125                    37.5
   300   1                   11.25                   41.25                   41.25
   301   1                   11.25                  43.125                  43.125
   302   1                  13.125                   41.25                  43.125
   303   1                  13.125                  43.125                   41.25
   304   1                   11.25                   41.25                      45
   305   1                   11.25                  43.125                  46.875
   306   1                  13.125                   41.25                  46.875
   307   1                  13.125                  43.125                      45
   308   1                   11.25                   41.25                   48.75
   309   1                   11.25                  43.125      50.625000000000007
   310   1                  13.125                   41.25      50.625000000000007
   311   1                  13.125                  43.125                   48.75
   312   1                   11.25                   41.25                    52.5
   313   1                   11.25                  43.125                  54.375
   314   1                  13.125                   41.25                  54.375
   315   1                  13.125                  43.125                    52.5
   316   1                   11.25                   41.25      56.250000000000007
   317   1                   11.25                  43.125      58.125000000000007
   318   1                  13.125                   41.25      58.125000000000007
   319   1                  13.125                  43.125      56.250000000000007
   320   1                   11.25                   41.25      60.000000000000007
   321   1                   11.25                  43.125      61.875000000000007
   322   1                  13.125                   41.25      61.875000000000007
   323   1                  13.125                  43.125      60.000000000000007
   324   1                   11.25                   41.25      63.750000000000007
   325   1                   11.25                  43.125                  65.625
   326   1                  13.125                   41.25                  65.625
   327   1                  13.125                  43.125      63.750000000000007
   328   1                  13.125                  43.125                    67.5
   329   1                   11.25                  46.875                  35.625
   330   1                  13.125                      45                  35.625
   331   1                  13.125                  46.875                   33.75
   332   1                   11.25                      45                    37.5
   333   1                   11.25                  46.875      39.375000000000007
   334   1                  13.125                      45      39.375000000000007
   335   1                  13.125                  46.875                    37.5
   336   1                   11.25                      45                   41.25
   337   1                   11.25                  46.875                  43.125
   338   1                  13.125                      45                  43.125
   339   1                  13.125                  46.875                   41.25
   340   1                   11.25                      45                      45
   341   1                   11.25                  46.875                  46.875
   342   1                  13.125                      45                  46.875
   343   1                  13.125                  46.875                      45
   344   1                   11.25                      45                   48.75
   345   1                   11.25                  46.875      50.625000000000007
   346   1                  13.125                      45      50.625000000000007
   347   1                  13.125                  46.875                   48.75
   348   1                   11.25                      45                    52.5
   349   1                   11.25                  46.875                  54.375
   350   1                  13.125                      45                  54.375
   351   1                  13.125                  46.875                    52.5
   352   1                   11.25                      45      56.250000000000007
   353   1                   11.25                  46.875      58.125000000000007
   354   1                  13.125                      45      58.125000000000007
   355   1                  13.125                  46.875      56.250000000000007
   356   1                   11.25                      45      60.000000000000007
   357   1                   11.25                  46.875      61.875000000000007
   358   1                  13.125                      45      61.875000000000007