model_files/Cu/Cu_30000/Cu_532/data.Cu_532_fcc_30213 (written by ASE) 

30213 	 atoms 
1  atom types
0.0                     103  xlo xhi
0.0                     103  ylo yhi
0.0                     103  zlo zhi


Atoms 

     1   1      1.8049999999999995                  45.125      50.539999999999999
     2   1      1.8049999999999995      46.929999999999993      48.734999999999992
     3   1      1.8049999999999995      48.734999999999992      46.929999999999993
     4   1      1.8049999999999995      46.929999999999993      52.344999999999992
     5   1      1.8049999999999995      48.734999999999992      50.539999999999999
     6   1      1.8049999999999995      48.734999999999992      54.149999999999991
     7   1      1.8049999999999995      50.539999999999999                  45.125
     8   1      1.8049999999999995      50.539999999999999      48.734999999999992
     9   1      1.8049999999999995      52.344999999999992      46.929999999999993
    10   1                       0      50.539999999999999      50.539999999999999
    11   1      1.8049999999999995      50.539999999999999      52.344999999999992
    12   1      1.8049999999999995      52.344999999999992      50.539999999999999
    13   1      1.8049999999999995      50.539999999999999      55.954999999999998
    14   1      1.8049999999999995      52.344999999999992      54.149999999999991
    15   1      1.8049999999999995      54.149999999999991      48.734999999999992
    16   1      1.8049999999999995      54.149999999999991      52.344999999999992
    17   1      1.8049999999999995      55.954999999999998      50.539999999999999
    18   1      5.4149999999999991      41.515000000000001      46.929999999999993
    19   1      5.4149999999999991      41.515000000000001      50.539999999999999
    20   1      5.4149999999999991      41.515000000000001      54.149999999999991
    21   1      5.4149999999999991      43.319999999999993                  45.125
    22   1      5.4149999999999991                  45.125      43.319999999999993
    23   1       3.609999999999999                  45.125      48.734999999999992
    24   1      5.4149999999999991      43.319999999999993      48.734999999999992
    25   1      5.4149999999999991                  45.125      46.929999999999993
    26   1       3.609999999999999      43.319999999999993      50.539999999999999
    27   1       3.609999999999999                  45.125      52.344999999999992
    28   1      5.4149999999999991      43.319999999999993      52.344999999999992
    29   1      5.4149999999999991                  45.125      50.539999999999999
    30   1      5.4149999999999991      43.319999999999993      55.954999999999998
    31   1      5.4149999999999991                  45.125      54.149999999999991
    32   1      5.4149999999999991                  45.125      57.759999999999998
    33   1      5.4149999999999991      46.929999999999993      41.515000000000001
    34   1       3.609999999999999      48.734999999999992                  45.125
    35   1      5.4149999999999991      46.929999999999993                  45.125
    36   1      5.4149999999999991      48.734999999999992      43.319999999999993
    37   1       3.609999999999999      46.929999999999993      46.929999999999993
    38   1       3.609999999999999      48.734999999999992      48.734999999999992
    39   1      5.4149999999999991      46.929999999999993      48.734999999999992
    40   1      5.4149999999999991      48.734999999999992      46.929999999999993
    41   1       3.609999999999999      46.929999999999993      50.539999999999999
    42   1       3.609999999999999      48.734999999999992      52.344999999999992
    43   1      5.4149999999999991      46.929999999999993      52.344999999999992
    44   1      5.4149999999999991      48.734999999999992      50.539999999999999
    45   1       3.609999999999999      46.929999999999993      54.149999999999991
    46   1       3.609999999999999      48.734999999999992      55.954999999999998
    47   1      5.4149999999999991      46.929999999999993      55.954999999999998
    48   1      5.4149999999999991      48.734999999999992      54.149999999999991
    49   1      5.4149999999999991      46.929999999999993      59.564999999999991
    50   1      5.4149999999999991      48.734999999999992      57.759999999999998
    51   1      5.4149999999999991      50.539999999999999      41.515000000000001
    52   1       3.609999999999999      50.539999999999999      43.319999999999993
    53   1       3.609999999999999      52.344999999999992                  45.125
    54   1      5.4149999999999991      50.539999999999999                  45.125
    55   1      5.4149999999999991      52.344999999999992      43.319999999999993
    56   1       3.609999999999999      50.539999999999999      46.929999999999993
    57   1       3.609999999999999      52.344999999999992      48.734999999999992
    58   1      5.4149999999999991      50.539999999999999      48.734999999999992
    59   1      5.4149999999999991      52.344999999999992      46.929999999999993
    60   1       3.609999999999999      50.539999999999999      50.539999999999999
    61   1       3.609999999999999      52.344999999999992      52.344999999999992
    62   1      5.4149999999999991      50.539999999999999      52.344999999999992
    63   1      5.4149999999999991      52.344999999999992      50.539999999999999
    64   1       3.609999999999999      50.539999999999999      54.149999999999991
    65   1       3.609999999999999      52.344999999999992      55.954999999999998
    66   1      5.4149999999999991      50.539999999999999      55.954999999999998
    67   1      5.4149999999999991      52.344999999999992      54.149999999999991
    68   1       3.609999999999999      50.539999999999999      57.759999999999998
    69   1      5.4149999999999991      50.539999999999999      59.564999999999991
    70   1      5.4149999999999991      52.344999999999992      57.759999999999998
    71   1      5.4149999999999991      54.149999999999991      41.515000000000001
    72   1      5.4149999999999991      54.149999999999991                  45.125
    73   1      5.4149999999999991      55.954999999999998      43.319999999999993
    74   1       3.609999999999999      54.149999999999991      46.929999999999993
    75   1       3.609999999999999      55.954999999999998      48.734999999999992
    76   1      5.4149999999999991      54.149999999999991      48.734999999999992
    77   1      5.4149999999999991      55.954999999999998      46.929999999999993
    78   1       3.609999999999999      54.149999999999991      50.539999999999999
    79   1       3.609999999999999      55.954999999999998      52.344999999999992
    80   1      5.4149999999999991      54.149999999999991      52.344999999999992
    81   1      5.4149999999999991      55.954999999999998      50.539999999999999
    82   1       3.609999999999999      54.149999999999991      54.149999999999991
    83   1      5.4149999999999991      54.149999999999991      55.954999999999998
    84   1      5.4149999999999991      55.954999999999998      54.149999999999991
    85   1      5.4149999999999991      54.149999999999991      59.564999999999991
    86   1      5.4149999999999991      55.954999999999998      57.759999999999998
    87   1      5.4149999999999991      57.759999999999998                  45.125
    88   1      5.4149999999999991      57.759999999999998      48.734999999999992
    89   1      5.4149999999999991      59.564999999999991      46.929999999999993
    90   1       3.609999999999999      57.759999999999998      50.539999999999999
    91   1      5.4149999999999991      57.759999999999998      52.344999999999992
    92   1      5.4149999999999991      59.564999999999991      50.539999999999999
    93   1      5.4149999999999991      57.759999999999998      55.954999999999998
    94   1      5.4149999999999991      59.564999999999991      54.149999999999991
    95   1      9.0249999999999968      34.295000000000002      50.539999999999999
    96   1      9.0249999999999968      37.904999999999994      43.319999999999993
    97   1       7.219999999999998      37.904999999999994      48.734999999999992
    98   1      9.0249999999999968      36.100000000000001      48.734999999999992
    99   1      9.0249999999999968      37.904999999999994      46.929999999999993
   100   1       7.219999999999998      36.100000000000001      50.539999999999999
   101   1       7.219999999999998      37.904999999999994      52.344999999999992
   102   1      9.0249999999999968      36.100000000000001      52.344999999999992
   103   1      9.0249999999999968      37.904999999999994      50.539999999999999
   104   1      9.0249999999999968      37.904999999999994      54.149999999999991
   105   1      9.0249999999999968      37.904999999999994      57.759999999999998
   106   1      9.0249999999999968      39.710000000000001      41.515000000000001
   107   1      9.0249999999999968      41.515000000000001      39.710000000000001
   108   1       7.219999999999998      41.515000000000001                  45.125
   109   1      9.0249999999999968      39.710000000000001                  45.125
   110   1      9.0249999999999968      41.515000000000001      43.319999999999993
   111   1       7.219999999999998      39.710000000000001      46.929999999999993
   112   1       7.219999999999998      41.515000000000001      48.734999999999992
   113   1      9.0249999999999968      39.710000000000001      48.734999999999992
   114   1      9.0249999999999968      41.515000000000001      46.929999999999993
   115   1       7.219999999999998      39.710000000000001      50.539999999999999
   116   1       7.219999999999998      41.515000000000001      52.344999999999992
   117   1      9.0249999999999968      39.710000000000001      52.344999999999992
   118   1      9.0249999999999968      41.515000000000001      50.539999999999999
   119   1       7.219999999999998      39.710000000000001      54.149999999999991
   120   1       7.219999999999998      41.515000000000001      55.954999999999998
   121   1      9.0249999999999968      39.710000000000001      55.954999999999998
   122   1      9.0249999999999968      41.515000000000001      54.149999999999991
   123   1      9.0249999999999968      39.710000000000001      59.564999999999991
   124   1      9.0249999999999968      41.515000000000001      57.759999999999998
   125   1      9.0249999999999968      41.515000000000001      61.370000000000005
   126   1      9.0249999999999968      43.319999999999993      37.904999999999994
   127   1       7.219999999999998                  45.125      41.515000000000001
   128   1      9.0249999999999968      43.319999999999993      41.515000000000001
   129   1      9.0249999999999968                  45.125      39.710000000000001
   130   1       7.219999999999998      43.319999999999993      43.319999999999993
   131   1       7.219999999999998                  45.125                  45.125
   132   1      9.0249999999999968      43.319999999999993                  45.125
   133   1      9.0249999999999968                  45.125      43.319999999999993
   134   1       7.219999999999998      43.319999999999993      46.929999999999993
   135   1       7.219999999999998                  45.125      48.734999999999992
   136   1      9.0249999999999968      43.319999999999993      48.734999999999992
   137   1      9.0249999999999968                  45.125      46.929999999999993
   138   1       7.219999999999998      43.319999999999993      50.539999999999999
   139   1       7.219999999999998                  45.125      52.344999999999992
   140   1      9.0249999999999968      43.319999999999993      52.344999999999992
   141   1      9.0249999999999968                  45.125      50.539999999999999
   142   1       7.219999999999998      43.319999999999993      54.149999999999991
   143   1       7.219999999999998                  45.125      55.954999999999998
   144   1      9.0249999999999968      43.319999999999993      55.954999999999998
   145   1      9.0249999999999968                  45.125      54.149999999999991
   146   1       7.219999999999998      43.319999999999993      57.759999999999998
   147   1       7.219999999999998                  45.125      59.564999999999991
   148   1      9.0249999999999968      43.319999999999993      59.564999999999991
   149   1      9.0249999999999968                  45.125      57.759999999999998
   150   1      9.0249999999999968      43.319999999999993      63.175000000000004
   151   1      9.0249999999999968                  45.125      61.370000000000005
   152   1       7.219999999999998      48.734999999999992      37.904999999999994
   153   1      9.0249999999999968      46.929999999999993      37.904999999999994
   154   1      9.0249999999999968      48.734999999999992      36.100000000000001
   155   1       7.219999999999998      46.929999999999993      39.710000000000001
   156   1       7.219999999999998      48.734999999999992      41.515000000000001
   157   1      9.0249999999999968      46.929999999999993      41.515000000000001
   158   1      9.0249999999999968      48.734999999999992      39.710000000000001
   159   1       7.219999999999998      46.929999999999993      43.319999999999993
   160   1       7.219999999999998      48.734999999999992                  45.125
   161   1      9.0249999999999968      46.929999999999993                  45.125
   162   1      9.0249999999999968      48.734999999999992      43.319999999999993
   163   1       7.219999999999998      46.929999999999993      46.929999999999993
   164   1       7.219999999999998      48.734999999999992      48.734999999999992
   165   1      9.0249999999999968      46.929999999999993      48.734999999999992
   166   1      9.0249999999999968      48.734999999999992      46.929999999999993
   167   1       7.219999999999998      46.929999999999993      50.539999999999999
   168   1       7.219999999999998      48.734999999999992      52.344999999999992
   169   1      9.0249999999999968      46.929999999999993      52.344999999999992
   170   1      9.0249999999999968      48.734999999999992      50.539999999999999
   171   1       7.219999999999998      46.929999999999993      54.149999999999991
   172   1       7.219999999999998      48.734999999999992      55.954999999999998
   173   1      9.0249999999999968      46.929999999999993      55.954999999999998
   174   1      9.0249999999999968      48.734999999999992      54.149999999999991
   175   1       7.219999999999998      46.929999999999993      57.759999999999998
   176   1       7.219999999999998      48.734999999999992      59.564999999999991
   177   1      9.0249999999999968      46.929999999999993      59.564999999999991
   178   1      9.0249999999999968      48.734999999999992      57.759999999999998
   179   1       7.219999999999998      46.929999999999993      61.370000000000005
   180   1       7.219999999999998      48.734999999999992      63.175000000000004
   181   1      9.0249999999999968      46.929999999999993      63.175000000000004
   182   1      9.0249999999999968      48.734999999999992      61.370000000000005
   183   1      9.0249999999999968      48.734999999999992       64.97999999999999
   184   1      9.0249999999999968      50.539999999999999      34.295000000000002
   185   1       7.219999999999998      50.539999999999999      36.100000000000001
   186   1       7.219999999999998      52.344999999999992      37.904999999999994
   187   1      9.0249999999999968      50.539999999999999      37.904999999999994
   188   1      9.0249999999999968      52.344999999999992      36.100000000000001
   189   1       7.219999999999998      50.539999999999999      39.710000000000001
   190   1       7.219999999999998      52.344999999999992      41.515000000000001
   191   1      9.0249999999999968      50.539999999999999      41.515000000000001
   192   1      9.0249999999999968      52.344999999999992      39.710000000000001
   193   1       7.219999999999998      50.539999999999999      43.319999999999993
   194   1       7.219999999999998      52.344999999999992                  45.125
   195   1      9.0249999999999968      50.539999999999999                  45.125
   196   1      9.0249999999999968      52.344999999999992      43.319999999999993
   197   1       7.219999999999998      50.539999999999999      46.929999999999993
   198   1       7.219999999999998      52.344999999999992      48.734999999999992
   199   1      9.0249999999999968      50.539999999999999      48.734999999999992
   200   1      9.0249999999999968      52.344999999999992      46.929999999999993
   201   1       7.219999999999998      50.539999999999999      50.539999999999999
   202   1       7.219999999999998      52.344999999999992      52.344999999999992
   203   1      9.0249999999999968      50.539999999999999      52.344999999999992
   204   1      9.0249999999999968      52.344999999999992      50.539999999999999
   205   1       7.219999999999998      50.539999999999999      54.149999999999991
   206   1       7.219999999999998      52.344999999999992      55.954999999999998
   207   1      9.0249999999999968      50.539999999999999      55.954999999999998
   208   1      9.0249999999999968      52.344999999999992      54.149999999999991
   209   1       7.219999999999998      50.539999999999999      57.759999999999998
   210   1       7.219999999999998      52.344999999999992      59.564999999999991
   211   1      9.0249999999999968      50.539999999999999      59.564999999999991
   212   1      9.0249999999999968      52.344999999999992      57.759999999999998
   213   1       7.219999999999998      50.539999999999999      61.370000000000005
   214   1       7.219999999999998      52.344999999999992      63.175000000000004
   215   1      9.0249999999999968      50.539999999999999      63.175000000000004
   216   1      9.0249999999999968      52.344999999999992      61.370000000000005
   217   1       7.219999999999998      50.539999999999999       64.97999999999999
   218   1      9.0249999999999968      50.539999999999999      66.785000000000011
   219   1      9.0249999999999968      52.344999999999992       64.97999999999999
   220   1      9.0249999999999968      54.149999999999991      37.904999999999994
   221   1       7.219999999999998      54.149999999999991      39.710000000000001
   222   1       7.219999999999998      55.954999999999998      41.515000000000001
   223   1      9.0249999999999968      54.149999999999991      41.515000000000001
   224   1      9.0249999999999968      55.954999999999998      39.710000000000001
   225   1       7.219999999999998      54.149999999999991      43.319999999999993
   226   1       7.219999999999998      55.954999999999998                  45.125
   227   1      9.0249999999999968      54.149999999999991                  45.125
   228   1      9.0249999999999968      55.954999999999998      43.319999999999993
   229   1       7.219999999999998      54.149999999999991      46.929999999999993
   230   1       7.219999999999998      55.954999999999998      48.734999999999992
   231   1      9.0249999999999968      54.149999999999991      48.734999999999992
   232   1      9.0249999999999968      55.954999999999998      46.929999999999993
   233   1       7.219999999999998      54.149999999999991      50.539999999999999
   234   1       7.219999999999998      55.954999999999998      52.344999999999992
   235   1      9.0249999999999968      54.149999999999991      52.344999999999992
   236   1      9.0249999999999968      55.954999999999998      50.539999999999999
   237   1       7.219999999999998      54.149999999999991      54.149999999999991
   238   1       7.219999999999998      55.954999999999998      55.954999999999998
   239   1      9.0249999999999968      54.149999999999991      55.954999999999998
   240   1      9.0249999999999968      55.954999999999998      54.149999999999991
   241   1       7.219999999999998      54.149999999999991      57.759999999999998
   242   1       7.219999999999998      55.954999999999998      59.564999999999991
   243   1      9.0249999999999968      54.149999999999991      59.564999999999991
   244   1      9.0249999999999968      55.954999999999998      57.759999999999998
   245   1       7.219999999999998      54.149999999999991      61.370000000000005
   246   1      9.0249999999999968      54.149999999999991      63.175000000000004
   247   1      9.0249999999999968      55.954999999999998      61.370000000000005
   248   1      9.0249999999999968      57.759999999999998      37.904999999999994
   249   1      9.0249999999999968      57.759999999999998      41.515000000000001
   250   1      9.0249999999999968      59.564999999999991      39.710000000000001
   251   1       7.219999999999998      57.759999999999998      43.319999999999993
   252   1       7.219999999999998      59.564999999999991                  45.125
   253   1      9.0249999999999968      57.759999999999998                  45.125
   254   1      9.0249999999999968      59.564999999999991      43.319999999999993
   255   1       7.219999999999998      57.759999999999998      46.929999999999993
   256   1       7.219999999999998      59.564999999999991      48.734999999999992
   257   1      9.0249999999999968      57.759999999999998      48.734999999999992
   258   1      9.0249999999999968      59.564999999999991      46.929999999999993
   259   1       7.219999999999998      57.759999999999998      50.539999999999999
   260   1       7.219999999999998      59.564999999999991      52.344999999999992
   261   1      9.0249999999999968      57.759999999999998      52.344999999999992
   262   1      9.0249999999999968      59.564999999999991      50.539999999999999
   263   1       7.219999999999998      57.759999999999998      54.149999999999991
   264   1       7.219999999999998      59.564999999999991      55.954999999999998
   265   1      9.0249999999999968      57.759999999999998      55.954999999999998
   266   1      9.0249999999999968      59.564999999999991      54.149999999999991
   267   1       7.219999999999998      57.759999999999998      57.759999999999998
   268   1      9.0249999999999968      57.759999999999998      59.564999999999991
   269   1      9.0249999999999968      59.564999999999991      57.759999999999998
   270   1      9.0249999999999968      57.759999999999998      63.175000000000004
   271   1      9.0249999999999968      59.564999999999991      61.370000000000005
   272   1      9.0249999999999968      61.370000000000005      41.515000000000001
   273   1      9.0249999999999968      61.370000000000005                  45.125
   274   1      9.0249999999999968      63.175000000000004      43.319999999999993
   275   1       7.219999999999998      61.370000000000005      46.929999999999993
   276   1       7.219999999999998      63.175000000000004      48.734999999999992
   277   1      9.0249999999999968      61.370000000000005      48.734999999999992
   278   1      9.0249999999999968      63.175000000000004      46.929999999999993
   279   1       7.219999999999998      61.370000000000005      50.539999999999999
   280   1       7.219999999999998      63.175000000000004      52.344999999999992
   281   1      9.0249999999999968      61.370000000000005      52.344999999999992
   282   1      9.0249999999999968      63.175000000000004      50.539999999999999
   283   1       7.219999999999998      61.370000000000005      54.149999999999991
   284   1      9.0249999999999968      61.370000000000005      55.954999999999998
   285   1      9.0249999999999968      63.175000000000004      54.149999999999991
   286   1      9.0249999999999968      61.370000000000005      59.564999999999991
   287   1      9.0249999999999968      63.175000000000004      57.759999999999998
   288   1      9.0249999999999968       64.97999999999999      48.734999999999992
   289   1       7.219999999999998       64.97999999999999      50.539999999999999
   290   1      9.0249999999999968       64.97999999999999      52.344999999999992
   291   1      9.0249999999999968      66.785000000000011      50.539999999999999
   292   1      12.634999999999996      27.074999999999996      50.539999999999999
   293   1      12.634999999999996      28.879999999999999      48.734999999999992
   294   1      12.634999999999996      30.685000000000002      46.929999999999993
   295   1      12.634999999999996      28.879999999999999      52.344999999999992
   296   1      12.634999999999996      30.685000000000002      50.539999999999999
   297   1      12.634999999999996      30.685000000000002      54.149999999999991
   298   1      12.634999999999996      34.295000000000002      39.710000000000001
   299   1      10.829999999999998      34.295000000000002                  45.125
   300   1      12.634999999999996      32.489999999999995                  45.125
   301   1      12.634999999999996      34.295000000000002      43.319999999999993
   302   1      10.829999999999998      32.489999999999995      46.929999999999993
   303   1      10.829999999999998      34.295000000000002      48.734999999999992
   304   1      12.634999999999996      32.489999999999995      48.734999999999992
   305   1      12.634999999999996      34.295000000000002      46.929999999999993
   306   1      10.829999999999998      32.489999999999995      50.539999999999999
   307   1      10.829999999999998      34.295000000000002      52.344999999999992
   308   1      12.634999999999996      32.489999999999995      52.344999999999992
   309   1      12.634999999999996      34.295000000000002      50.539999999999999
   310   1      10.829999999999998      32.489999999999995      54.149999999999991
   311   1      10.829999999999998      34.295000000000002      55.954999999999998
   312   1      12.634999999999996      32.489999999999995      55.954999999999998
   313   1      12.634999999999996      34.295000000000002      54.149999999999991
   314   1      12.634999999999996      34.295000000000002      57.759999999999998
   315   1      12.634999999999996      34.295000000000002      61.370000000000005
   316   1      12.634999999999996      36.100000000000001      37.904999999999994
   317   1      12.634999999999996      37.904999999999994      36.100000000000001
   318   1      10.829999999999998      37.904999999999994      41.515000000000001
   319   1      12.634999999999996      36.100000000000001      41.515000000000001
   320   1      12.634999999999996      37.904999999999994      39.710000000000001
   321   1      10.829999999999998      36.100000000000001      43.319999999999993
   322   1      10.829999999999998      37.904999999999994                  45.125
   323   1      12.634999999999996      36.100000000000001                  45.125
   324   1      12.634999999999996      37.904999999999994      43.319999999999993
   325   1      10.829999999999998      36.100000000000001      46.929999999999993
   326   1      10.829999999999998      37.904999999999994      48.734999999999992
   327   1      12.634999999999996      36.100000000000001      48.734999999999992
   328   1      12.634999999999996      37.904999999999994      46.929999999999993
   329   1      10.829999999999998      36.100000000000001      50.539999999999999
   330   1      10.829999999999998      37.904999999999994      52.344999999999992
   331   1      12.634999999999996      36.100000000000001      52.344999999999992
   332   1      12.634999999999996      37.904999999999994      50.539999999999999
   333   1      10.829999999999998      36.100000000000001      54.149999999999991
   334   1      10.829999999999998      37.904999999999994      55.954999999999998
   335   1      12.634999999999996      36.100000000000001      55.954999999999998
   336   1      12.634999999999996      37.904999999999994      54.149999999999991
   337   1      10.829999999999998      36.100000000000001      57.759999999999998
   338   1      10.829999999999998      37.904999999999994      59.564999999999991
   339   1      12.634999999999996      36.100000000000001      59.564999999999991
   340   1      12.634999999999996      37.904999999999994      57.759999999999998
   341   1      12.634999999999996      36.100000000000001      63.175000000000004
   342   1      12.634999999999996      37.904999999999994      61.370000000000005
   343   1      12.634999999999996      37.904999999999994       64.97999999999999
   344   1      12.634999999999996      39.710000000000001      34.295000000000002
   345   1      10.829999999999998      41.515000000000001      37.904999999999994
   346   1      12.634999999999996      39.710000000000001      37.904999999999994
   347   1      12.634999999999996      41.515000000000001      36.100000000000001
   348   1      10.829999999999998      39.710000000000001      39.710000000000001
   349   1      10.829999999999998      41.515000000000001      41.515000000000001
   350   1      12.634999999999996      39.710000000000001      41.515000000000001
   351   1      12.634999999999996      41.515000000000001      39.710000000000001
   352   1      10.829999999999998      39.710000000000001      43.319999999999993
   353   1      10.829999999999998      41.515000000000001                  45.125
   354   1      12.634999999999996      39.710000000000001                  45.125
   355   1      12.634999999999996      41.515000000000001      43.319999999999993
   356   1      10.829999999999998      39.710000000000001      46.929999999999993
   357   1      10.829999999999998      41.515000000000001      48.734999999999992
   358   1      12.634999999999996      39.710000000000001      48.734999999999992