model_files/PtAu/PtAu_30000/PtAu_553/PtAu_553_fcc_29881_temp.data (written by ASE) 

29881 	 atoms 
2  atom types
0.0                     131  xlo xhi
0.0                     131  ylo yhi
0.0                     131  zlo zhi


Atoms 

     1   1                       0      62.666499999999992      62.666499999999992
     2   1      2.0214999999999961      60.644999999999989      62.666499999999992
     3   1      2.0214999999999961      62.666499999999992      60.644999999999989
     4   1                       0      62.666499999999992      66.709500000000006
     5   1      2.0214999999999961      60.644999999999989      66.709500000000006
     6   1      2.0214999999999961      62.666499999999992      64.688000000000002
     7   1      2.0214999999999961      62.666499999999992      68.730999999999995
     8   1                       0      66.709500000000006      62.666499999999992
     9   1      2.0214999999999961      64.688000000000002      62.666499999999992
    10   1      2.0214999999999961      66.709500000000006      60.644999999999989
    11   1                       0      64.688000000000002      64.688000000000002
    12   1                       0      66.709500000000006      66.709500000000006
    13   1      2.0214999999999961      64.688000000000002      66.709500000000006
    14   1      2.0214999999999961      66.709500000000006      64.688000000000002
    15   1      2.0214999999999961      66.709500000000006      68.730999999999995
    16   1      2.0214999999999961      68.730999999999995      62.666499999999992
    17   1      2.0214999999999961      68.730999999999995      66.709500000000006
    18   1      4.0429999999999922      58.623499999999993      62.666499999999992
    19   1      6.0644999999999953       56.60199999999999      62.666499999999992
    20   1      6.0644999999999953      58.623499999999993      60.644999999999989
    21   1      4.0429999999999922      58.623499999999993      66.709500000000006
    22   1      6.0644999999999953       56.60199999999999      66.709500000000006
    23   1      6.0644999999999953      58.623499999999993      64.688000000000002
    24   1      6.0644999999999953      58.623499999999993      68.730999999999995
    25   1      4.0429999999999922      62.666499999999992      58.623499999999993
    26   1      6.0644999999999953      60.644999999999989      58.623499999999993
    27   1      6.0644999999999953      62.666499999999992       56.60199999999999
    28   1      4.0429999999999922      60.644999999999989      60.644999999999989
    29   1      4.0429999999999922      62.666499999999992      62.666499999999992
    30   1      6.0644999999999953      60.644999999999989      62.666499999999992
    31   1      6.0644999999999953      62.666499999999992      60.644999999999989
    32   1      4.0429999999999922      60.644999999999989      64.688000000000002
    33   1      4.0429999999999922      62.666499999999992      66.709500000000006
    34   1      6.0644999999999953      60.644999999999989      66.709500000000006
    35   1      6.0644999999999953      62.666499999999992      64.688000000000002
    36   1      4.0429999999999922      60.644999999999989      68.730999999999995
    37   1      4.0429999999999922      62.666499999999992      70.752499999999998
    38   1      6.0644999999999953      60.644999999999989      70.752499999999998
    39   1      6.0644999999999953      62.666499999999992      68.730999999999995
    40   1      6.0644999999999953      62.666499999999992      72.774000000000001
    41   1      4.0429999999999922      66.709500000000006      58.623499999999993
    42   1      6.0644999999999953      64.688000000000002      58.623499999999993
    43   1      6.0644999999999953      66.709500000000006       56.60199999999999
    44   1      4.0429999999999922      64.688000000000002      60.644999999999989
    45   1      4.0429999999999922      66.709500000000006      62.666499999999992
    46   1      6.0644999999999953      64.688000000000002      62.666499999999992
    47   1      6.0644999999999953      66.709500000000006      60.644999999999989
    48   1      4.0429999999999922      64.688000000000002      64.688000000000002
    49   1      4.0429999999999922      66.709500000000006      66.709500000000006
    50   1      6.0644999999999953      64.688000000000002      66.709500000000006
    51   1      6.0644999999999953      66.709500000000006      64.688000000000002
    52   1      4.0429999999999922      64.688000000000002      68.730999999999995
    53   1      4.0429999999999922      66.709500000000006      70.752499999999998
    54   1      6.0644999999999953      64.688000000000002      70.752499999999998
    55   1      6.0644999999999953      66.709500000000006      68.730999999999995
    56   1      6.0644999999999953      66.709500000000006      72.774000000000001
    57   1      6.0644999999999953      68.730999999999995      58.623499999999993
    58   1      4.0429999999999922      68.730999999999995      60.644999999999989
    59   1      4.0429999999999922      70.752499999999998      62.666499999999992
    60   1      6.0644999999999953      68.730999999999995      62.666499999999992
    61   1      6.0644999999999953      70.752499999999998      60.644999999999989
    62   1      4.0429999999999922      68.730999999999995      64.688000000000002
    63   1      4.0429999999999922      70.752499999999998      66.709500000000006
    64   1      6.0644999999999953      68.730999999999995      66.709500000000006
    65   1      6.0644999999999953      70.752499999999998      64.688000000000002
    66   1      4.0429999999999922      68.730999999999995      68.730999999999995
    67   1      6.0644999999999953      68.730999999999995      70.752499999999998
    68   1      6.0644999999999953      70.752499999999998      68.730999999999995
    69   1      6.0644999999999953      72.774000000000001      62.666499999999992
    70   1      6.0644999999999953      72.774000000000001      66.709500000000006
    71   1      8.0859999999999985      54.580499999999994      62.666499999999992
    72   1      10.107499999999995      52.558999999999997      62.666499999999992
    73   1      10.107499999999995      54.580499999999994      60.644999999999989
    74   1      8.0859999999999985      54.580499999999994      66.709500000000006
    75   1      10.107499999999995      52.558999999999997      66.709500000000006
    76   1      10.107499999999995      54.580499999999994      64.688000000000002
    77   1      10.107499999999995      54.580499999999994      68.730999999999995
    78   1      8.0859999999999985      58.623499999999993      58.623499999999993
    79   1      10.107499999999995       56.60199999999999      58.623499999999993
    80   1      10.107499999999995      58.623499999999993       56.60199999999999
    81   1      8.0859999999999985       56.60199999999999      60.644999999999989
    82   1      8.0859999999999985      58.623499999999993      62.666499999999992
    83   1      10.107499999999995       56.60199999999999      62.666499999999992
    84   1      10.107499999999995      58.623499999999993      60.644999999999989
    85   1      8.0859999999999985       56.60199999999999      64.688000000000002
    86   1      8.0859999999999985      58.623499999999993      66.709500000000006
    87   1      10.107499999999995       56.60199999999999      66.709500000000006
    88   1      10.107499999999995      58.623499999999993      64.688000000000002
    89   1      8.0859999999999985       56.60199999999999      68.730999999999995
    90   1      8.0859999999999985      58.623499999999993      70.752499999999998
    91   1      10.107499999999995       56.60199999999999      70.752499999999998
    92   1      10.107499999999995      58.623499999999993      68.730999999999995
    93   1      10.107499999999995      58.623499999999993      72.774000000000001
    94   1      8.0859999999999985      62.666499999999992      54.580499999999994
    95   1      10.107499999999995      60.644999999999989      54.580499999999994
    96   1      10.107499999999995      62.666499999999992      52.558999999999997
    97   1      8.0859999999999985      60.644999999999989       56.60199999999999
    98   1      8.0859999999999985      62.666499999999992      58.623499999999993
    99   1      10.107499999999995      60.644999999999989      58.623499999999993
   100   1      10.107499999999995      62.666499999999992       56.60199999999999
   101   1      8.0859999999999985      60.644999999999989      60.644999999999989
   102   1      8.0859999999999985      62.666499999999992      62.666499999999992
   103   1      10.107499999999995      60.644999999999989      62.666499999999992
   104   1      10.107499999999995      62.666499999999992      60.644999999999989
   105   1      8.0859999999999985      60.644999999999989      64.688000000000002
   106   1      8.0859999999999985      62.666499999999992      66.709500000000006
   107   1      10.107499999999995      60.644999999999989      66.709500000000006
   108   1      10.107499999999995      62.666499999999992      64.688000000000002
   109   1      8.0859999999999985      60.644999999999989      68.730999999999995
   110   1      8.0859999999999985      62.666499999999992      70.752499999999998
   111   1      10.107499999999995      60.644999999999989      70.752499999999998
   112   1      10.107499999999995      62.666499999999992      68.730999999999995
   113   1      8.0859999999999985      60.644999999999989      72.774000000000001
   114   1      8.0859999999999985      62.666499999999992      74.795500000000004
   115   1      10.107499999999995      60.644999999999989      74.795500000000004
   116   1      10.107499999999995      62.666499999999992      72.774000000000001
   117   1      10.107499999999995      62.666499999999992      76.816999999999993
   118   1      8.0859999999999985      66.709500000000006      54.580499999999994
   119   1      10.107499999999995      64.688000000000002      54.580499999999994
   120   1      10.107499999999995      66.709500000000006      52.558999999999997
   121   1      8.0859999999999985      64.688000000000002       56.60199999999999
   122   1      8.0859999999999985      66.709500000000006      58.623499999999993
   123   1      10.107499999999995      64.688000000000002      58.623499999999993
   124   1      10.107499999999995      66.709500000000006       56.60199999999999
   125   1      8.0859999999999985      64.688000000000002      60.644999999999989
   126   1      8.0859999999999985      66.709500000000006      62.666499999999992
   127   1      10.107499999999995      64.688000000000002      62.666499999999992
   128   1      10.107499999999995      66.709500000000006      60.644999999999989
   129   1      8.0859999999999985      64.688000000000002      64.688000000000002
   130   1      8.0859999999999985      66.709500000000006      66.709500000000006
   131   1      10.107499999999995      64.688000000000002      66.709500000000006
   132   1      10.107499999999995      66.709500000000006      64.688000000000002
   133   1      8.0859999999999985      64.688000000000002      68.730999999999995
   134   1      8.0859999999999985      66.709500000000006      70.752499999999998
   135   1      10.107499999999995      64.688000000000002      70.752499999999998
   136   1      10.107499999999995      66.709500000000006      68.730999999999995
   137   1      8.0859999999999985      64.688000000000002      72.774000000000001
   138   1      8.0859999999999985      66.709500000000006      74.795500000000004
   139   1      10.107499999999995      64.688000000000002      74.795500000000004
   140   1      10.107499999999995      66.709500000000006      72.774000000000001
   141   1      10.107499999999995      66.709500000000006      76.816999999999993
   142   1      10.107499999999995      68.730999999999995      54.580499999999994
   143   1      8.0859999999999985      68.730999999999995       56.60199999999999
   144   1      8.0859999999999985      70.752499999999998      58.623499999999993
   145   1      10.107499999999995      68.730999999999995      58.623499999999993
   146   1      10.107499999999995      70.752499999999998       56.60199999999999
   147   1      8.0859999999999985      68.730999999999995      60.644999999999989
   148   1      8.0859999999999985      70.752499999999998      62.666499999999992
   149   1      10.107499999999995      68.730999999999995      62.666499999999992
   150   1      10.107499999999995      70.752499999999998      60.644999999999989
   151   1      8.0859999999999985      68.730999999999995      64.688000000000002
   152   1      8.0859999999999985      70.752499999999998      66.709500000000006
   153   1      10.107499999999995      68.730999999999995      66.709500000000006
   154   1      10.107499999999995      70.752499999999998      64.688000000000002
   155   1      8.0859999999999985      68.730999999999995      68.730999999999995
   156   1      8.0859999999999985      70.752499999999998      70.752499999999998
   157   1      10.107499999999995      68.730999999999995      70.752499999999998
   158   1      10.107499999999995      70.752499999999998      68.730999999999995
   159   1      8.0859999999999985      68.730999999999995      72.774000000000001
   160   1      10.107499999999995      68.730999999999995      74.795500000000004
   161   1      10.107499999999995      70.752499999999998      72.774000000000001
   162   1      10.107499999999995      72.774000000000001      58.623499999999993
   163   1      8.0859999999999985      72.774000000000001      60.644999999999989
   164   1      8.0859999999999985      74.795500000000004      62.666499999999992
   165   1      10.107499999999995      72.774000000000001      62.666499999999992
   166   1      10.107499999999995      74.795500000000004      60.644999999999989
   167   1      8.0859999999999985      72.774000000000001      64.688000000000002
   168   1      8.0859999999999985      74.795500000000004      66.709500000000006
   169   1      10.107499999999995      72.774000000000001      66.709500000000006
   170   1      10.107499999999995      74.795500000000004      64.688000000000002
   171   1      8.0859999999999985      72.774000000000001      68.730999999999995
   172   1      10.107499999999995      72.774000000000001      70.752499999999998
   173   1      10.107499999999995      74.795500000000004      68.730999999999995
   174   1      10.107499999999995      76.816999999999993      62.666499999999992
   175   1      10.107499999999995      76.816999999999993      66.709500000000006
   176   1      12.128999999999991      50.537500000000001      62.666499999999992
   177   1      14.150499999999992      48.515999999999998      62.666499999999992
   178   1      14.150499999999992      50.537500000000001      60.644999999999989
   179   1      12.128999999999991      50.537500000000001      66.709500000000006
   180   1      14.150499999999992      48.515999999999998      66.709500000000006
   181   1      14.150499999999992      50.537500000000001      64.688000000000002
   182   1      14.150499999999992      50.537500000000001      68.730999999999995
   183   1      12.128999999999991      54.580499999999994      58.623499999999993
   184   1      14.150499999999992      52.558999999999997      58.623499999999993
   185   1      14.150499999999992      54.580499999999994       56.60199999999999
   186   1      12.128999999999991      52.558999999999997      60.644999999999989
   187   1      12.128999999999991      54.580499999999994      62.666499999999992
   188   1      14.150499999999992      52.558999999999997      62.666499999999992
   189   1      14.150499999999992      54.580499999999994      60.644999999999989
   190   1      12.128999999999991      52.558999999999997      64.688000000000002
   191   1      12.128999999999991      54.580499999999994      66.709500000000006
   192   1      14.150499999999992      52.558999999999997      66.709500000000006
   193   1      14.150499999999992      54.580499999999994      64.688000000000002
   194   1      12.128999999999991      52.558999999999997      68.730999999999995
   195   1      12.128999999999991      54.580499999999994      70.752499999999998
   196   1      14.150499999999992      52.558999999999997      70.752499999999998
   197   1      14.150499999999992      54.580499999999994      68.730999999999995
   198   1      14.150499999999992      54.580499999999994      72.774000000000001
   199   1      12.128999999999991      58.623499999999993      54.580499999999994
   200   1      14.150499999999992       56.60199999999999      54.580499999999994
   201   1      14.150499999999992      58.623499999999993      52.558999999999997
   202   1      12.128999999999991       56.60199999999999       56.60199999999999
   203   1      12.128999999999991      58.623499999999993      58.623499999999993
   204   1      14.150499999999992       56.60199999999999      58.623499999999993
   205   1      14.150499999999992      58.623499999999993       56.60199999999999
   206   1      12.128999999999991       56.60199999999999      60.644999999999989
   207   1      12.128999999999991      58.623499999999993      62.666499999999992
   208   1      14.150499999999992       56.60199999999999      62.666499999999992
   209   1      14.150499999999992      58.623499999999993      60.644999999999989
   210   1      12.128999999999991       56.60199999999999      64.688000000000002
   211   1      12.128999999999991      58.623499999999993      66.709500000000006
   212   1      14.150499999999992       56.60199999999999      66.709500000000006
   213   1      14.150499999999992      58.623499999999993      64.688000000000002
   214   1      12.128999999999991       56.60199999999999      68.730999999999995
   215   1      12.128999999999991      58.623499999999993      70.752499999999998
   216   1      14.150499999999992       56.60199999999999      70.752499999999998
   217   1      14.150499999999992      58.623499999999993      68.730999999999995
   218   1      12.128999999999991       56.60199999999999      72.774000000000001
   219   1      12.128999999999991      58.623499999999993      74.795500000000004
   220   1      14.150499999999992       56.60199999999999      74.795500000000004
   221   1      14.150499999999992      58.623499999999993      72.774000000000001
   222   1      14.150499999999992      58.623499999999993      76.816999999999993
   223   1      12.128999999999991      62.666499999999992      50.537500000000001
   224   1      14.150499999999992      60.644999999999989      50.537500000000001
   225   1      14.150499999999992      62.666499999999992      48.515999999999998
   226   1      12.128999999999991      60.644999999999989      52.558999999999997
   227   1      12.128999999999991      62.666499999999992      54.580499999999994
   228   1      14.150499999999992      60.644999999999989      54.580499999999994
   229   1      14.150499999999992      62.666499999999992      52.558999999999997
   230   1      12.128999999999991      60.644999999999989       56.60199999999999
   231   1      12.128999999999991      62.666499999999992      58.623499999999993
   232   1      14.150499999999992      60.644999999999989      58.623499999999993
   233   1      14.150499999999992      62.666499999999992       56.60199999999999
   234   1      12.128999999999991      60.644999999999989      60.644999999999989
   235   1      12.128999999999991      62.666499999999992      62.666499999999992
   236   1      14.150499999999992      60.644999999999989      62.666499999999992
   237   1      14.150499999999992      62.666499999999992      60.644999999999989
   238   1      12.128999999999991      60.644999999999989      64.688000000000002
   239   1      12.128999999999991      62.666499999999992      66.709500000000006
   240   1      14.150499999999992      60.644999999999989      66.709500000000006
   241   1      14.150499999999992      62.666499999999992      64.688000000000002
   242   1      12.128999999999991      60.644999999999989      68.730999999999995
   243   1      12.128999999999991      62.666499999999992      70.752499999999998
   244   1      14.150499999999992      60.644999999999989      70.752499999999998
   245   1      14.150499999999992      62.666499999999992      68.730999999999995
   246   1      12.128999999999991      60.644999999999989      72.774000000000001
   247   1      12.128999999999991      62.666499999999992      74.795500000000004
   248   1      14.150499999999992      60.644999999999989      74.795500000000004
   249   1      14.150499999999992      62.666499999999992      72.774000000000001
   250   1      12.128999999999991      60.644999999999989      76.816999999999993
   251   1      12.128999999999991      62.666499999999992      78.838499999999996
   252   1      14.150499999999992      60.644999999999989      78.838499999999996
   253   1      14.150499999999992      62.666499999999992      76.816999999999993
   254   1      14.150499999999992      62.666499999999992      80.859999999999999
   255   1      12.128999999999991      66.709500000000006      50.537500000000001
   256   1      14.150499999999992      64.688000000000002      50.537500000000001
   257   1      14.150499999999992      66.709500000000006      48.515999999999998
   258   1      12.128999999999991      64.688000000000002      52.558999999999997
   259   1      12.128999999999991      66.709500000000006      54.580499999999994
   260   1      14.150499999999992      64.688000000000002      54.580499999999994
   261   1      14.150499999999992      66.709500000000006      52.558999999999997
   262   1      12.128999999999991      64.688000000000002       56.60199999999999
   263   1      12.128999999999991      66.709500000000006      58.623499999999993
   264   1      14.150499999999992      64.688000000000002      58.623499999999993
   265   1      14.150499999999992      66.709500000000006       56.60199999999999
   266   1      12.128999999999991      64.688000000000002      60.644999999999989
   267   1      12.128999999999991      66.709500000000006      62.666499999999992
   268   1      14.150499999999992      64.688000000000002      62.666499999999992
   269   1      14.150499999999992      66.709500000000006      60.644999999999989
   270   1      12.128999999999991      64.688000000000002      64.688000000000002
   271   1      12.128999999999991      66.709500000000006      66.709500000000006
   272   1      14.150499999999992      64.688000000000002      66.709500000000006
   273   1      14.150499999999992      66.709500000000006      64.688000000000002
   274   1      12.128999999999991      64.688000000000002      68.730999999999995
   275   1      12.128999999999991      66.709500000000006      70.752499999999998
   276   1      14.150499999999992      64.688000000000002      70.752499999999998
   277   1      14.150499999999992      66.709500000000006      68.730999999999995
   278   1      12.128999999999991      64.688000000000002      72.774000000000001
   279   1      12.128999999999991      66.709500000000006      74.795500000000004
   280   1      14.150499999999992      64.688000000000002      74.795500000000004
   281   1      14.150499999999992      66.709500000000006      72.774000000000001
   282   1      12.128999999999991      64.688000000000002      76.816999999999993
   283   1      12.128999999999991      66.709500000000006      78.838499999999996
   284   1      14.150499999999992      64.688000000000002      78.838499999999996
   285   1      14.150499999999992      66.709500000000006      76.816999999999993
   286   1      14.150499999999992      66.709500000000006      80.859999999999999
   287   1      14.150499999999992      68.730999999999995      50.537500000000001
   288   1      12.128999999999991      68.730999999999995      52.558999999999997
   289   1      12.128999999999991      70.752499999999998      54.580499999999994
   290   1      14.150499999999992      68.730999999999995      54.580499999999994
   291   1      14.150499999999992      70.752499999999998      52.558999999999997
   292   1      12.128999999999991      68.730999999999995       56.60199999999999
   293   1      12.128999999999991      70.752499999999998      58.623499999999993
   294   1      14.150499999999992      68.730999999999995      58.623499999999993
   295   1      14.150499999999992      70.752499999999998       56.60199999999999
   296   1      12.128999999999991      68.730999999999995      60.644999999999989
   297   1      12.128999999999991      70.752499999999998      62.666499999999992
   298   1      14.150499999999992      68.730999999999995      62.666499999999992
   299   1      14.150499999999992      70.752499999999998      60.644999999999989
   300   1      12.128999999999991      68.730999999999995      64.688000000000002
   301   1      12.128999999999991      70.752499999999998      66.709500000000006
   302   1      14.150499999999992      68.730999999999995      66.709500000000006
   303   1      14.150499999999992      70.752499999999998      64.688000000000002
   304   1      12.128999999999991      68.730999999999995      68.730999999999995
   305   1      12.128999999999991      70.752499999999998      70.752499999999998
   306   1      14.150499999999992      68.730999999999995      70.752499999999998
   307   1      14.150499999999992      70.752499999999998      68.730999999999995
   308   1      12.128999999999991      68.730999999999995      72.774000000000001
   309   1      12.128999999999991      70.752499999999998      74.795500000000004
   310   1      14.150499999999992      68.730999999999995      74.795500000000004
   311   1      14.150499999999992      70.752499999999998      72.774000000000001
   312   1      12.128999999999991      68.730999999999995      76.816999999999993
   313   1      14.150499999999992      68.730999999999995      78.838499999999996
   314   1      14.150499999999992      70.752499999999998      76.816999999999993
   315   1      14.150499999999992      72.774000000000001      54.580499999999994
   316   1      12.128999999999991      72.774000000000001       56.60199999999999
   317   1      12.128999999999991      74.795500000000004      58.623499999999993
   318   1      14.150499999999992      72.774000000000001      58.623499999999993
   319   1      14.150499999999992      74.795500000000004       56.60199999999999
   320   1      12.128999999999991      72.774000000000001      60.644999999999989
   321   1      12.128999999999991      74.795500000000004      62.666499999999992
   322   1      14.150499999999992      72.774000000000001      62.666499999999992
   323   1      14.150499999999992      74.795500000000004      60.644999999999989
   324   1      12.128999999999991      72.774000000000001      64.688000000000002
   325   1      12.128999999999991      74.795500000000004      66.709500000000006
   326   1      14.150499999999992      72.774000000000001      66.709500000000006
   327   1      14.150499999999992      74.795500000000004      64.688000000000002
   328   1      12.128999999999991      72.774000000000001      68.730999999999995
   329   1      12.128999999999991      74.795500000000004      70.752499999999998
   330   1      14.150499999999992      72.774000000000001      70.752499999999998
   331   1      14.150499999999992      74.795500000000004      68.730999999999995
   332   1      12.128999999999991      72.774000000000001      72.774000000000001
   333   1      14.150499999999992      72.774000000000001      74.795500000000004
   334   1      14.150499999999992      74.795500000000004      72.774000000000001
   335   1      14.150499999999992      76.816999999999993      58.623499999999993
   336   1      12.128999999999991      76.816999999999993      60.644999999999989
   337   1      12.128999999999991      78.838499999999996      62.666499999999992
   338   1      14.150499999999992      76.816999999999993      62.666499999999992
   339   1      14.150499999999992      78.838499999999996      60.644999999999989
   340   1      12.128999999999991      76.816999999999993      64.688000000000002
   341   1      12.128999999999991      78.838499999999996      66.709500000000006
   342   1      14.150499999999992      76.816999999999993      66.709500000000006
   343   1      14.150499999999992      78.838499999999996      64.688000000000002
   344   1      12.128999999999991      76.816999999999993      68.730999999999995
   345   1      14.150499999999992      76.816999999999993      70.752499999999998
   346   1      14.150499999999992      78.838499999999996      68.730999999999995
   347   1      14.150499999999992      80.859999999999999      62.666499999999992
   348   1      14.150499999999992      80.859999999999999      66.709500000000006
   349   1      16.171999999999997      46.494500000000002      62.666499999999992
   350   1      18.193499999999993      44.472999999999999      62.666499999999992
   351   1      18.193499999999993      46.494500000000002      60.644999999999989
   352   1      16.171999999999997      46.494500000000002      66.709500000000006
   353   1      18.193499999999993      44.472999999999999      66.709500000000006
   354   1      18.193499999999993      46.494500000000002      64.688000000000002
   355   1      18.193499999999993      46.494500000000002      68.730999999999995
   356   1      18.193499999999993      50.537500000000001      52.558999999999997
   357   1      16.171999999999997      50.537500000000001      58.623499999999993
   358   1      18.193499999999993      48.515999999999998      58.623499999999993