LAMMPS data file via write_data, version 30 Nov 2020, timestep = 0

30069 atoms
5 atom types

0 100 xlo xhi
0 100 ylo yhi
0 100 zlo zhi

Masses

1 58.69
2 58.933
3 51.96
4 55.847
5 54.94

Atoms # atomic

7 5 3.594999999999999 44.9375 48.532500000000006 0 0 0
8 5 5.392500000000005 43.14 48.532500000000006 0 0 0
9 3 5.392500000000005 44.9375 46.73500000000001 0 0 0
15 1 3.594999999999999 48.532500000000006 44.9375 0 0 0
16 5 5.392500000000005 46.73500000000001 44.9375 0 0 0
17 2 5.392500000000005 48.532500000000006 43.14 0 0 0
18 4 3.594999999999999 46.73500000000001 46.73500000000001 0 0 0
19 4 3.594999999999999 48.532500000000006 48.532500000000006 0 0 0
20 3 5.392500000000005 46.73500000000001 48.532500000000006 0 0 0
21 2 5.392500000000005 48.532500000000006 46.73500000000001 0 0 0
68 3 7.190000000000005 37.7475 48.532500000000006 0 0 0
69 2 8.987500000000004 35.95 48.532500000000006 0 0 0
70 5 8.987500000000004 37.7475 46.73500000000001 0 0 0
76 1 7.190000000000005 41.3425 44.9375 0 0 0
77 4 8.987500000000004 39.545 44.9375 0 0 0
78 4 8.987500000000004 41.3425 43.14 0 0 0
79 1 7.190000000000005 39.545 46.73500000000001 0 0 0
80 5 7.190000000000005 41.3425 48.532500000000006 0 0 0
81 1 8.987500000000004 39.545 48.532500000000006 0 0 0
82 1 8.987500000000004 41.3425 46.73500000000001 0 0 0
92 5 7.190000000000005 44.9375 41.3425 0 0 0
93 5 8.987500000000004 43.14 41.3425 0 0 0
94 2 8.987500000000004 44.9375 39.545 0 0 0
95 2 7.190000000000005 43.14 43.14 0 0 0
96 4 7.190000000000005 44.9375 44.9375 0 0 0
97 2 8.987500000000004 43.14 44.9375 0 0 0
98 1 8.987500000000004 44.9375 43.14 0 0 0
99 3 7.190000000000005 43.14 46.73500000000001 0 0 0
100 4 7.190000000000005 44.9375 48.532500000000006 0 0 0
101 5 8.987500000000004 43.14 48.532500000000006 0 0 0
102 5 8.987500000000004 44.9375 46.73500000000001 0 0 0
116 2 7.190000000000005 48.532500000000006 37.7475 0 0 0
117 4 8.987500000000004 46.73500000000001 37.7475 0 0 0
118 2 8.987500000000004 48.532500000000006 35.95 0 0 0
119 3 7.190000000000005 46.73500000000001 39.545 0 0 0
120 1 7.190000000000005 48.532500000000006 41.3425 0 0 0
121 1 8.987500000000004 46.73500000000001 41.3425 0 0 0
122 4 8.987500000000004 48.532500000000006 39.545 0 0 0
123 3 7.190000000000005 46.73500000000001 43.14 0 0 0
124 4 7.190000000000005 48.532500000000006 44.9375 0 0 0
125 1 8.987500000000004 46.73500000000001 44.9375 0 0 0
126 4 8.987500000000004 48.532500000000006 43.14 0 0 0
127 5 7.190000000000005 46.73500000000001 46.73500000000001 0 0 0
128 1 7.190000000000005 48.532500000000006 48.532500000000006 0 0 0
129 4 8.987500000000004 46.73500000000001 48.532500000000006 0 0 0
130 3 8.987500000000004 48.532500000000006 46.73500000000001 0 0 0
249 1 10.785000000000004 30.557500000000005 48.532500000000006 0 0 0
250 5 12.582500000000001 28.76000000000001 48.532500000000006 0 0 0
251 4 12.582500000000001 30.557500000000005 46.73500000000001 0 0 0
257 4 10.785000000000004 34.1525 44.9375 0 0 0
258 2 12.582500000000001 32.355000000000004 44.9375 0 0 0
259 4 12.582500000000001 34.1525 43.14 0 0 0
260 5 10.785000000000004 32.355000000000004 46.73500000000001 0 0 0
261 5 10.785000000000004 34.1525 48.532500000000006 0 0 0
262 5 12.582500000000001 32.355000000000004 48.532500000000006 0 0 0
263 4 12.582500000000001 34.1525 46.73500000000001 0 0 0
273 4 10.785000000000004 37.7475 41.3425 0 0 0
274 3 12.582500000000001 35.95 41.3425 0 0 0
275 5 12.582500000000001 37.7475 39.545 0 0 0
276 5 10.785000000000004 35.95 43.14 0 0 0
277 2 10.785000000000004 37.7475 44.9375 0 0 0
278 4 12.582500000000001 35.95 44.9375 0 0 0
279 3 12.582500000000001 37.7475 43.14 0 0 0
280 2 10.785000000000004 35.95 46.73500000000001 0 0 0
281 3 10.785000000000004 37.7475 48.532500000000006 0 0 0
282 1 12.582500000000001 35.95 48.532500000000006 0 0 0
283 2 12.582500000000001 37.7475 46.73500000000001 0 0 0
297 2 10.785000000000004 41.3425 37.7475 0 0 0
298 4 12.582500000000001 39.545 37.7475 0 0 0
299 4 12.582500000000001 41.3425 35.95 0 0 0
300 5 10.785000000000004 39.545 39.545 0 0 0
301 5 10.785000000000004 41.3425 41.3425 0 0 0
302 5 12.582500000000001 39.545 41.3425 0 0 0
303 4 12.582500000000001 41.3425 39.545 0 0 0
304 4 10.785000000000004 39.545 43.14 0 0 0
305 5 10.785000000000004 41.3425 44.9375 0 0 0
306 2 12.582500000000001 39.545 44.9375 0 0 0
307 2 12.582500000000001 41.3425 43.14 0 0 0
308 3 10.785000000000004 39.545 46.73500000000001 0 0 0
309 2 10.785000000000004 41.3425 48.532500000000006 0 0 0
310 1 12.582500000000001 39.545 48.532500000000006 0 0 0
311 5 12.582500000000001 41.3425 46.73500000000001 0 0 0
329 1 10.785000000000004 44.9375 34.1525 0 0 0
330 4 12.582500000000001 43.14 34.1525 0 0 0
331 4 12.582500000000001 44.9375 32.355000000000004 0 0 0
332 5 10.785000000000004 43.14 35.95 0 0 0
333 5 10.785000000000004 44.9375 37.7475 0 0 0
334 1 12.582500000000001 43.14 37.7475 0 0 0
335 1 12.582500000000001 44.9375 35.95 0 0 0
336 4 10.785000000000004 43.14 39.545 0 0 0
337 4 10.785000000000004 44.9375 41.3425 0 0 0
338 2 12.582500000000001 43.14 41.3425 0 0 0
339 1 12.582500000000001 44.9375 39.545 0 0 0
340 4 10.785000000000004 43.14 43.14 0 0 0
341 2 10.785000000000004 44.9375 44.9375 0 0 0
342 4 12.582500000000001 43.14 44.9375 0 0 0
343 4 12.582500000000001 44.9375 43.14 0 0 0
344 4 10.785000000000004 43.14 46.73500000000001 0 0 0
345 5 10.785000000000004 44.9375 48.532500000000006 0 0 0
346 4 12.582500000000001 43.14 48.532500000000006 0 0 0
347 1 12.582500000000001 44.9375 46.73500000000001 0 0 0
369 5 10.785000000000004 48.532500000000006 30.557500000000005 0 0 0
370 1 12.582500000000001 46.73500000000001 30.557500000000005 0 0 0
371 4 12.582500000000001 48.532500000000006 28.76000000000001 0 0 0
372 5 10.785000000000004 46.73500000000001 32.355000000000004 0 0 0
373 3 10.785000000000004 48.532500000000006 34.1525 0 0 0
374 1 12.582500000000001 46.73500000000001 34.1525 0 0 0
375 1 12.582500000000001 48.532500000000006 32.355000000000004 0 0 0
376 5 10.785000000000004 46.73500000000001 35.95 0 0 0
377 3 10.785000000000004 48.532500000000006 37.7475 0 0 0
378 2 12.582500000000001 46.73500000000001 37.7475 0 0 0
379 5 12.582500000000001 48.532500000000006 35.95 0 0 0
380 2 10.785000000000004 46.73500000000001 39.545 0 0 0
381 2 10.785000000000004 48.532500000000006 41.3425 0 0 0
382 1 12.582500000000001 46.73500000000001 41.3425 0 0 0
383 1 12.582500000000001 48.532500000000006 39.545 0 0 0
384 1 10.785000000000004 46.73500000000001 43.14 0 0 0
385 3 10.785000000000004 48.532500000000006 44.9375 0 0 0
386 2 12.582500000000001 46.73500000000001 44.9375 0 0 0
387 5 12.582500000000001 48.532500000000006 43.14 0 0 0
388 4 10.785000000000004 46.73500000000001 46.73500000000001 0 0 0
389 5 10.785000000000004 48.532500000000006 48.532500000000006 0 0 0
390 3 12.582500000000001 46.73500000000001 48.532500000000006 0 0 0
391 3 12.582500000000001 48.532500000000006 46.73500000000001 0 0 0
614 1 14.380000000000004 23.367500000000003 48.532500000000006 0 0 0
615 5 16.177500000000002 21.570000000000004 48.532500000000006 0 0 0
616 5 16.177500000000002 23.367500000000003 46.73500000000001 0 0 0
622 2 14.380000000000004 26.9625 44.9375 0 0 0
623 1 16.177500000000002 25.165000000000003 44.9375 0 0 0
624 5 16.177500000000002 26.9625 43.14 0 0 0
625 5 14.380000000000004 25.165000000000003 46.73500000000001 0 0 0
626 4 14.380000000000004 26.9625 48.532500000000006 0 0 0
627 2 16.177500000000002 25.165000000000003 48.532500000000006 0 0 0
628 2 16.177500000000002 26.9625 46.73500000000001 0 0 0
638 5 14.380000000000004 30.557500000000005 41.3425 0 0 0
639 5 16.177500000000002 28.76000000000001 41.3425 0 0 0
640 1 16.177500000000002 30.557500000000005 39.545 0 0 0
641 4 14.380000000000004 28.76000000000001 43.14 0 0 0
642 2 14.380000000000004 30.557500000000005 44.9375 0 0 0
643 5 16.177500000000002 28.76000000000001 44.9375 0 0 0
644 1 16.177500000000002 30.557500000000005 43.14 0 0 0
645 5 14.380000000000004 28.76000000000001 46.73500000000001 0 0 0
646 2 14.380000000000004 30.557500000000005 48.532500000000006 0 0 0
647 3 16.177500000000002 28.76000000000001 48.532500000000006 0 0 0
648 3 16.177500000000002 30.557500000000005 46.73500000000001 0 0 0
662 5 14.380000000000004 34.1525 37.7475 0 0 0
663 5 16.177500000000002 32.355000000000004 37.7475 0 0 0
664 4 16.177500000000002 34.1525 35.95 0 0 0
665 4 14.380000000000004 32.355000000000004 39.545 0 0 0
666 1 14.380000000000004 34.1525 41.3425 0 0 0
667 5 16.177500000000002 32.355000000000004 41.3425 0 0 0
668 1 16.177500000000002 34.1525 39.545 0 0 0
669 2 14.380000000000004 32.355000000000004 43.14 0 0 0
670 1 14.380000000000004 34.1525 44.9375 0 0 0
671 1 16.177500000000002 32.355000000000004 44.9375 0 0 0
672 3 16.177500000000002 34.1525 43.14 0 0 0
673 4 14.380000000000004 32.355000000000004 46.73500000000001 0 0 0
674 2 14.380000000000004 34.1525 48.532500000000006 0 0 0
675 4 16.177500000000002 32.355000000000004 48.532500000000006 0 0 0
676 5 16.177500000000002 34.1525 46.73500000000001 0 0 0
694 2 14.380000000000004 37.7475 34.1525 0 0 0
695 2 16.177500000000002 35.95 34.1525 0 0 0
696 4 16.177500000000002 37.7475 32.355000000000004 0 0 0
697 3 14.380000000000004 35.95 35.95 0 0 0
698 5 14.380000000000004 37.7475 37.7475 0 0 0
699 4 16.177500000000002 35.95 37.7475 0 0 0
700 2 16.177500000000002 37.7475 35.95 0 0 0
701 4 14.380000000000004 35.95 39.545 0 0 0
702 2 14.380000000000004 37.7475 41.3425 0 0 0
703 2 16.177500000000002 35.95 41.3425 0 0 0
704 4 16.177500000000002 37.7475 39.545 0 0 0
705 1 14.380000000000004 35.95 43.14 0 0 0
706 2 14.380000000000004 37.7475 44.9375 0 0 0
707 4 16.177500000000002 35.95 44.9375 0 0 0
708 2 16.177500000000002 37.7475 43.14 0 0 0
709 2 14.380000000000004 35.95 46.73500000000001 0 0 0
710 4 14.380000000000004 37.7475 48.532500000000006 0 0 0
711 3 16.177500000000002 35.95 48.532500000000006 0 0 0
712 2 16.177500000000002 37.7475 46.73500000000001 0 0 0
734 1 14.380000000000004 41.3425 30.557500000000005 0 0 0
735 1 16.177500000000002 39.545 30.557500000000005 0 0 0
736 2 16.177500000000002 41.3425 28.76000000000001 0 0 0
737 5 14.380000000000004 39.545 32.355000000000004 0 0 0
738 4 14.380000000000004 41.3425 34.1525 0 0 0
739 5 16.177500000000002 39.545 34.1525 0 0 0
740 2 16.177500000000002 41.3425 32.355000000000004 0 0 0
741 3 14.380000000000004 39.545 35.95 0 0 0
742 5 14.380000000000004 41.3425 37.7475 0 0 0
743 5 16.177500000000002 39.545 37.7475 0 0 0
744 5 16.177500000000002 41.3425 35.95 0 0 0
745 5 14.380000000000004 39.545 39.545 0 0 0
746 3 14.380000000000004 41.3425 41.3425 0 0 0
747 1 16.177500000000002 39.545 41.3425 0 0 0
748 5 16.177500000000002 41.3425 39.545 0 0 0
749 4 14.380000000000004 39.545 43.14 0 0 0
750 3 14.380000000000004 41.3425 44.9375 0 0 0
751 3 16.177500000000002 39.545 44.9375 0 0 0
752 4 16.177500000000002 41.3425 43.14 0 0 0
753 3 14.380000000000004 39.545 46.73500000000001 0 0 0
754 4 14.380000000000004 41.3425 48.532500000000006 0 0 0
755 5 16.177500000000002 39.545 48.532500000000006 0 0 0
756 5 16.177500000000002 41.3425 46.73500000000001 0 0 0
782 2 14.380000000000004 44.9375 26.9625 0 0 0
783 1 16.177500000000002 43.14 26.9625 0 0 0
784 2 16.177500000000002 44.9375 25.165000000000003 0 0 0
785 5 14.380000000000004 43.14 28.76000000000001 0 0 0
786 1 14.380000000000004 44.9375 30.557500000000005 0 0 0
787 1 16.177500000000002 43.14 30.557500000000005 0 0 0
788 5 16.177500000000002 44.9375 28.76000000000001 0 0 0
789 1 14.380000000000004 43.14 32.355000000000004 0 0 0
790 2 14.380000000000004 44.9375 34.1525 0 0 0
791 3 16.177500000000002 43.14 34.1525 0 0 0
792 4 16.177500000000002 44.9375 32.355000000000004 0 0 0
793 2 14.380000000000004 43.14 35.95 0 0 0
794 2 14.380000000000004 44.9375 37.7475 0 0 0
795 1 16.177500000000002 43.14 37.7475 0 0 0
796 1 16.177500000000002 44.9375 35.95 0 0 0
797 1 14.380000000000004 43.14 39.545 0 0 0
798 5 14.380000000000004 44.9375 41.3425 0 0 0
799 5 16.177500000000002 43.14 41.3425 0 0 0
800 4 16.177500000000002 44.9375 39.545 0 0 0
801 3 14.380000000000004 43.14 43.14 0 0 0
802 1 14.380000000000004 44.9375 44.9375 0 0 0
803 3 16.177500000000002 43.14 44.9375 0 0 0
804 5 16.177500000000002 44.9375 43.14 0 0 0
805 4 14.380000000000004 43.14 46.73500000000001 0 0 0
806 2 14.380000000000004 44.9375 48.532500000000006 0 0 0
807 4 16.177500000000002 43.14 48.532500000000006 0 0 0
808 3 16.177500000000002 44.9375 46.73500000000001 0 0 0
838 1 14.380000000000004 48.532500000000006 23.367500000000003 0 0 0
839 5 16.177500000000002 46.73500000000001 23.367500000000003 0 0 0
840 5 16.177500000000002 48.532500000000006 21.570000000000004 0 0 0
841 5 14.380000000000004 46.73500000000001 25.165000000000003 0 0 0
842 5 14.380000000000004 48.532500000000006 26.9625 0 0 0
843 3 16.177500000000002 46.73500000000001 26.9625 0 0 0
844 1 16.177500000000002 48.532500000000006 25.165000000000003 0 0 0
845 1 14.380000000000004 46.73500000000001 28.76000000000001 0 0 0
846 3 14.380000000000004 48.532500000000006 30.557500000000005 0 0 0
847 2 16.177500000000002 46.73500000000001 30.557500000000005 0 0 0
848 3 16.177500000000002 48.532500000000006 28.76000000000001 0 0 0
849 4 14.380000000000004 46.73500000000001 32.355000000000004 0 0 0
850 4 14.380000000000004 48.532500000000006 34.1525 0 0 0
851 1 16.177500000000002 46.73500000000001 34.1525 0 0 0
852 3 16.177500000000002 48.532500000000006 32.355000000000004 0 0 0
853 4 14.380000000000004 46.73500000000001 35.95 0 0 0
854 1 14.380000000000004 48.532500000000006 37.7475 0 0 0
855 4 16.177500000000002 46.73500000000001 37.7475 0 0 0
856 4 16.177500000000002 48.532500000000006 35.95 0 0 0
857 2 14.380000000000004 46.73500000000001 39.545 0 0 0
858 3 14.380000000000004 48.532500000000006 41.3425 0 0 0
859 3 16.177500000000002 46.73500000000001 41.3425 0 0 0
860 1 16.177500000000002 48.532500000000006 39.545 0 0 0
861 5 14.380000000000004 46.73500000000001 43.14 0 0 0
862 2 14.380000000000004 48.532500000000006 44.9375 0 0 0
863 3 16.177500000000002 46.73500000000001 44.9375 0 0 0
864 4 16.177500000000002 48.532500000000006 43.14 0 0 0
865 3 14.380000000000004 46.73500000000001 46.73500000000001 0 0 0
866 1 14.380000000000004 48.532500000000006 48.532500000000006 0 0 0
867 5 16.177500000000002 46.73500000000001 48.532500000000006 0 0 0
868 2 16.177500000000002 48.532500000000006 46.73500000000001 0 0 0
1227 3 17.975 19.7725 44.9375 0 0 0
1228 2 19.7725 17.975 44.9375 0 0 0
1229 4 19.7725 19.7725 43.14 0 0 0
1230 1 17.975 17.975 46.73500000000001 0 0 0
1231 2 17.975 19.7725 48.532500000000006 0 0 0
1232 4 19.7725 17.975 48.532500000000006 0 0 0
1233 1 19.7725 19.7725 46.73500000000001 0 0 0
1243 3 17.975 23.367500000000003 41.3425 0 0 0
1244 2 19.7725 21.570000000000004 41.3425 0 0 0
1245 5 19.7725 23.367500000000003 39.545 0 0 0
1246 4 17.975 21.570000000000004 43.14 0 0 0
1247 5 17.975 23.367500000000003 44.9375 0 0 0
1248 4 19.7725 21.570000000000004 44.9375 0 0 0
1249 2 19.7725 23.367500000000003 43.14 0 0 0
1250 4 17.975 21.570000000000004 46.73500000000001 0 0 0
1251 2 17.975 23.367500000000003 48.532500000000006 0 0 0
1252 1 19.7725 21.570000000000004 48.532500000000006 0 0 0
1253 4 19.7725 23.367500000000003 46.73500000000001 0 0 0
1267 5 17.975 26.9625 37.7475 0 0 0
1268 5 19.7725 25.165000000000003 37.7475 0 0 0
1269 1 19.7725 26.9625 35.95 0 0 0
1270 4 17.975 25.165000000000003 39.545 0 0 0
1271 1 17.975 26.9625 41.3425 0 0 0
1272 4 19.7725 25.165000000000003 41.3425 0 0 0
1273 5 19.7725 26.9625 39.545 0 0 0
1274 5 17.975 25.165000000000003 43.14 0 0 0
1275 1 17.975 26.9625 44.9375 0 0 0
1276 1 19.7725 25.165000000000003 44.9375 0 0 0
1277 4 19.7725 26.9625 43.14 0 0 0
1278 1 17.975 25.165000000000003 46.73500000000001 0 0 0
1279 2 17.975 26.9625 48.532500000000006 0 0 0
1280 3 19.7725 25.165000000000003 48.532500000000006 0 0 0
1281 5 19.7725 26.9625 46.73500000000001 0 0 0
1299 2 17.975 30.557500000000005 34.1525 0 0 0
1300 1 19.7725 28.76000000000001 34.1525 0 0 0
1301 3 19.7725 30.557500000000005 32.355000000000004 0 0 0
1302 2 17.975 28.76000000000001 35.95 0 0 0
1303 1 17.975 30.557500000000005 37.7475 0 0 0
1304 4 19.7725 28.76000000000001 37.7475 0 0 0
1305 2 19.7725 30.557500000000005 35.95 0 0 0
1306 2 17.975 28.76000000000001 39.545 0 0 0
1307 5 17.975 30.557500000000005 41.3425 0 0 0
1308 2 19.7725 28.76000000000001 41.3425 0 0 0
1309 5 19.7725 30.557500000000005 39.545 0 0 0
1310 4 17.975 28.76000000000001 43.14 0 0 0
1311 1 17.975 30.557500000000005 44.9375 0 0 0
1312 3 19.7725 28.76000000000001 44.9375 0 0 0
1313 3 19.7725 30.557500000000005 43.14 0 0 0
1314 4 17.975 28.76000000000001 46.73500000000001 0 0 0
1315 3 17.975 30.557500000000005 48.532500000000006 0 0 0
1316 4 19.7725 28.76000000000001 48.532500000000006 0 0 0
1317 4 19.7725 30.557500000000005 46.73500000000001 0 0 0
1339 1 17.975 34.1525 30.557500000000005 0 0 0
1340 2 19.7725 32.355000000000004 30.557500000000005 0 0 0
1341 5 19.7725 34.1525 28.76000000000001 0 0 0
1342 1 17.975 32.355000000000004 32.355000000000004 0 0 0
1343 1 17.975 34.1525 34.1525 0 0 0
1344 3 19.7725 32.355000000000004 34.1525 0 0 0
1345 2 19.7725 34.1525 32.355000000000004 0 0 0
1346 2 17.975 32.355000000000004 35.95 0 0 0
1347 5 17.975 34.1525 37.7475 0 0 0
1348 3 19.7725 32.355000000000004 37.7475 0 0 0
1349 3 19.7725 34.1525 35.95 0 0 0
1350 1 17.975 32.355000000000004 39.545 0 0 0
1351 5 17.975 34.1525 41.3425 0 0 0
1352 2 19.7725 32.355000000000004 41.3425 0 0 0
1353 1 19.7725 34.1525 39.545 0 0 0
1354 5 17.975 32.355000000000004 43.14 0 0 0
1355 1 17.975 34.1525 44.9375 0 0 0
1356 4 19.7725 32.355000000000004 44.9375 0 0 0
1357 2 19.7725 34.1525 43.14 0 0 0
1358 5 17.975 32.355000000000004 46.73500000000001 0 0 0
1359 5 17.975 34.1525 48.532500000000006 0 0 0
1360 1 19.7725 32.355000000000004 48.532500000000006 0 0 0
1361 5 19.7725 34.1525 46.73500000000001 0 0 0
1387 3 17.975 37.7475 26.9625 0 0 0
1388 1 19.7725 35.95 26.9625 0 0 0
1389 4 19.7725 37.7475 25.165000000000003 0 0 0
1390 4 17.975 35.95 28.76000000000001 0 0 0
1391 5 17.975 37.7475 30.557500000000005 0 0 0
1392 4 19.7725 35.95 30.557500000000005 0 0 0
1393 3 19.7725 37.7475 28.76000000000001 0 0 0
1394 1 17.975 35.95 32.355000000000004 0 0 0
1395 2 17.975 37.7475 34.1525 0 0 0
1396 5 19.7725 35.95 34.1525 0 0 0
1397 2 19.7725 37.7475 32.355000000000004 0 0 0
1398 2 17.975 35.95 35.95 0 0 0
1399 3 17.975 37.7475 37.7475 0 0 0
1400 2 19.7725 35.95 37.7475 0 0 0
1401 2 19.7725 37.7475 35.95 0 0 0
1402 3 17.975 35.95 39.545 0 0 0
1403 2 17.975 37.7475 41.3425 0 0 0
1404 2 19.7725 35.95 41.3425 0 0 0
1405 3 19.7725 37.7475 39.545 0 0 0
1406 4 17.975 35.95 43.14 0 0 0
1407 2 17.975 37.7475 44.9375 0 0 0
1408 4 19.7725 35.95 44.9375 0 0 0
1409 4 19.7725 37.7475 43.14 0 0 0
1410 2 17.975 35.95 46.73500000000001 0 0 0
1411 4 17.975 37.7475 48.532500000000006 0 0 0
1412 5 19.7725 35.95 48.532500000000006 0 0 0
1413 3 19.7725 37.7475 46.73500000000001 0 0 0
1443 2 17.975 41.3425 23.367500000000003 0 0 0
1444 2 19.7725 39.545 23.367500000000003 0 0 0
1445 1 19.7725 41.3425 21.570000000000004 0 0 0
1446 1 17.975 39.545 25.165000000000003 0 0 0
1447 2 17.975 41.3425 26.9625 0 0 0
1448 1 19.7725 39.545 26.9625 0 0 0
1449 4 19.7725 41.3425 25.165000000000003 0 0 0
1450 3 17.975 39.545 28.76000000000001 0 0 0
1451 4 17.975 41.3425 30.557500000000005 0 0 0
1452 2 19.7725 39.545 30.557500000000005 0 0 0
1453 2 19.7725 41.3425 28.76000000000001 0 0 0
1454 5 17.975 39.545 32.355000000000004 0 0 0
1455 5 17.975 41.3425 34.1525 0 0 0
1456 1 19.7725 39.545 34.1525 0 0 0
1457 3 19.7725 41.3425 32.355000000000004 0 0 0
1458 4 17.975 39.545 35.95 0 0 0
1459 1 17.975 41.3425 37.7475 0 0 0
1460 3 19.7725 39.545 37.7475 0 0 0
1461 4 19.7725 41.3425 35.95 0 0 0
1462 1 17.975 39.545 39.545 0 0 0
1463 5 17.975 41.3425 41.3425 0 0 0
1464 3 19.7725 39.545 41.3425 0 0 0
1465 2 19.7725 41.3425 39.545 0 0 0
1466 4 17.975 39.545 43.14 0 0 0
1467 5 17.975 41.3425 44.9375 0 0 0
1468 5 19.7725 39.545 44.9375 0 0 0
1469 4 19.7725 41.3425 43.14 0 0 0
1470 2 17.975 39.545 46.73500000000001 0 0 0
1471 5 17.975 41.3425 48.532500000000006 0 0 0
1472 2 19.7725 39.545 48.532500000000006 0 0 0
1473 1 19.7725 41.3425 46.73500000000001 0 0 0
1507 2 17.975 44.9375 19.7725 0 0 0
1508 2 19.7725 43.14 19.7725 0 0 0
1509 1 19.7725 44.9375 17.975 0 0 0
1510 2 17.975 43.14 21.570000000000004 0 0 0
1511 5 17.975 44.9375 23.367500000000003 0 0 0
1512 1 19.7725 43.14 23.367500000000003 0 0 0
1513 3 19.7725 44.9375 21.570000000000004 0 0 0
1514 1 17.975 43.14 25.165000000000003 0 0 0
1515 2 17.975 44.9375 26.9625 0 0 0
1516 4 19.7725 43.14 26.9625 0 0 0
1517 3 19.7725 44.9375 25.165000000000003 0 0 0
1518 4 17.975 43.14 28.76000000000001 0 0 0
1519 1 17.975 44.9375 30.557500000000005 0 0 0
1520 4 19.7725 43.14 30.557500000000005 0 0 0
1521 2 19.7725 44.9375 28.76000000000001 0 0 0
1522 5 17.975 43.14 32.355000000000004 0 0 0
1523 2 17.975 44.9375 34.1525 0 0 0
1524 4 19.7725 43.14 34.1525 0 0 0
1525 5 19.7725 44.9375 32.355000000000004 0 0 0
1526 1 17.975 43.14 35.95 0 0 0
1527 5 17.975 44.9375 37.7475 0 0 0
1528 3 19.7725 43.14 37.7475 0 0 0
1529 2 19.7725 44.9375 35.95 0 0 0
1530 3 17.975 43.14 39.545 0 0 0
1531 5 17.975 44.9375 41.3425 0 0 0
1532 4 19.7725 43.14 41.3425 0 0 0
1533 1 19.7725 44.9375 39.545 0 0 0
1534 3 17.975 43.14 43.14 0 0 0
1535 3 17.975 44.9375 44.9375 0 0 0
1536 2 19.7725 43.14 44.9375 0 0 0
1537 1 19.7725 44.9375 43.14 0 0 0
1538 5 17.975 43.14 46.73500000000001 0 0 0
1539 1 17.975 44.9375 48.532500000000006 0 0 0
1540 2 19.7725 43.14 48.532500000000006 0 0 0
1541 1 19.7725 44.9375 46.73500000000001 0 0 0
1579 2 17.975 46.73500000000001 17.975 0 0 0
1580 4 17.975 48.532500000000006 19.7725 0 0 0
1581 4 19.7725 46.73500000000001 19.7725 0 0 0
1582 4 19.7725 48.532500000000006 17.975 0 0 0
1583 3 17.975 46.73500000000001 21.570000000000004 0 0 0
1584 4 17.975 48.532500000000006 23.367500000000003 0 0 0
1585 2 19.7725 46.73500000000001 23.367500000000003 0 0 0
1586 4 19.7725 48.532500000000006 21.570000000000004 0 0 0
1587 5 17.975 46.73500000000001 25.165000000000003 0 0 0
1588 5 17.975 48.532500000000006 26.9625 0 0 0
1589 1 19.7725 46.73500000000001 26.9625 0 0 0
1590 2 19.7725 48.532500000000006 25.165000000000003 0 0 0
1591 1 17.975 46.73500000000001 28.76000000000001 0 0 0
1592 3 17.975 48.532500000000006 30.557500000000005 0 0 0
1593 3 19.7725 46.73500000000001 30.557500000000005 0 0 0
1594 3 19.7725 48.532500000000006 28.76000000000001 0 0 0
1595 1 17.975 46.73500000000001 32.355000000000004 0 0 0
1596 1 17.975 48.532500000000006 34.1525 0 0 0
1597 4 19.7725 46.73500000000001 34.1525 0 0 0
1598 4 19.7725 48.532500000000006 32.355000000000004 0 0 0
1599 4 17.975 46.73500000000001 35.95 0 0 0
1600 1 17.975 48.532500000000006 37.7475 0 0 0
1601 3 19.7725 46.73500000000001 37.7475 0 0 0
1602 3 19.7725 48.532500000000006 35.95 0 0 0
1603 3 17.975 46.73500000000001 39.545 0 0 0
1604 3 17.975 48.532500000000006 41.3425 0 0 0
1605 4 19.7725 46.73500000000001 41.3425 0 0 0
1606 2 19.7725 48.532500000000006 39.545 0 0 0
1607 5 17.975 46.73500000000001 43.14 0 0 0
1608 1 17.975 48.532500000000006 44.9375 0 0 0
1609 1 19.7725 46.73500000000001 44.9375 0 0 0
1610 1 19.7725 48.532500000000006 43.14 0 0 0
1611 1 17.975 46.73500000000001 46.73500000000001 0 0 0
1612 1 17.975 48.532500000000006 48.532500000000006 0 0 0
1613 2 19.7725 46.73500000000001 48.532500000000006 0 0 0
1614 4 19.7725 48.532500000000006 46.73500000000001 0 0 0
2119 5 21.570000000000004 16.177500000000002 48.532500000000006 0 0 0
2120 5 23.367500000000003 14.380000000000004 48.532500000000006 0 0 0
2121 3 23.367500000000003 16.177500000000002 46.73500000000001 0 0 0
2127 3 21.570000000000004 19.7725 41.3425 0 0 0
2128 1 23.367500000000003 17.975 41.3425 0 0 0
2129 3 23.367500000000003 19.7725 39.545 0 0 0
2130 5 21.570000000000004 17.975 43.14 0 0 0
2131 4 21.570000000000004 19.7725 44.9375 0 0 0
2132 4 23.367500000000003 17.975 44.9375 0 0 0
2133 1 23.367500000000003 19.7725 43.14 0 0 0
2134 5 21.570000000000004 17.975 46.73500000000001 0 0 0
2135 3 21.570000000000004 19.7725 48.532500000000006 0 0 0
2136 5 23.367500000000003 17.975 48.532500000000006 0 0 0
2137 2 23.367500000000003 19.7725 46.73500000000001 0 0 0
2151 4 21.570000000000004 23.367500000000003 34.1525 0 0 0
2152 4 23.367500000000003 21.570000000000004 34.1525 0 0 0
2153 2 23.367500000000003 23.367500000000003 32.355000000000004 0 0 0
2154 1 21.570000000000004 21.570000000000004 35.95 0 0 0
2155 2 21.570000000000004 23.367500000000003 37.7475 0 0 0
2156 2 23.367500000000003 21.570000000000004 37.7475 0 0 0
2157 1 23.367500000000003 23.367500000000003 35.95 0 0 0
2158 4 21.570000000000004 21.570000000000004 39.545 0 0 0
2159 2 21.570000000000004 23.367500000000003 41.3425 0 0 0
2160 5 23.367500000000003 21.570000000000004 41.3425 0 0 0
2161 5 23.367500000000003 23.367500000000003 39.545 0 0 0
2162 5 21.570000000000004 21.570000000000004 43.14 0 0 0
2163 1 21.570000000000004 23.367500000000003 44.9375 0 0 0
2164 4 23.367500000000003 21.570000000000004 44.9375 0 0 0
2165 3 23.367500000000003 23.367500000000003 43.14 0 0 0
2166 5 21.570000000000004 21.570000000000004 46.73500000000001 0 0 0
2167 3 21.570000000000004 23.367500000000003 48.532500000000006 0 0 0
2168 3 23.367500000000003 21.570000000000004 48.532500000000006 0 0 0
2169 1 23.367500000000003 23.367500000000003 46.73500000000001 0 0 0
2191 4 21.570000000000004 26.9625 30.557500000000005 0 0 0
2192 1 23.367500000000003 25.165000000000003 30.557500000000005 0 0 0
2193 1 23.367500000000003 26.9625 28.76000000000001 0 0 0
2194 2 21.570000000000004 25.165000000000003 32.355000000000004 0 0 0
2195 1 21.570000000000004 26.9625 34.1525 0 0 0
2196 5 23.367500000000003 25.165000000000003 34.1525 0 0 0
2197 4 23.367500000000003 26.9625 32.355000000000004 0 0 0
2198 5 21.570000000000004 25.165000000000003 35.95 0 0 0
2199 3 21.570000000000004 26.9625 37.7475 0 0 0
2200 4 23.367500000000003 25.165000000000003 37.7475 0 0 0
2201 5 23.367500000000003 26.9625 35.95 0 0 0
2202 4 21.570000000000004 25.165000000000003 39.545 0 0 0
2203 5 21.570000000000004 26.9625 41.3425 0 0 0
2204 2 23.367500000000003 25.165000000000003 41.3425 0 0 0
2205 1 23.367500000000003 26.9625 39.545 0 0 0
2206 1 21.570000000000004 25.165000000000003 43.14 0 0 0
2207 3 21.570000000000004 26.9625 44.9375 0 0 0
2208 5 23.367500000000003 25.165000000000003 44.9375 0 0 0
2209 3 23.367500000000003 26.9625 43.14 0 0 0
2210 3 21.570000000000004 25.165000000000003 46.73500000000001 0 0 0
2211 5 21.570000000000004 26.9625 48.532500000000006 0 0 0
2212 2 23.367500000000003 25.165000000000003 48.532500000000006 0 0 0
2213 5 23.367500000000003 26.9625 46.73500000000001 0 0 0
2239 4 21.570000000000004 30.557500000000005 26.9625 0 0 0
2240 5 23.367500000000003 28.76000000000001 26.9625 0 0 0
2241 5 23.367500000000003 30.557500000000005 25.165000000000003 0 0 0
2242 4 21.570000000000004 28.76000000000001 28.76000000000001 0 0 0
2243 2 21.570000000000004 30.557500000000005 30.557500000000005 0 0 0
2244 3 23.367500000000003 28.76000000000001 30.557500000000005 0 0 0
2245 1 23.367500000000003 30.557500000000005 28.76000000000001 0 0 0
2246 1 21.570000000000004 28.76000000000001 32.355000000000004 0 0 0
2247 5 21.570000000000004 30.557500000000005 34.1525 0 0 0
2248 1 23.367500000000003 28.76000000000001 34.1525 0 0 0
2249 2 23.367500000000003 30.557500000000005 32.355000000000004 0 0 0
2250 3 21.570000000000004 28.76000000000001 35.95 0 0 0
2251 1 21.570000000000004 30.557500000000005 37.7475 0 0 0
2252 1 23.367500000000003 28.76000000000001 37.7475 0 0 0
2253 1 23.367500000000003 30.557500000000005 35.95 0 0 0
2254 3 21.570000000000004 28.76000000000001 39.545 0 0 0
2255 4 21.570000000000004 30.557500000000005 41.3425 0 0 0
2256 4 23.367500000000003 28.76000000000001 41.3425 0 0 0
2257 3 23.367500000000003 30.557500000000005 39.545 0 0 0
2258 5 21.570000000000004 28.76000000000001 43.14 0 0 0
2259 5 21.570000000000004 30.557500000000005 44.9375 0 0 0
2260 4 23.367500000000003 28.76000000000001 44.9375 0 0 0
2261 4 23.367500000000003 30.557500000000005 43.14 0 0 0
2262 1 21.570000000000004 28.76000000000001 46.73500000000001 0 0 0
2263 5 21.570000000000004 30.557500000000005 48.532500000000006 0 0 0
2264 4 23.367500000000003 28.76000000000001 48.532500000000006 0 0 0
2265 2 23.367500000000003 30.557500000000005 46.73500000000001 0 0 0
2295 3 21.570000000000004 34.1525 23.367500000000003 0 0 0
2296 4 23.367500000000003 32.355000000000004 23.367500000000003 0 0 0
2297 2 23.367500000000003 34.1525 21.570000000000004 0 0 0
2298 1 21.570000000000004 32.355000000000004 25.165000000000003 0 0 0
2299 4 21.570000000000004 34.1525 26.9625 0 0 0
2300 2 23.367500000000003 32.355000000000004 26.9625 0 0 0
2301 2 23.367500000000003 34.1525 25.165000000000003 0 0 0
2302 5 21.570000000000004 32.355000000000004 28.76000000000001 0 0 0
2303 5 21.570000000000004 34.1525 30.557500000000005 0 0 0
2304 1 23.367500000000003 32.355000000000004 30.557500000000005 0 0 0
2305 2 23.367500000000003 34.1525 28.76000000000001 0 0 0
2306 5 21.570000000000004 32.355000000000004 32.355000000000004 0 0 0
2307 5 21.570000000000004 34.1525 34.1525 0 0 0
2308 1 23.367500000000003 32.355000000000004 34.1525 0 0 0
2309 1 23.367500000000003 34.1525 32.355000000000004 0 0 0
2310 5 21.570000000000004 32.355000000000004 35.95 0 0 0
2311 2 21.570000000000004 34.1525 37.7475 0 0 0
2312 1 23.367500000000003 32.355000000000004 37.7475 0 0 0
2313 3 23.367500000000003 34.1525 35.95 0 0 0
2314 4 21.570000000000004 32.355000000000004 39.545 0 0 0
2315 1 21.570000000000004 34.1525 41.3425 0 0 0
2316 4 23.367500000000003 32.355000000000004 41.3425 0 0 0
2317 5 23.367500000000003 34.1525 39.545 0 0 0
2318 2 21.570000000000004 32.355000000000004 43.14 0 0 0
2319 2 21.570000000000004 34.1525 44.9375 0 0 0
2320 1 23.367500000000003 32.355000000000004 44.9375 0 0 0
2321 4 23.367500000000003 34.1525 43.14 0 0 0