model_files/NiCoCrFeMn/NiCoCrFeMn_30000/NiCoCrFeMn_211/NiCoCrFeMn_211_fcc_30069_temp.data (written by ASE) 

30069 	 atoms 
5  atom types
0.0                     100  xlo xhi
0.0                     100  ylo yhi
0.0                     100  zlo zhi


Atoms 

     1   1      1.7974999999999994      48.532500000000006      50.330000000000005
     2   1      1.7974999999999994      50.330000000000005      48.532500000000006
     3   1                       0      50.330000000000005      50.330000000000005
     4   1      1.7974999999999994      50.330000000000005      52.127500000000005
     5   1      1.7974999999999994      52.127500000000005      50.330000000000005
     6   1      5.3925000000000054      41.342500000000001      50.330000000000005
     7   1      3.5949999999999989                 44.9375      48.532500000000006
     8   1      5.3925000000000054      43.140000000000001      48.532500000000006
     9   1      5.3925000000000054                 44.9375      46.735000000000007
    10   1      3.5949999999999989      43.140000000000001      50.330000000000005
    11   1      3.5949999999999989                 44.9375      52.127500000000005
    12   1      5.3925000000000054      43.140000000000001      52.127500000000005
    13   1      5.3925000000000054                 44.9375      50.330000000000005
    14   1      5.3925000000000054                 44.9375      53.924999999999997
    15   1      3.5949999999999989      48.532500000000006                 44.9375
    16   1      5.3925000000000054      46.735000000000007                 44.9375
    17   1      5.3925000000000054      48.532500000000006      43.140000000000001
    18   1      3.5949999999999989      46.735000000000007      46.735000000000007
    19   1      3.5949999999999989      48.532500000000006      48.532500000000006
    20   1      5.3925000000000054      46.735000000000007      48.532500000000006
    21   1      5.3925000000000054      48.532500000000006      46.735000000000007
    22   1      3.5949999999999989      46.735000000000007      50.330000000000005
    23   1      3.5949999999999989      48.532500000000006      52.127500000000005
    24   1      5.3925000000000054      46.735000000000007      52.127500000000005
    25   1      5.3925000000000054      48.532500000000006      50.330000000000005
    26   1      3.5949999999999989      46.735000000000007      53.924999999999997
    27   1      3.5949999999999989      48.532500000000006      55.722500000000011
    28   1      5.3925000000000054      46.735000000000007      55.722500000000011
    29   1      5.3925000000000054      48.532500000000006      53.924999999999997
    30   1      5.3925000000000054      48.532500000000006      57.520000000000003
    31   1      5.3925000000000054      50.330000000000005      41.342500000000001
    32   1      3.5949999999999989      50.330000000000005      43.140000000000001
    33   1      3.5949999999999989      52.127500000000005                 44.9375
    34   1      5.3925000000000054      50.330000000000005                 44.9375
    35   1      5.3925000000000054      52.127500000000005      43.140000000000001
    36   1      3.5949999999999989      50.330000000000005      46.735000000000007
    37   1      3.5949999999999989      52.127500000000005      48.532500000000006
    38   1      5.3925000000000054      50.330000000000005      48.532500000000006
    39   1      5.3925000000000054      52.127500000000005      46.735000000000007
    40   1      3.5949999999999989      50.330000000000005      50.330000000000005
    41   1      3.5949999999999989      52.127500000000005      52.127500000000005
    42   1      5.3925000000000054      50.330000000000005      52.127500000000005
    43   1      5.3925000000000054      52.127500000000005      50.330000000000005
    44   1      3.5949999999999989      50.330000000000005      53.924999999999997
    45   1      3.5949999999999989      52.127500000000005      55.722500000000011
    46   1      5.3925000000000054      50.330000000000005      55.722500000000011
    47   1      5.3925000000000054      52.127500000000005      53.924999999999997
    48   1      3.5949999999999989      50.330000000000005      57.520000000000003
    49   1      5.3925000000000054      50.330000000000005      59.317500000000003
    50   1      5.3925000000000054      52.127500000000005      57.520000000000003
    51   1      5.3925000000000054      53.924999999999997                 44.9375
    52   1      3.5949999999999989      53.924999999999997      46.735000000000007
    53   1      3.5949999999999989      55.722500000000011      48.532500000000006
    54   1      5.3925000000000054      53.924999999999997      48.532500000000006
    55   1      5.3925000000000054      55.722500000000011      46.735000000000007
    56   1      3.5949999999999989      53.924999999999997      50.330000000000005
    57   1      3.5949999999999989      55.722500000000011      52.127500000000005
    58   1      5.3925000000000054      53.924999999999997      52.127500000000005
    59   1      5.3925000000000054      55.722500000000011      50.330000000000005
    60   1      3.5949999999999989      53.924999999999997      53.924999999999997
    61   1      5.3925000000000054      53.924999999999997      55.722500000000011
    62   1      5.3925000000000054      55.722500000000011      53.924999999999997
    63   1      5.3925000000000054      57.520000000000003      48.532500000000006
    64   1      3.5949999999999989      57.520000000000003      50.330000000000005
    65   1      5.3925000000000054      57.520000000000003      52.127500000000005
    66   1      5.3925000000000054      59.317500000000003      50.330000000000005
    67   1      8.9875000000000043      34.152500000000003      50.330000000000005
    68   1      7.1900000000000048      37.747500000000002      48.532500000000006
    69   1      8.9875000000000043      35.950000000000003      48.532500000000006
    70   1      8.9875000000000043      37.747500000000002      46.735000000000007
    71   1      7.1900000000000048      35.950000000000003      50.330000000000005
    72   1      7.1900000000000048      37.747500000000002      52.127500000000005
    73   1      8.9875000000000043      35.950000000000003      52.127500000000005
    74   1      8.9875000000000043      37.747500000000002      50.330000000000005
    75   1      8.9875000000000043      37.747500000000002      53.924999999999997
    76   1      7.1900000000000048      41.342500000000001                 44.9375
    77   1      8.9875000000000043      39.545000000000002                 44.9375
    78   1      8.9875000000000043      41.342500000000001      43.140000000000001
    79   1      7.1900000000000048      39.545000000000002      46.735000000000007
    80   1      7.1900000000000048      41.342500000000001      48.532500000000006
    81   1      8.9875000000000043      39.545000000000002      48.532500000000006
    82   1      8.9875000000000043      41.342500000000001      46.735000000000007
    83   1      7.1900000000000048      39.545000000000002      50.330000000000005
    84   1      7.1900000000000048      41.342500000000001      52.127500000000005
    85   1      8.9875000000000043      39.545000000000002      52.127500000000005
    86   1      8.9875000000000043      41.342500000000001      50.330000000000005
    87   1      7.1900000000000048      39.545000000000002      53.924999999999997
    88   1      7.1900000000000048      41.342500000000001      55.722500000000011
    89   1      8.9875000000000043      39.545000000000002      55.722500000000011
    90   1      8.9875000000000043      41.342500000000001      53.924999999999997
    91   1      8.9875000000000043      41.342500000000001      57.520000000000003
    92   1      7.1900000000000048                 44.9375      41.342500000000001
    93   1      8.9875000000000043      43.140000000000001      41.342500000000001
    94   1      8.9875000000000043                 44.9375      39.545000000000002
    95   1      7.1900000000000048      43.140000000000001      43.140000000000001
    96   1      7.1900000000000048                 44.9375                 44.9375
    97   1      8.9875000000000043      43.140000000000001                 44.9375
    98   1      8.9875000000000043                 44.9375      43.140000000000001
    99   1      7.1900000000000048      43.140000000000001      46.735000000000007
   100   1      7.1900000000000048                 44.9375      48.532500000000006
   101   1      8.9875000000000043      43.140000000000001      48.532500000000006
   102   1      8.9875000000000043                 44.9375      46.735000000000007
   103   1      7.1900000000000048      43.140000000000001      50.330000000000005
   104   1      7.1900000000000048                 44.9375      52.127500000000005
   105   1      8.9875000000000043      43.140000000000001      52.127500000000005
   106   1      8.9875000000000043                 44.9375      50.330000000000005
   107   1      7.1900000000000048      43.140000000000001      53.924999999999997
   108   1      7.1900000000000048                 44.9375      55.722500000000011
   109   1      8.9875000000000043      43.140000000000001      55.722500000000011
   110   1      8.9875000000000043                 44.9375      53.924999999999997
   111   1      7.1900000000000048      43.140000000000001      57.520000000000003
   112   1      7.1900000000000048                 44.9375      59.317500000000003
   113   1      8.9875000000000043      43.140000000000001      59.317500000000003
   114   1      8.9875000000000043                 44.9375      57.520000000000003
   115   1      8.9875000000000043                 44.9375      61.115000000000009
   116   1      7.1900000000000048      48.532500000000006      37.747500000000002
   117   1      8.9875000000000043      46.735000000000007      37.747500000000002
   118   1      8.9875000000000043      48.532500000000006      35.950000000000003
   119   1      7.1900000000000048      46.735000000000007      39.545000000000002
   120   1      7.1900000000000048      48.532500000000006      41.342500000000001
   121   1      8.9875000000000043      46.735000000000007      41.342500000000001
   122   1      8.9875000000000043      48.532500000000006      39.545000000000002
   123   1      7.1900000000000048      46.735000000000007      43.140000000000001
   124   1      7.1900000000000048      48.532500000000006                 44.9375
   125   1      8.9875000000000043      46.735000000000007                 44.9375
   126   1      8.9875000000000043      48.532500000000006      43.140000000000001
   127   1      7.1900000000000048      46.735000000000007      46.735000000000007
   128   1      7.1900000000000048      48.532500000000006      48.532500000000006
   129   1      8.9875000000000043      46.735000000000007      48.532500000000006
   130   1      8.9875000000000043      48.532500000000006      46.735000000000007
   131   1      7.1900000000000048      46.735000000000007      50.330000000000005
   132   1      7.1900000000000048      48.532500000000006      52.127500000000005
   133   1      8.9875000000000043      46.735000000000007      52.127500000000005
   134   1      8.9875000000000043      48.532500000000006      50.330000000000005
   135   1      7.1900000000000048      46.735000000000007      53.924999999999997
   136   1      7.1900000000000048      48.532500000000006      55.722500000000011
   137   1      8.9875000000000043      46.735000000000007      55.722500000000011
   138   1      8.9875000000000043      48.532500000000006      53.924999999999997
   139   1      7.1900000000000048      46.735000000000007      57.520000000000003
   140   1      7.1900000000000048      48.532500000000006      59.317500000000003
   141   1      8.9875000000000043      46.735000000000007      59.317500000000003
   142   1      8.9875000000000043      48.532500000000006      57.520000000000003
   143   1      7.1900000000000048      46.735000000000007      61.115000000000009
   144   1      7.1900000000000048      48.532500000000006      62.912500000000001
   145   1      8.9875000000000043      46.735000000000007      62.912500000000001
   146   1      8.9875000000000043      48.532500000000006      61.115000000000009
   147   1      8.9875000000000043      48.532500000000006      64.710000000000008
   148   1      8.9875000000000043      50.330000000000005      34.152500000000003
   149   1      7.1900000000000048      50.330000000000005      35.950000000000003
   150   1      7.1900000000000048      52.127500000000005      37.747500000000002
   151   1      8.9875000000000043      50.330000000000005      37.747500000000002
   152   1      8.9875000000000043      52.127500000000005      35.950000000000003
   153   1      7.1900000000000048      50.330000000000005      39.545000000000002
   154   1      7.1900000000000048      52.127500000000005      41.342500000000001
   155   1      8.9875000000000043      50.330000000000005      41.342500000000001
   156   1      8.9875000000000043      52.127500000000005      39.545000000000002
   157   1      7.1900000000000048      50.330000000000005      43.140000000000001
   158   1      7.1900000000000048      52.127500000000005                 44.9375
   159   1      8.9875000000000043      50.330000000000005                 44.9375
   160   1      8.9875000000000043      52.127500000000005      43.140000000000001
   161   1      7.1900000000000048      50.330000000000005      46.735000000000007
   162   1      7.1900000000000048      52.127500000000005      48.532500000000006
   163   1      8.9875000000000043      50.330000000000005      48.532500000000006
   164   1      8.9875000000000043      52.127500000000005      46.735000000000007
   165   1      7.1900000000000048      50.330000000000005      50.330000000000005
   166   1      7.1900000000000048      52.127500000000005      52.127500000000005
   167   1      8.9875000000000043      50.330000000000005      52.127500000000005
   168   1      8.9875000000000043      52.127500000000005      50.330000000000005
   169   1      7.1900000000000048      50.330000000000005      53.924999999999997
   170   1      7.1900000000000048      52.127500000000005      55.722500000000011
   171   1      8.9875000000000043      50.330000000000005      55.722500000000011
   172   1      8.9875000000000043      52.127500000000005      53.924999999999997
   173   1      7.1900000000000048      50.330000000000005      57.520000000000003
   174   1      7.1900000000000048      52.127500000000005      59.317500000000003
   175   1      8.9875000000000043      50.330000000000005      59.317500000000003
   176   1      8.9875000000000043      52.127500000000005      57.520000000000003
   177   1      7.1900000000000048      50.330000000000005      61.115000000000009
   178   1      7.1900000000000048      52.127500000000005      62.912500000000001
   179   1      8.9875000000000043      50.330000000000005      62.912500000000001
   180   1      8.9875000000000043      52.127500000000005      61.115000000000009
   181   1      7.1900000000000048      50.330000000000005      64.710000000000008
   182   1      8.9875000000000043      50.330000000000005      66.507500000000007
   183   1      8.9875000000000043      52.127500000000005      64.710000000000008
   184   1      8.9875000000000043      53.924999999999997      37.747500000000002
   185   1      7.1900000000000048      53.924999999999997      39.545000000000002
   186   1      7.1900000000000048      55.722500000000011      41.342500000000001
   187   1      8.9875000000000043      53.924999999999997      41.342500000000001
   188   1      8.9875000000000043      55.722500000000011      39.545000000000002
   189   1      7.1900000000000048      53.924999999999997      43.140000000000001
   190   1      7.1900000000000048      55.722500000000011                 44.9375
   191   1      8.9875000000000043      53.924999999999997                 44.9375
   192   1      8.9875000000000043      55.722500000000011      43.140000000000001
   193   1      7.1900000000000048      53.924999999999997      46.735000000000007
   194   1      7.1900000000000048      55.722500000000011      48.532500000000006
   195   1      8.9875000000000043      53.924999999999997      48.532500000000006
   196   1      8.9875000000000043      55.722500000000011      46.735000000000007
   197   1      7.1900000000000048      53.924999999999997      50.330000000000005
   198   1      7.1900000000000048      55.722500000000011      52.127500000000005
   199   1      8.9875000000000043      53.924999999999997      52.127500000000005
   200   1      8.9875000000000043      55.722500000000011      50.330000000000005
   201   1      7.1900000000000048      53.924999999999997      53.924999999999997
   202   1      7.1900000000000048      55.722500000000011      55.722500000000011
   203   1      8.9875000000000043      53.924999999999997      55.722500000000011
   204   1      8.9875000000000043      55.722500000000011      53.924999999999997
   205   1      7.1900000000000048      53.924999999999997      57.520000000000003
   206   1      7.1900000000000048      55.722500000000011      59.317500000000003
   207   1      8.9875000000000043      53.924999999999997      59.317500000000003
   208   1      8.9875000000000043      55.722500000000011      57.520000000000003
   209   1      7.1900000000000048      53.924999999999997      61.115000000000009
   210   1      8.9875000000000043      53.924999999999997      62.912500000000001
   211   1      8.9875000000000043      55.722500000000011      61.115000000000009
   212   1      8.9875000000000043      57.520000000000003      41.342500000000001
   213   1      7.1900000000000048      57.520000000000003      43.140000000000001
   214   1      7.1900000000000048      59.317500000000003                 44.9375
   215   1      8.9875000000000043      57.520000000000003                 44.9375
   216   1      8.9875000000000043      59.317500000000003      43.140000000000001
   217   1      7.1900000000000048      57.520000000000003      46.735000000000007
   218   1      7.1900000000000048      59.317500000000003      48.532500000000006
   219   1      8.9875000000000043      57.520000000000003      48.532500000000006
   220   1      8.9875000000000043      59.317500000000003      46.735000000000007
   221   1      7.1900000000000048      57.520000000000003      50.330000000000005
   222   1      7.1900000000000048      59.317500000000003      52.127500000000005
   223   1      8.9875000000000043      57.520000000000003      52.127500000000005
   224   1      8.9875000000000043      59.317500000000003      50.330000000000005
   225   1      7.1900000000000048      57.520000000000003      53.924999999999997
   226   1      7.1900000000000048      59.317500000000003      55.722500000000011
   227   1      8.9875000000000043      57.520000000000003      55.722500000000011
   228   1      8.9875000000000043      59.317500000000003      53.924999999999997
   229   1      7.1900000000000048      57.520000000000003      57.520000000000003
   230   1      8.9875000000000043      57.520000000000003      59.317500000000003
   231   1      8.9875000000000043      59.317500000000003      57.520000000000003
   232   1      8.9875000000000043      61.115000000000009                 44.9375
   233   1      7.1900000000000048      61.115000000000009      46.735000000000007
   234   1      7.1900000000000048      62.912500000000001      48.532500000000006
   235   1      8.9875000000000043      61.115000000000009      48.532500000000006
   236   1      8.9875000000000043      62.912500000000001      46.735000000000007
   237   1      7.1900000000000048      61.115000000000009      50.330000000000005
   238   1      7.1900000000000048      62.912500000000001      52.127500000000005
   239   1      8.9875000000000043      61.115000000000009      52.127500000000005
   240   1      8.9875000000000043      62.912500000000001      50.330000000000005
   241   1      7.1900000000000048      61.115000000000009      53.924999999999997
   242   1      8.9875000000000043      61.115000000000009      55.722500000000011
   243   1      8.9875000000000043      62.912500000000001      53.924999999999997
   244   1      8.9875000000000043      64.710000000000008      48.532500000000006
   245   1      7.1900000000000048      64.710000000000008      50.330000000000005
   246   1      8.9875000000000043      64.710000000000008      52.127500000000005
   247   1      8.9875000000000043      66.507500000000007      50.330000000000005
   248   1      12.582500000000001      26.962499999999999      50.330000000000005
   249   1      10.785000000000004      30.557500000000005      48.532500000000006
   250   1      12.582500000000001      28.760000000000009      48.532500000000006
   251   1      12.582500000000001      30.557500000000005      46.735000000000007
   252   1      10.785000000000004      28.760000000000009      50.330000000000005
   253   1      10.785000000000004      30.557500000000005      52.127500000000005
   254   1      12.582500000000001      28.760000000000009      52.127500000000005
   255   1      12.582500000000001      30.557500000000005      50.330000000000005
   256   1      12.582500000000001      30.557500000000005      53.924999999999997
   257   1      10.785000000000004      34.152500000000003                 44.9375
   258   1      12.582500000000001      32.355000000000004                 44.9375
   259   1      12.582500000000001      34.152500000000003      43.140000000000001
   260   1      10.785000000000004      32.355000000000004      46.735000000000007
   261   1      10.785000000000004      34.152500000000003      48.532500000000006
   262   1      12.582500000000001      32.355000000000004      48.532500000000006
   263   1      12.582500000000001      34.152500000000003      46.735000000000007
   264   1      10.785000000000004      32.355000000000004      50.330000000000005
   265   1      10.785000000000004      34.152500000000003      52.127500000000005
   266   1      12.582500000000001      32.355000000000004      52.127500000000005
   267   1      12.582500000000001      34.152500000000003      50.330000000000005
   268   1      10.785000000000004      32.355000000000004      53.924999999999997
   269   1      10.785000000000004      34.152500000000003      55.722500000000011
   270   1      12.582500000000001      32.355000000000004      55.722500000000011
   271   1      12.582500000000001      34.152500000000003      53.924999999999997
   272   1      12.582500000000001      34.152500000000003      57.520000000000003
   273   1      10.785000000000004      37.747500000000002      41.342500000000001
   274   1      12.582500000000001      35.950000000000003      41.342500000000001
   275   1      12.582500000000001      37.747500000000002      39.545000000000002
   276   1      10.785000000000004      35.950000000000003      43.140000000000001
   277   1      10.785000000000004      37.747500000000002                 44.9375
   278   1      12.582500000000001      35.950000000000003                 44.9375
   279   1      12.582500000000001      37.747500000000002      43.140000000000001
   280   1      10.785000000000004      35.950000000000003      46.735000000000007
   281   1      10.785000000000004      37.747500000000002      48.532500000000006
   282   1      12.582500000000001      35.950000000000003      48.532500000000006
   283   1      12.582500000000001      37.747500000000002      46.735000000000007
   284   1      10.785000000000004      35.950000000000003      50.330000000000005
   285   1      10.785000000000004      37.747500000000002      52.127500000000005
   286   1      12.582500000000001      35.950000000000003      52.127500000000005
   287   1      12.582500000000001      37.747500000000002      50.330000000000005
   288   1      10.785000000000004      35.950000000000003      53.924999999999997
   289   1      10.785000000000004      37.747500000000002      55.722500000000011
   290   1      12.582500000000001      35.950000000000003      55.722500000000011
   291   1      12.582500000000001      37.747500000000002      53.924999999999997
   292   1      10.785000000000004      35.950000000000003      57.520000000000003
   293   1      10.785000000000004      37.747500000000002      59.317500000000003
   294   1      12.582500000000001      35.950000000000003      59.317500000000003
   295   1      12.582500000000001      37.747500000000002      57.520000000000003
   296   1      12.582500000000001      37.747500000000002      61.115000000000009
   297   1      10.785000000000004      41.342500000000001      37.747500000000002
   298   1      12.582500000000001      39.545000000000002      37.747500000000002
   299   1      12.582500000000001      41.342500000000001      35.950000000000003
   300   1      10.785000000000004      39.545000000000002      39.545000000000002
   301   1      10.785000000000004      41.342500000000001      41.342500000000001
   302   1      12.582500000000001      39.545000000000002      41.342500000000001
   303   1      12.582500000000001      41.342500000000001      39.545000000000002
   304   1      10.785000000000004      39.545000000000002      43.140000000000001
   305   1      10.785000000000004      41.342500000000001                 44.9375
   306   1      12.582500000000001      39.545000000000002                 44.9375
   307   1      12.582500000000001      41.342500000000001      43.140000000000001
   308   1      10.785000000000004      39.545000000000002      46.735000000000007
   309   1      10.785000000000004      41.342500000000001      48.532500000000006
   310   1      12.582500000000001      39.545000000000002      48.532500000000006
   311   1      12.582500000000001      41.342500000000001      46.735000000000007
   312   1      10.785000000000004      39.545000000000002      50.330000000000005
   313   1      10.785000000000004      41.342500000000001      52.127500000000005
   314   1      12.582500000000001      39.545000000000002      52.127500000000005
   315   1      12.582500000000001      41.342500000000001      50.330000000000005
   316   1      10.785000000000004      39.545000000000002      53.924999999999997
   317   1      10.785000000000004      41.342500000000001      55.722500000000011
   318   1      12.582500000000001      39.545000000000002      55.722500000000011
   319   1      12.582500000000001      41.342500000000001      53.924999999999997
   320   1      10.785000000000004      39.545000000000002      57.520000000000003
   321   1      10.785000000000004      41.342500000000001      59.317500000000003
   322   1      12.582500000000001      39.545000000000002      59.317500000000003
   323   1      12.582500000000001      41.342500000000001      57.520000000000003
   324   1      10.785000000000004      39.545000000000002      61.115000000000009
   325   1      10.785000000000004      41.342500000000001      62.912500000000001
   326   1      12.582500000000001      39.545000000000002      62.912500000000001
   327   1      12.582500000000001      41.342500000000001      61.115000000000009
   328   1      12.582500000000001      41.342500000000001      64.710000000000008
   329   1      10.785000000000004                 44.9375      34.152500000000003
   330   1      12.582500000000001      43.140000000000001      34.152500000000003
   331   1      12.582500000000001                 44.9375      32.355000000000004
   332   1      10.785000000000004      43.140000000000001      35.950000000000003
   333   1      10.785000000000004                 44.9375      37.747500000000002
   334   1      12.582500000000001      43.140000000000001      37.747500000000002
   335   1      12.582500000000001                 44.9375      35.950000000000003
   336   1      10.785000000000004      43.140000000000001      39.545000000000002
   337   1      10.785000000000004                 44.9375      41.342500000000001
   338   1      12.582500000000001      43.140000000000001      41.342500000000001
   339   1      12.582500000000001                 44.9375      39.545000000000002
   340   1      10.785000000000004      43.140000000000001      43.140000000000001
   341   1      10.785000000000004                 44.9375                 44.9375
   342   1      12.582500000000001      43.140000000000001                 44.9375
   343   1      12.582500000000001                 44.9375      43.140000000000001
   344   1      10.785000000000004      43.140000000000001      46.735000000000007
   345   1      10.785000000000004                 44.9375      48.532500000000006
   346   1      12.582500000000001      43.140000000000001      48.532500000000006
   347   1      12.582500000000001                 44.9375      46.735000000000007
   348   1      10.785000000000004      43.140000000000001      50.330000000000005
   349   1      10.785000000000004                 44.9375      52.127500000000005
   350   1      12.582500000000001      43.140000000000001      52.127500000000005
   351   1      12.582500000000001                 44.9375      50.330000000000005
   352   1      10.785000000000004      43.140000000000001      53.924999999999997
   353   1      10.785000000000004                 44.9375      55.722500000000011
   354   1      12.582500000000001      43.140000000000001      55.722500000000011
   355   1      12.582500000000001                 44.9375      53.924999999999997
   356   1      10.785000000000004      43.140000000000001      57.520000000000003
   357   1      10.785000000000004                 44.9375      59.317500000000003
   358   1      12.582500000000001      43.140000000000001      59.317500000000003