model_files/PtCu/PtCu_30000/PtCu_432/PtCu_432_fcc_29911_temp.data (written by ASE) 

29911 	 atoms 
2  atom types
0.0                     117  xlo xhi
0.0                     117  ylo yhi
0.0                     117  zlo zhi


Atoms 

     1   1      1.9250000000000045       55.82500000000001      57.750000000000014
     2   1      1.9250000000000045      57.750000000000014       55.82500000000001
     3   1  7.1054273576010019e-15      57.750000000000014      57.750000000000014
     4   1      1.9250000000000045      57.750000000000014      59.675000000000011
     5   1      1.9250000000000045      59.675000000000011      57.750000000000014
     6   1      5.7750000000000066      48.125000000000014      57.750000000000014
     7   1       3.850000000000009      51.975000000000001       55.82500000000001
     8   1      5.7750000000000066      50.050000000000011       55.82500000000001
     9   1      5.7750000000000066      51.975000000000001      53.900000000000013
    10   1       3.850000000000009      51.975000000000001      59.675000000000011
    11   1      5.7750000000000066      50.050000000000011      59.675000000000011
    12   1      5.7750000000000066      51.975000000000001      57.750000000000014
    13   1      5.7750000000000066      51.975000000000001      61.600000000000016
    14   1       3.850000000000009       55.82500000000001      51.975000000000001
    15   1      5.7750000000000066      53.900000000000013      51.975000000000001
    16   1      5.7750000000000066       55.82500000000001      50.050000000000011
    17   1       3.850000000000009      53.900000000000013      53.900000000000013
    18   1       3.850000000000009       55.82500000000001       55.82500000000001
    19   1      5.7750000000000066      53.900000000000013       55.82500000000001
    20   1      5.7750000000000066       55.82500000000001      53.900000000000013
    21   1       3.850000000000009      53.900000000000013      57.750000000000014
    22   1       3.850000000000009       55.82500000000001      59.675000000000011
    23   1      5.7750000000000066      53.900000000000013      59.675000000000011
    24   1      5.7750000000000066       55.82500000000001      57.750000000000014
    25   1       3.850000000000009      53.900000000000013      61.600000000000016
    26   1       3.850000000000009       55.82500000000001      63.525000000000006
    27   1      5.7750000000000066      53.900000000000013      63.525000000000006
    28   1      5.7750000000000066       55.82500000000001      61.600000000000016
    29   1      5.7750000000000066       55.82500000000001      65.450000000000017
    30   1      5.7750000000000066      57.750000000000014      48.125000000000014
    31   1       3.850000000000009      59.675000000000011      51.975000000000001
    32   1      5.7750000000000066      57.750000000000014      51.975000000000001
    33   1      5.7750000000000066      59.675000000000011      50.050000000000011
    34   1       3.850000000000009      57.750000000000014      53.900000000000013
    35   1       3.850000000000009      59.675000000000011       55.82500000000001
    36   1      5.7750000000000066      57.750000000000014       55.82500000000001
    37   1      5.7750000000000066      59.675000000000011      53.900000000000013
    38   1       3.850000000000009      57.750000000000014      57.750000000000014
    39   1       3.850000000000009      59.675000000000011      59.675000000000011
    40   1      5.7750000000000066      57.750000000000014      59.675000000000011
    41   1      5.7750000000000066      59.675000000000011      57.750000000000014
    42   1       3.850000000000009      57.750000000000014      61.600000000000016
    43   1       3.850000000000009      59.675000000000011      63.525000000000006
    44   1      5.7750000000000066      57.750000000000014      63.525000000000006
    45   1      5.7750000000000066      59.675000000000011      61.600000000000016
    46   1      5.7750000000000066      57.750000000000014      67.375000000000014
    47   1      5.7750000000000066      59.675000000000011      65.450000000000017
    48   1      5.7750000000000066      61.600000000000016      51.975000000000001
    49   1       3.850000000000009      61.600000000000016      53.900000000000013
    50   1       3.850000000000009      63.525000000000006       55.82500000000001
    51   1      5.7750000000000066      61.600000000000016       55.82500000000001
    52   1      5.7750000000000066      63.525000000000006      53.900000000000013
    53   1       3.850000000000009      61.600000000000016      57.750000000000014
    54   1       3.850000000000009      63.525000000000006      59.675000000000011
    55   1      5.7750000000000066      61.600000000000016      59.675000000000011
    56   1      5.7750000000000066      63.525000000000006      57.750000000000014
    57   1       3.850000000000009      61.600000000000016      61.600000000000016
    58   1      5.7750000000000066      61.600000000000016      63.525000000000006
    59   1      5.7750000000000066      63.525000000000006      61.600000000000016
    60   1      5.7750000000000066      65.450000000000017       55.82500000000001
    61   1      5.7750000000000066      65.450000000000017      59.675000000000011
    62   1      5.7750000000000066      67.375000000000014      57.750000000000014
    63   1      9.6250000000000089      44.275000000000013      57.750000000000014
    64   1      9.6250000000000089      48.125000000000014      50.050000000000011
    65   1      7.7000000000000099      48.125000000000014       55.82500000000001
    66   1      9.6250000000000089      46.200000000000017       55.82500000000001
    67   1      9.6250000000000089      48.125000000000014      53.900000000000013
    68   1      7.7000000000000099      46.200000000000017      57.750000000000014
    69   1      7.7000000000000099      48.125000000000014      59.675000000000011
    70   1      9.6250000000000089      46.200000000000017      59.675000000000011
    71   1      9.6250000000000089      48.125000000000014      57.750000000000014
    72   1      9.6250000000000089      48.125000000000014      61.600000000000016
    73   1      9.6250000000000089      48.125000000000014      65.450000000000017
    74   1      9.6250000000000089      50.050000000000011      48.125000000000014
    75   1      7.7000000000000099      51.975000000000001      51.975000000000001
    76   1      9.6250000000000089      50.050000000000011      51.975000000000001
    77   1      9.6250000000000089      51.975000000000001      50.050000000000011
    78   1      7.7000000000000099      50.050000000000011      53.900000000000013
    79   1      7.7000000000000099      51.975000000000001       55.82500000000001
    80   1      9.6250000000000089      50.050000000000011       55.82500000000001
    81   1      9.6250000000000089      51.975000000000001      53.900000000000013
    82   1      7.7000000000000099      50.050000000000011      57.750000000000014
    83   1      7.7000000000000099      51.975000000000001      59.675000000000011
    84   1      9.6250000000000089      50.050000000000011      59.675000000000011
    85   1      9.6250000000000089      51.975000000000001      57.750000000000014
    86   1      7.7000000000000099      50.050000000000011      61.600000000000016
    87   1      7.7000000000000099      51.975000000000001      63.525000000000006
    88   1      9.6250000000000089      50.050000000000011      63.525000000000006
    89   1      9.6250000000000089      51.975000000000001      61.600000000000016
    90   1      9.6250000000000089      50.050000000000011      67.375000000000014
    91   1      9.6250000000000089      51.975000000000001      65.450000000000017
    92   1      7.7000000000000099       55.82500000000001      48.125000000000014
    93   1      9.6250000000000089      53.900000000000013      48.125000000000014
    94   1      9.6250000000000089       55.82500000000001      46.200000000000017
    95   1      7.7000000000000099      53.900000000000013      50.050000000000011
    96   1      7.7000000000000099       55.82500000000001      51.975000000000001
    97   1      9.6250000000000089      53.900000000000013      51.975000000000001
    98   1      9.6250000000000089       55.82500000000001      50.050000000000011
    99   1      7.7000000000000099      53.900000000000013      53.900000000000013
   100   1      7.7000000000000099       55.82500000000001       55.82500000000001
   101   1      9.6250000000000089      53.900000000000013       55.82500000000001
   102   1      9.6250000000000089       55.82500000000001      53.900000000000013
   103   1      7.7000000000000099      53.900000000000013      57.750000000000014
   104   1      7.7000000000000099       55.82500000000001      59.675000000000011
   105   1      9.6250000000000089      53.900000000000013      59.675000000000011
   106   1      9.6250000000000089       55.82500000000001      57.750000000000014
   107   1      7.7000000000000099      53.900000000000013      61.600000000000016
   108   1      7.7000000000000099       55.82500000000001      63.525000000000006
   109   1      9.6250000000000089      53.900000000000013      63.525000000000006
   110   1      9.6250000000000089       55.82500000000001      61.600000000000016
   111   1      7.7000000000000099      53.900000000000013      65.450000000000017
   112   1      7.7000000000000099       55.82500000000001      67.375000000000014
   113   1      9.6250000000000089      53.900000000000013      67.375000000000014
   114   1      9.6250000000000089       55.82500000000001      65.450000000000017
   115   1      9.6250000000000089       55.82500000000001      69.300000000000011
   116   1      9.6250000000000089      57.750000000000014      44.275000000000013
   117   1      7.7000000000000099      57.750000000000014      46.200000000000017
   118   1      7.7000000000000099      59.675000000000011      48.125000000000014
   119   1      9.6250000000000089      57.750000000000014      48.125000000000014
   120   1      9.6250000000000089      59.675000000000011      46.200000000000017
   121   1      7.7000000000000099      57.750000000000014      50.050000000000011
   122   1      7.7000000000000099      59.675000000000011      51.975000000000001
   123   1      9.6250000000000089      57.750000000000014      51.975000000000001
   124   1      9.6250000000000089      59.675000000000011      50.050000000000011
   125   1      7.7000000000000099      57.750000000000014      53.900000000000013
   126   1      7.7000000000000099      59.675000000000011       55.82500000000001
   127   1      9.6250000000000089      57.750000000000014       55.82500000000001
   128   1      9.6250000000000089      59.675000000000011      53.900000000000013
   129   1      7.7000000000000099      57.750000000000014      57.750000000000014
   130   1      7.7000000000000099      59.675000000000011      59.675000000000011
   131   1      9.6250000000000089      57.750000000000014      59.675000000000011
   132   1      9.6250000000000089      59.675000000000011      57.750000000000014
   133   1      7.7000000000000099      57.750000000000014      61.600000000000016
   134   1      7.7000000000000099      59.675000000000011      63.525000000000006
   135   1      9.6250000000000089      57.750000000000014      63.525000000000006
   136   1      9.6250000000000089      59.675000000000011      61.600000000000016
   137   1      7.7000000000000099      57.750000000000014      65.450000000000017
   138   1      7.7000000000000099      59.675000000000011      67.375000000000014
   139   1      9.6250000000000089      57.750000000000014      67.375000000000014
   140   1      9.6250000000000089      59.675000000000011      65.450000000000017
   141   1      7.7000000000000099      57.750000000000014      69.300000000000011
   142   1      9.6250000000000089      57.750000000000014      71.225000000000023
   143   1      9.6250000000000089      59.675000000000011      69.300000000000011
   144   1      9.6250000000000089      61.600000000000016      48.125000000000014
   145   1      7.7000000000000099      61.600000000000016      50.050000000000011
   146   1      7.7000000000000099      63.525000000000006      51.975000000000001
   147   1      9.6250000000000089      61.600000000000016      51.975000000000001
   148   1      9.6250000000000089      63.525000000000006      50.050000000000011
   149   1      7.7000000000000099      61.600000000000016      53.900000000000013
   150   1      7.7000000000000099      63.525000000000006       55.82500000000001
   151   1      9.6250000000000089      61.600000000000016       55.82500000000001
   152   1      9.6250000000000089      63.525000000000006      53.900000000000013
   153   1      7.7000000000000099      61.600000000000016      57.750000000000014
   154   1      7.7000000000000099      63.525000000000006      59.675000000000011
   155   1      9.6250000000000089      61.600000000000016      59.675000000000011
   156   1      9.6250000000000089      63.525000000000006      57.750000000000014
   157   1      7.7000000000000099      61.600000000000016      61.600000000000016
   158   1      7.7000000000000099      63.525000000000006      63.525000000000006
   159   1      9.6250000000000089      61.600000000000016      63.525000000000006
   160   1      9.6250000000000089      63.525000000000006      61.600000000000016
   161   1      7.7000000000000099      61.600000000000016      65.450000000000017
   162   1      9.6250000000000089      61.600000000000016      67.375000000000014
   163   1      9.6250000000000089      63.525000000000006      65.450000000000017
   164   1      9.6250000000000089      65.450000000000017      48.125000000000014
   165   1      9.6250000000000089      65.450000000000017      51.975000000000001
   166   1      9.6250000000000089      67.375000000000014      50.050000000000011
   167   1      7.7000000000000099      65.450000000000017      53.900000000000013
   168   1      7.7000000000000099      67.375000000000014       55.82500000000001
   169   1      9.6250000000000089      65.450000000000017       55.82500000000001
   170   1      9.6250000000000089      67.375000000000014      53.900000000000013
   171   1      7.7000000000000099      65.450000000000017      57.750000000000014
   172   1      7.7000000000000099      67.375000000000014      59.675000000000011
   173   1      9.6250000000000089      65.450000000000017      59.675000000000011
   174   1      9.6250000000000089      67.375000000000014      57.750000000000014
   175   1      7.7000000000000099      65.450000000000017      61.600000000000016
   176   1      9.6250000000000089      65.450000000000017      63.525000000000006
   177   1      9.6250000000000089      67.375000000000014      61.600000000000016
   178   1      9.6250000000000089      65.450000000000017      67.375000000000014
   179   1      9.6250000000000089      67.375000000000014      65.450000000000017
   180   1      9.6250000000000089      69.300000000000011       55.82500000000001
   181   1      7.7000000000000099      69.300000000000011      57.750000000000014
   182   1      9.6250000000000089      69.300000000000011      59.675000000000011
   183   1      9.6250000000000089      71.225000000000023      57.750000000000014
   184   1      13.475000000000003      40.425000000000004      53.900000000000013
   185   1      13.475000000000003      40.425000000000004      57.750000000000014
   186   1      13.475000000000003      40.425000000000004      61.600000000000016
   187   1      11.550000000000006      44.275000000000013      51.975000000000001
   188   1      13.475000000000003      42.350000000000009      51.975000000000001
   189   1      13.475000000000003      44.275000000000013      50.050000000000011
   190   1      11.550000000000006      44.275000000000013       55.82500000000001
   191   1      13.475000000000003      42.350000000000009       55.82500000000001
   192   1      13.475000000000003      44.275000000000013      53.900000000000013
   193   1      11.550000000000006      42.350000000000009      57.750000000000014
   194   1      11.550000000000006      44.275000000000013      59.675000000000011
   195   1      13.475000000000003      42.350000000000009      59.675000000000011
   196   1      13.475000000000003      44.275000000000013      57.750000000000014
   197   1      11.550000000000006      44.275000000000013      63.525000000000006
   198   1      13.475000000000003      42.350000000000009      63.525000000000006
   199   1      13.475000000000003      44.275000000000013      61.600000000000016
   200   1      13.475000000000003      44.275000000000013      65.450000000000017
   201   1      11.550000000000006      48.125000000000014      48.125000000000014
   202   1      13.475000000000003      46.200000000000017      48.125000000000014
   203   1      13.475000000000003      48.125000000000014      46.200000000000017
   204   1      11.550000000000006      46.200000000000017      50.050000000000011
   205   1      11.550000000000006      48.125000000000014      51.975000000000001
   206   1      13.475000000000003      46.200000000000017      51.975000000000001
   207   1      13.475000000000003      48.125000000000014      50.050000000000011
   208   1      11.550000000000006      46.200000000000017      53.900000000000013
   209   1      11.550000000000006      48.125000000000014       55.82500000000001
   210   1      13.475000000000003      46.200000000000017       55.82500000000001
   211   1      13.475000000000003      48.125000000000014      53.900000000000013
   212   1      11.550000000000006      46.200000000000017      57.750000000000014
   213   1      11.550000000000006      48.125000000000014      59.675000000000011
   214   1      13.475000000000003      46.200000000000017      59.675000000000011
   215   1      13.475000000000003      48.125000000000014      57.750000000000014
   216   1      11.550000000000006      46.200000000000017      61.600000000000016
   217   1      11.550000000000006      48.125000000000014      63.525000000000006
   218   1      13.475000000000003      46.200000000000017      63.525000000000006
   219   1      13.475000000000003      48.125000000000014      61.600000000000016
   220   1      11.550000000000006      46.200000000000017      65.450000000000017
   221   1      11.550000000000006      48.125000000000014      67.375000000000014
   222   1      13.475000000000003      46.200000000000017      67.375000000000014
   223   1      13.475000000000003      48.125000000000014      65.450000000000017
   224   1      13.475000000000003      48.125000000000014      69.300000000000011
   225   1      11.550000000000006      51.975000000000001      44.275000000000013
   226   1      13.475000000000003      50.050000000000011      44.275000000000013
   227   1      13.475000000000003      51.975000000000001      42.350000000000009
   228   1      11.550000000000006      50.050000000000011      46.200000000000017
   229   1      11.550000000000006      51.975000000000001      48.125000000000014
   230   1      13.475000000000003      50.050000000000011      48.125000000000014
   231   1      13.475000000000003      51.975000000000001      46.200000000000017
   232   1      11.550000000000006      50.050000000000011      50.050000000000011
   233   1      11.550000000000006      51.975000000000001      51.975000000000001
   234   1      13.475000000000003      50.050000000000011      51.975000000000001
   235   1      13.475000000000003      51.975000000000001      50.050000000000011
   236   1      11.550000000000006      50.050000000000011      53.900000000000013
   237   1      11.550000000000006      51.975000000000001       55.82500000000001
   238   1      13.475000000000003      50.050000000000011       55.82500000000001
   239   1      13.475000000000003      51.975000000000001      53.900000000000013
   240   1      11.550000000000006      50.050000000000011      57.750000000000014
   241   1      11.550000000000006      51.975000000000001      59.675000000000011
   242   1      13.475000000000003      50.050000000000011      59.675000000000011
   243   1      13.475000000000003      51.975000000000001      57.750000000000014
   244   1      11.550000000000006      50.050000000000011      61.600000000000016
   245   1      11.550000000000006      51.975000000000001      63.525000000000006
   246   1      13.475000000000003      50.050000000000011      63.525000000000006
   247   1      13.475000000000003      51.975000000000001      61.600000000000016
   248   1      11.550000000000006      50.050000000000011      65.450000000000017
   249   1      11.550000000000006      51.975000000000001      67.375000000000014
   250   1      13.475000000000003      50.050000000000011      67.375000000000014
   251   1      13.475000000000003      51.975000000000001      65.450000000000017
   252   1      11.550000000000006      50.050000000000011      69.300000000000011
   253   1      11.550000000000006      51.975000000000001      71.225000000000023
   254   1      13.475000000000003      50.050000000000011      71.225000000000023
   255   1      13.475000000000003      51.975000000000001      69.300000000000011
   256   1      13.475000000000003      51.975000000000001       73.15000000000002
   257   1      13.475000000000003      53.900000000000013      40.425000000000004
   258   1      11.550000000000006       55.82500000000001      44.275000000000013
   259   1      13.475000000000003      53.900000000000013      44.275000000000013
   260   1      13.475000000000003       55.82500000000001      42.350000000000009
   261   1      11.550000000000006      53.900000000000013      46.200000000000017
   262   1      11.550000000000006       55.82500000000001      48.125000000000014
   263   1      13.475000000000003      53.900000000000013      48.125000000000014
   264   1      13.475000000000003       55.82500000000001      46.200000000000017
   265   1      11.550000000000006      53.900000000000013      50.050000000000011
   266   1      11.550000000000006       55.82500000000001      51.975000000000001
   267   1      13.475000000000003      53.900000000000013      51.975000000000001
   268   1      13.475000000000003       55.82500000000001      50.050000000000011
   269   1      11.550000000000006      53.900000000000013      53.900000000000013
   270   1      11.550000000000006       55.82500000000001       55.82500000000001
   271   1      13.475000000000003      53.900000000000013       55.82500000000001
   272   1      13.475000000000003       55.82500000000001      53.900000000000013
   273   1      11.550000000000006      53.900000000000013      57.750000000000014
   274   1      11.550000000000006       55.82500000000001      59.675000000000011
   275   1      13.475000000000003      53.900000000000013      59.675000000000011
   276   1      13.475000000000003       55.82500000000001      57.750000000000014
   277   1      11.550000000000006      53.900000000000013      61.600000000000016
   278   1      11.550000000000006       55.82500000000001      63.525000000000006
   279   1      13.475000000000003      53.900000000000013      63.525000000000006
   280   1      13.475000000000003       55.82500000000001      61.600000000000016
   281   1      11.550000000000006      53.900000000000013      65.450000000000017
   282   1      11.550000000000006       55.82500000000001      67.375000000000014
   283   1      13.475000000000003      53.900000000000013      67.375000000000014
   284   1      13.475000000000003       55.82500000000001      65.450000000000017
   285   1      11.550000000000006      53.900000000000013      69.300000000000011
   286   1      11.550000000000006       55.82500000000001      71.225000000000023
   287   1      13.475000000000003      53.900000000000013      71.225000000000023
   288   1      13.475000000000003       55.82500000000001      69.300000000000011
   289   1      13.475000000000003      53.900000000000013      75.075000000000003
   290   1      13.475000000000003       55.82500000000001       73.15000000000002
   291   1      13.475000000000003      57.750000000000014      40.425000000000004
   292   1      11.550000000000006      57.750000000000014      42.350000000000009
   293   1      11.550000000000006      59.675000000000011      44.275000000000013
   294   1      13.475000000000003      57.750000000000014      44.275000000000013
   295   1      13.475000000000003      59.675000000000011      42.350000000000009
   296   1      11.550000000000006      57.750000000000014      46.200000000000017
   297   1      11.550000000000006      59.675000000000011      48.125000000000014
   298   1      13.475000000000003      57.750000000000014      48.125000000000014
   299   1      13.475000000000003      59.675000000000011      46.200000000000017
   300   1      11.550000000000006      57.750000000000014      50.050000000000011
   301   1      11.550000000000006      59.675000000000011      51.975000000000001
   302   1      13.475000000000003      57.750000000000014      51.975000000000001
   303   1      13.475000000000003      59.675000000000011      50.050000000000011
   304   1      11.550000000000006      57.750000000000014      53.900000000000013
   305   1      11.550000000000006      59.675000000000011       55.82500000000001
   306   1      13.475000000000003      57.750000000000014       55.82500000000001
   307   1      13.475000000000003      59.675000000000011      53.900000000000013
   308   1      11.550000000000006      57.750000000000014      57.750000000000014
   309   1      11.550000000000006      59.675000000000011      59.675000000000011
   310   1      13.475000000000003      57.750000000000014      59.675000000000011
   311   1      13.475000000000003      59.675000000000011      57.750000000000014
   312   1      11.550000000000006      57.750000000000014      61.600000000000016
   313   1      11.550000000000006      59.675000000000011      63.525000000000006
   314   1      13.475000000000003      57.750000000000014      63.525000000000006
   315   1      13.475000000000003      59.675000000000011      61.600000000000016
   316   1      11.550000000000006      57.750000000000014      65.450000000000017
   317   1      11.550000000000006      59.675000000000011      67.375000000000014
   318   1      13.475000000000003      57.750000000000014      67.375000000000014
   319   1      13.475000000000003      59.675000000000011      65.450000000000017
   320   1      11.550000000000006      57.750000000000014      69.300000000000011
   321   1      11.550000000000006      59.675000000000011      71.225000000000023
   322   1      13.475000000000003      57.750000000000014      71.225000000000023
   323   1      13.475000000000003      59.675000000000011      69.300000000000011
   324   1      11.550000000000006      57.750000000000014       73.15000000000002
   325   1      13.475000000000003      57.750000000000014      75.075000000000003
   326   1      13.475000000000003      59.675000000000011       73.15000000000002
   327   1      13.475000000000003      61.600000000000016      40.425000000000004
   328   1      11.550000000000006      63.525000000000006      44.275000000000013
   329   1      13.475000000000003      61.600000000000016      44.275000000000013
   330   1      13.475000000000003      63.525000000000006      42.350000000000009
   331   1      11.550000000000006      61.600000000000016      46.200000000000017
   332   1      11.550000000000006      63.525000000000006      48.125000000000014
   333   1      13.475000000000003      61.600000000000016      48.125000000000014
   334   1      13.475000000000003      63.525000000000006      46.200000000000017
   335   1      11.550000000000006      61.600000000000016      50.050000000000011
   336   1      11.550000000000006      63.525000000000006      51.975000000000001
   337   1      13.475000000000003      61.600000000000016      51.975000000000001
   338   1      13.475000000000003      63.525000000000006      50.050000000000011
   339   1      11.550000000000006      61.600000000000016      53.900000000000013
   340   1      11.550000000000006      63.525000000000006       55.82500000000001
   341   1      13.475000000000003      61.600000000000016       55.82500000000001
   342   1      13.475000000000003      63.525000000000006      53.900000000000013
   343   1      11.550000000000006      61.600000000000016      57.750000000000014
   344   1      11.550000000000006      63.525000000000006      59.675000000000011
   345   1      13.475000000000003      61.600000000000016      59.675000000000011
   346   1      13.475000000000003      63.525000000000006      57.750000000000014
   347   1      11.550000000000006      61.600000000000016      61.600000000000016
   348   1      11.550000000000006      63.525000000000006      63.525000000000006
   349   1      13.475000000000003      61.600000000000016      63.525000000000006
   350   1      13.475000000000003      63.525000000000006      61.600000000000016
   351   1      11.550000000000006      61.600000000000016      65.450000000000017
   352   1      11.550000000000006      63.525000000000006      67.375000000000014
   353   1      13.475000000000003      61.600000000000016      67.375000000000014
   354   1      13.475000000000003      63.525000000000006      65.450000000000017
   355   1      11.550000000000006      61.600000000000016      69.300000000000011
   356   1      11.550000000000006      63.525000000000006      71.225000000000023
   357   1      13.475000000000003      61.600000000000016      71.225000000000023
   358   1      13.475000000000003      63.525000000000006      69.300000000000011