model_files/Co/Co_3000/Co_433/data.Co_433_hcp_3035 (written by ASE) 

3035 	 atoms 
1  atom types
0.0                      37  xlo xhi
0.0                      37  ylo yhi
0.0                      37  zlo zhi


Atoms 

     1   1      1.2550000000000026      16.315000000000001                   17.57
     2   1      1.2550000000000026                   17.57      16.315000000000001
     3   1                       0                   17.57                   17.57
     4   1      1.2550000000000026                   17.57      18.824999999999999
     5   1      1.2550000000000026      18.824999999999999                   17.57
     6   1      3.7650000000000006      11.295000000000002                   17.57
     7   1      3.7650000000000006      12.550000000000001      16.315000000000001
     8   1      3.7650000000000006      13.805000000000001      15.060000000000002
     9   1      3.7650000000000006      12.550000000000001      18.824999999999999
    10   1      3.7650000000000006      13.805000000000001                   17.57
    11   1      3.7650000000000006      13.805000000000001      20.080000000000002
    12   1      3.7650000000000006      15.060000000000002      13.805000000000001
    13   1      3.7650000000000006      16.315000000000001      12.550000000000001
    14   1      2.5100000000000016      16.315000000000001      16.315000000000001
    15   1      3.7650000000000006      15.060000000000002      16.315000000000001
    16   1      3.7650000000000006      16.315000000000001      15.060000000000002
    17   1      2.5100000000000016      15.060000000000002                   17.57
    18   1      2.5100000000000016      16.315000000000001      18.824999999999999
    19   1      3.7650000000000006      15.060000000000002      18.824999999999999
    20   1      3.7650000000000006      16.315000000000001                   17.57
    21   1      3.7650000000000006      15.060000000000002      21.334999999999997
    22   1      3.7650000000000006      16.315000000000001      20.080000000000002
    23   1      3.7650000000000006      16.315000000000001                   22.59
    24   1      3.7650000000000006                   17.57      11.295000000000002
    25   1      3.7650000000000006                   17.57      13.805000000000001
    26   1      3.7650000000000006      18.824999999999999      12.550000000000001
    27   1      2.5100000000000016                   17.57      15.060000000000002
    28   1      2.5100000000000016      18.824999999999999      16.315000000000001
    29   1      3.7650000000000006                   17.57      16.315000000000001
    30   1      3.7650000000000006      18.824999999999999      15.060000000000002
    31   1      2.5100000000000016                   17.57                   17.57
    32   1      2.5100000000000016      18.824999999999999      18.824999999999999
    33   1      3.7650000000000006                   17.57      18.824999999999999
    34   1      3.7650000000000006      18.824999999999999                   17.57
    35   1      2.5100000000000016                   17.57      20.080000000000002
    36   1      3.7650000000000006                   17.57      21.334999999999997
    37   1      3.7650000000000006      18.824999999999999      20.080000000000002
    38   1      3.7650000000000006                   17.57      23.845000000000002
    39   1      3.7650000000000006      18.824999999999999                   22.59
    40   1      3.7650000000000006      20.080000000000002      13.805000000000001
    41   1      3.7650000000000006      20.080000000000002      16.315000000000001
    42   1      3.7650000000000006      21.334999999999997      15.060000000000002
    43   1      2.5100000000000016      20.080000000000002                   17.57
    44   1      3.7650000000000006      20.080000000000002      18.824999999999999
    45   1      3.7650000000000006      21.334999999999997                   17.57
    46   1      3.7650000000000006      20.080000000000002      21.334999999999997
    47   1      3.7650000000000006      21.334999999999997      20.080000000000002
    48   1      3.7650000000000006                   22.59      16.315000000000001
    49   1      3.7650000000000006                   22.59      18.824999999999999
    50   1      3.7650000000000006      23.845000000000002                   17.57
    51   1       6.275000000000003      8.7850000000000001                   17.57
    52   1      5.0200000000000022      11.295000000000002      16.315000000000001
    53   1       6.275000000000003      10.040000000000003      16.315000000000001
    54   1       6.275000000000003      11.295000000000002      15.060000000000002
    55   1      5.0200000000000022      10.040000000000003                   17.57
    56   1      5.0200000000000022      11.295000000000002      18.824999999999999
    57   1       6.275000000000003      10.040000000000003      18.824999999999999
    58   1       6.275000000000003      11.295000000000002                   17.57
    59   1       6.275000000000003      11.295000000000002      20.080000000000002
    60   1      5.0200000000000022      13.805000000000001      13.805000000000001
    61   1       6.275000000000003      12.550000000000001      13.805000000000001
    62   1       6.275000000000003      13.805000000000001      12.550000000000001
    63   1      5.0200000000000022      12.550000000000001      15.060000000000002
    64   1      5.0200000000000022      13.805000000000001      16.315000000000001
    65   1       6.275000000000003      12.550000000000001      16.315000000000001
    66   1       6.275000000000003      13.805000000000001      15.060000000000002
    67   1      5.0200000000000022      12.550000000000001                   17.57
    68   1      5.0200000000000022      13.805000000000001      18.824999999999999
    69   1       6.275000000000003      12.550000000000001      18.824999999999999
    70   1       6.275000000000003      13.805000000000001                   17.57
    71   1      5.0200000000000022      12.550000000000001      20.080000000000002
    72   1      5.0200000000000022      13.805000000000001      21.334999999999997
    73   1       6.275000000000003      12.550000000000001      21.334999999999997
    74   1       6.275000000000003      13.805000000000001      20.080000000000002
    75   1       6.275000000000003      13.805000000000001                   22.59
    76   1      5.0200000000000022      16.315000000000001      11.295000000000002
    77   1       6.275000000000003      15.060000000000002      11.295000000000002
    78   1       6.275000000000003      16.315000000000001      10.040000000000003
    79   1      5.0200000000000022      15.060000000000002      12.550000000000001
    80   1      5.0200000000000022      16.315000000000001      13.805000000000001
    81   1       6.275000000000003      15.060000000000002      13.805000000000001
    82   1       6.275000000000003      16.315000000000001      12.550000000000001
    83   1      5.0200000000000022      15.060000000000002      15.060000000000002
    84   1      5.0200000000000022      16.315000000000001      16.315000000000001
    85   1       6.275000000000003      15.060000000000002      16.315000000000001
    86   1       6.275000000000003      16.315000000000001      15.060000000000002
    87   1      5.0200000000000022      15.060000000000002                   17.57
    88   1      5.0200000000000022      16.315000000000001      18.824999999999999
    89   1       6.275000000000003      15.060000000000002      18.824999999999999
    90   1       6.275000000000003      16.315000000000001                   17.57
    91   1      5.0200000000000022      15.060000000000002      20.080000000000002
    92   1      5.0200000000000022      16.315000000000001      21.334999999999997
    93   1       6.275000000000003      15.060000000000002      21.334999999999997
    94   1       6.275000000000003      16.315000000000001      20.080000000000002
    95   1      5.0200000000000022      15.060000000000002                   22.59
    96   1      5.0200000000000022      16.315000000000001      23.845000000000002
    97   1       6.275000000000003      15.060000000000002      23.845000000000002
    98   1       6.275000000000003      16.315000000000001                   22.59
    99   1       6.275000000000003      16.315000000000001      25.100000000000001
   100   1       6.275000000000003                   17.57      8.7850000000000001
   101   1      5.0200000000000022                   17.57      10.040000000000003
   102   1      5.0200000000000022      18.824999999999999      11.295000000000002
   103   1       6.275000000000003                   17.57      11.295000000000002
   104   1       6.275000000000003      18.824999999999999      10.040000000000003
   105   1      5.0200000000000022                   17.57      12.550000000000001
   106   1      5.0200000000000022      18.824999999999999      13.805000000000001
   107   1       6.275000000000003                   17.57      13.805000000000001
   108   1       6.275000000000003      18.824999999999999      12.550000000000001
   109   1      5.0200000000000022                   17.57      15.060000000000002
   110   1      5.0200000000000022      18.824999999999999      16.315000000000001
   111   1       6.275000000000003                   17.57      16.315000000000001
   112   1       6.275000000000003      18.824999999999999      15.060000000000002
   113   1      5.0200000000000022                   17.57                   17.57
   114   1      5.0200000000000022      18.824999999999999      18.824999999999999
   115   1       6.275000000000003                   17.57      18.824999999999999
   116   1       6.275000000000003      18.824999999999999                   17.57
   117   1      5.0200000000000022                   17.57      20.080000000000002
   118   1      5.0200000000000022      18.824999999999999      21.334999999999997
   119   1       6.275000000000003                   17.57      21.334999999999997
   120   1       6.275000000000003      18.824999999999999      20.080000000000002
   121   1      5.0200000000000022                   17.57                   22.59
   122   1      5.0200000000000022      18.824999999999999      23.845000000000002
   123   1       6.275000000000003                   17.57      23.845000000000002
   124   1       6.275000000000003      18.824999999999999                   22.59
   125   1      5.0200000000000022                   17.57      25.100000000000001
   126   1       6.275000000000003                   17.57                  26.355
   127   1       6.275000000000003      18.824999999999999      25.100000000000001
   128   1       6.275000000000003      20.080000000000002      11.295000000000002
   129   1      5.0200000000000022      20.080000000000002      12.550000000000001
   130   1      5.0200000000000022      21.334999999999997      13.805000000000001
   131   1       6.275000000000003      20.080000000000002      13.805000000000001
   132   1       6.275000000000003      21.334999999999997      12.550000000000001
   133   1      5.0200000000000022      20.080000000000002      15.060000000000002
   134   1      5.0200000000000022      21.334999999999997      16.315000000000001
   135   1       6.275000000000003      20.080000000000002      16.315000000000001
   136   1       6.275000000000003      21.334999999999997      15.060000000000002
   137   1      5.0200000000000022      20.080000000000002                   17.57
   138   1      5.0200000000000022      21.334999999999997      18.824999999999999
   139   1       6.275000000000003      20.080000000000002      18.824999999999999
   140   1       6.275000000000003      21.334999999999997                   17.57
   141   1      5.0200000000000022      20.080000000000002      20.080000000000002
   142   1      5.0200000000000022      21.334999999999997      21.334999999999997
   143   1       6.275000000000003      20.080000000000002      21.334999999999997
   144   1       6.275000000000003      21.334999999999997      20.080000000000002
   145   1      5.0200000000000022      20.080000000000002                   22.59
   146   1       6.275000000000003      20.080000000000002      23.845000000000002
   147   1       6.275000000000003      21.334999999999997                   22.59
   148   1       6.275000000000003                   22.59      13.805000000000001
   149   1      5.0200000000000022                   22.59      15.060000000000002
   150   1      5.0200000000000022      23.845000000000002      16.315000000000001
   151   1       6.275000000000003                   22.59      16.315000000000001
   152   1       6.275000000000003      23.845000000000002      15.060000000000002
   153   1      5.0200000000000022                   22.59                   17.57
   154   1      5.0200000000000022      23.845000000000002      18.824999999999999
   155   1       6.275000000000003                   22.59      18.824999999999999
   156   1       6.275000000000003      23.845000000000002                   17.57
   157   1      5.0200000000000022                   22.59      20.080000000000002
   158   1       6.275000000000003                   22.59      21.334999999999997
   159   1       6.275000000000003      23.845000000000002      20.080000000000002
   160   1       6.275000000000003      25.100000000000001      16.315000000000001
   161   1      5.0200000000000022      25.100000000000001                   17.57
   162   1       6.275000000000003      25.100000000000001      18.824999999999999
   163   1       6.275000000000003                  26.355                   17.57
   164   1      8.7850000000000001       6.275000000000003                   17.57
   165   1      7.5300000000000011      8.7850000000000001      16.315000000000001
   166   1      8.7850000000000001      7.5300000000000011      16.315000000000001
   167   1      8.7850000000000001      8.7850000000000001      15.060000000000002
   168   1      7.5300000000000011      7.5300000000000011                   17.57
   169   1      7.5300000000000011      8.7850000000000001      18.824999999999999
   170   1      8.7850000000000001      7.5300000000000011      18.824999999999999
   171   1      8.7850000000000001      8.7850000000000001                   17.57
   172   1      8.7850000000000001      8.7850000000000001      20.080000000000002
   173   1      7.5300000000000011      11.295000000000002      13.805000000000001
   174   1      8.7850000000000001      10.040000000000003      13.805000000000001
   175   1      8.7850000000000001      11.295000000000002      12.550000000000001
   176   1      7.5300000000000011      10.040000000000003      15.060000000000002
   177   1      7.5300000000000011      11.295000000000002      16.315000000000001
   178   1      8.7850000000000001      10.040000000000003      16.315000000000001
   179   1      8.7850000000000001      11.295000000000002      15.060000000000002
   180   1      7.5300000000000011      10.040000000000003                   17.57
   181   1      7.5300000000000011      11.295000000000002      18.824999999999999
   182   1      8.7850000000000001      10.040000000000003      18.824999999999999
   183   1      8.7850000000000001      11.295000000000002                   17.57
   184   1      7.5300000000000011      10.040000000000003      20.080000000000002
   185   1      7.5300000000000011      11.295000000000002      21.334999999999997
   186   1      8.7850000000000001      10.040000000000003      21.334999999999997
   187   1      8.7850000000000001      11.295000000000002      20.080000000000002
   188   1      8.7850000000000001      11.295000000000002                   22.59
   189   1      7.5300000000000011      13.805000000000001      11.295000000000002
   190   1      8.7850000000000001      12.550000000000001      11.295000000000002
   191   1      8.7850000000000001      13.805000000000001      10.040000000000003
   192   1      7.5300000000000011      12.550000000000001      12.550000000000001
   193   1      7.5300000000000011      13.805000000000001      13.805000000000001
   194   1      8.7850000000000001      12.550000000000001      13.805000000000001
   195   1      8.7850000000000001      13.805000000000001      12.550000000000001
   196   1      7.5300000000000011      12.550000000000001      15.060000000000002
   197   1      7.5300000000000011      13.805000000000001      16.315000000000001
   198   1      8.7850000000000001      12.550000000000001      16.315000000000001
   199   1      8.7850000000000001      13.805000000000001      15.060000000000002
   200   1      7.5300000000000011      12.550000000000001                   17.57
   201   1      7.5300000000000011      13.805000000000001      18.824999999999999
   202   1      8.7850000000000001      12.550000000000001      18.824999999999999
   203   1      8.7850000000000001      13.805000000000001                   17.57
   204   1      7.5300000000000011      12.550000000000001      20.080000000000002
   205   1      7.5300000000000011      13.805000000000001      21.334999999999997
   206   1      8.7850000000000001      12.550000000000001      21.334999999999997
   207   1      8.7850000000000001      13.805000000000001      20.080000000000002
   208   1      7.5300000000000011      12.550000000000001                   22.59
   209   1      7.5300000000000011      13.805000000000001      23.845000000000002
   210   1      8.7850000000000001      12.550000000000001      23.845000000000002
   211   1      8.7850000000000001      13.805000000000001                   22.59
   212   1      8.7850000000000001      13.805000000000001      25.100000000000001
   213   1      7.5300000000000011      16.315000000000001      8.7850000000000001
   214   1      8.7850000000000001      15.060000000000002      8.7850000000000001
   215   1      8.7850000000000001      16.315000000000001      7.5300000000000011
   216   1      7.5300000000000011      15.060000000000002      10.040000000000003
   217   1      7.5300000000000011      16.315000000000001      11.295000000000002
   218   1      8.7850000000000001      15.060000000000002      11.295000000000002
   219   1      8.7850000000000001      16.315000000000001      10.040000000000003
   220   1      7.5300000000000011      15.060000000000002      12.550000000000001
   221   1      7.5300000000000011      16.315000000000001      13.805000000000001
   222   1      8.7850000000000001      15.060000000000002      13.805000000000001
   223   1      8.7850000000000001      16.315000000000001      12.550000000000001
   224   1      7.5300000000000011      15.060000000000002      15.060000000000002
   225   1      7.5300000000000011      16.315000000000001      16.315000000000001
   226   1      8.7850000000000001      15.060000000000002      16.315000000000001
   227   1      8.7850000000000001      16.315000000000001      15.060000000000002
   228   1      7.5300000000000011      15.060000000000002                   17.57
   229   1      7.5300000000000011      16.315000000000001      18.824999999999999
   230   1      8.7850000000000001      15.060000000000002      18.824999999999999
   231   1      8.7850000000000001      16.315000000000001                   17.57
   232   1      7.5300000000000011      15.060000000000002      20.080000000000002
   233   1      7.5300000000000011      16.315000000000001      21.334999999999997
   234   1      8.7850000000000001      15.060000000000002      21.334999999999997
   235   1      8.7850000000000001      16.315000000000001      20.080000000000002
   236   1      7.5300000000000011      15.060000000000002                   22.59
   237   1      7.5300000000000011      16.315000000000001      23.845000000000002
   238   1      8.7850000000000001      15.060000000000002      23.845000000000002
   239   1      8.7850000000000001      16.315000000000001                   22.59
   240   1      7.5300000000000011      15.060000000000002      25.100000000000001
   241   1      7.5300000000000011      16.315000000000001                  26.355
   242   1      8.7850000000000001      15.060000000000002                  26.355
   243   1      8.7850000000000001      16.315000000000001      25.100000000000001
   244   1      8.7850000000000001      16.315000000000001      27.610000000000003
   245   1      8.7850000000000001                   17.57       6.275000000000003
   246   1      7.5300000000000011                   17.57      7.5300000000000011
   247   1      7.5300000000000011      18.824999999999999      8.7850000000000001
   248   1      8.7850000000000001                   17.57      8.7850000000000001
   249   1      8.7850000000000001      18.824999999999999      7.5300000000000011
   250   1      7.5300000000000011                   17.57      10.040000000000003
   251   1      7.5300000000000011      18.824999999999999      11.295000000000002
   252   1      8.7850000000000001                   17.57      11.295000000000002
   253   1      8.7850000000000001      18.824999999999999      10.040000000000003
   254   1      7.5300000000000011                   17.57      12.550000000000001
   255   1      7.5300000000000011      18.824999999999999      13.805000000000001
   256   1      8.7850000000000001                   17.57      13.805000000000001
   257   1      8.7850000000000001      18.824999999999999      12.550000000000001
   258   1      7.5300000000000011                   17.57      15.060000000000002
   259   1      7.5300000000000011      18.824999999999999      16.315000000000001
   260   1      8.7850000000000001                   17.57      16.315000000000001
   261   1      8.7850000000000001      18.824999999999999      15.060000000000002
   262   1      7.5300000000000011                   17.57                   17.57
   263   1      7.5300000000000011      18.824999999999999      18.824999999999999
   264   1      8.7850000000000001                   17.57      18.824999999999999
   265   1      8.7850000000000001      18.824999999999999                   17.57
   266   1      7.5300000000000011                   17.57      20.080000000000002
   267   1      7.5300000000000011      18.824999999999999      21.334999999999997
   268   1      8.7850000000000001                   17.57      21.334999999999997
   269   1      8.7850000000000001      18.824999999999999      20.080000000000002
   270   1      7.5300000000000011                   17.57                   22.59
   271   1      7.5300000000000011      18.824999999999999      23.845000000000002
   272   1      8.7850000000000001                   17.57      23.845000000000002
   273   1      8.7850000000000001      18.824999999999999                   22.59
   274   1      7.5300000000000011                   17.57      25.100000000000001
   275   1      7.5300000000000011      18.824999999999999                  26.355
   276   1      8.7850000000000001                   17.57                  26.355
   277   1      8.7850000000000001      18.824999999999999      25.100000000000001
   278   1      7.5300000000000011                   17.57      27.610000000000003
   279   1      8.7850000000000001                   17.57      28.864999999999998
   280   1      8.7850000000000001      18.824999999999999      27.610000000000003
   281   1      8.7850000000000001      20.080000000000002      8.7850000000000001
   282   1      7.5300000000000011      20.080000000000002      10.040000000000003
   283   1      7.5300000000000011      21.334999999999997      11.295000000000002
   284   1      8.7850000000000001      20.080000000000002      11.295000000000002
   285   1      8.7850000000000001      21.334999999999997      10.040000000000003
   286   1      7.5300000000000011      20.080000000000002      12.550000000000001
   287   1      7.5300000000000011      21.334999999999997      13.805000000000001
   288   1      8.7850000000000001      20.080000000000002      13.805000000000001
   289   1      8.7850000000000001      21.334999999999997      12.550000000000001
   290   1      7.5300000000000011      20.080000000000002      15.060000000000002
   291   1      7.5300000000000011      21.334999999999997      16.315000000000001
   292   1      8.7850000000000001      20.080000000000002      16.315000000000001
   293   1      8.7850000000000001      21.334999999999997      15.060000000000002
   294   1      7.5300000000000011      20.080000000000002                   17.57
   295   1      7.5300000000000011      21.334999999999997      18.824999999999999
   296   1      8.7850000000000001      20.080000000000002      18.824999999999999
   297   1      8.7850000000000001      21.334999999999997                   17.57
   298   1      7.5300000000000011      20.080000000000002      20.080000000000002
   299   1      7.5300000000000011      21.334999999999997      21.334999999999997
   300   1      8.7850000000000001      20.080000000000002      21.334999999999997
   301   1      8.7850000000000001      21.334999999999997      20.080000000000002
   302   1      7.5300000000000011      20.080000000000002                   22.59
   303   1      7.5300000000000011      21.334999999999997      23.845000000000002
   304   1      8.7850000000000001      20.080000000000002      23.845000000000002
   305   1      8.7850000000000001      21.334999999999997                   22.59
   306   1      7.5300000000000011      20.080000000000002      25.100000000000001
   307   1      8.7850000000000001      20.080000000000002                  26.355
   308   1      8.7850000000000001      21.334999999999997      25.100000000000001
   309   1      8.7850000000000001                   22.59      11.295000000000002
   310   1      7.5300000000000011                   22.59      12.550000000000001
   311   1      7.5300000000000011      23.845000000000002      13.805000000000001
   312   1      8.7850000000000001                   22.59      13.805000000000001
   313   1      8.7850000000000001      23.845000000000002      12.550000000000001
   314   1      7.5300000000000011                   22.59      15.060000000000002
   315   1      7.5300000000000011      23.845000000000002      16.315000000000001
   316   1      8.7850000000000001                   22.59      16.315000000000001
   317   1      8.7850000000000001      23.845000000000002      15.060000000000002
   318   1      7.5300000000000011                   22.59                   17.57
   319   1      7.5300000000000011      23.845000000000002      18.824999999999999
   320   1      8.7850000000000001                   22.59      18.824999999999999
   321   1      8.7850000000000001      23.845000000000002                   17.57
   322   1      7.5300000000000011                   22.59      20.080000000000002
   323   1      7.5300000000000011      23.845000000000002      21.334999999999997
   324   1      8.7850000000000001                   22.59      21.334999999999997
   325   1      8.7850000000000001      23.845000000000002      20.080000000000002
   326   1      7.5300000000000011                   22.59                   22.59
   327   1      8.7850000000000001                   22.59      23.845000000000002
   328   1      8.7850000000000001      23.845000000000002                   22.59
   329   1      8.7850000000000001      25.100000000000001      13.805000000000001
   330   1      7.5300000000000011      25.100000000000001      15.060000000000002
   331   1      7.5300000000000011                  26.355      16.315000000000001
   332   1      8.7850000000000001      25.100000000000001      16.315000000000001
   333   1      8.7850000000000001                  26.355      15.060000000000002
   334   1      7.5300000000000011      25.100000000000001                   17.57
   335   1      7.5300000000000011                  26.355      18.824999999999999
   336   1      8.7850000000000001      25.100000000000001      18.824999999999999
   337   1      8.7850000000000001                  26.355                   17.57
   338   1      7.5300000000000011      25.100000000000001      20.080000000000002
   339   1      8.7850000000000001      25.100000000000001      21.334999999999997
   340   1      8.7850000000000001                  26.355      20.080000000000002
   341   1      8.7850000000000001      27.610000000000003      16.315000000000001
   342   1      7.5300000000000011      27.610000000000003                   17.57
   343   1      8.7850000000000001      27.610000000000003      18.824999999999999
   344   1      8.7850000000000001      28.864999999999998                   17.57
   345   1      11.295000000000002      3.7650000000000006                   17.57
   346   1      10.040000000000003       6.275000000000003      16.315000000000001
   347   1      11.295000000000002      5.0200000000000022      16.315000000000001
   348   1      11.295000000000002       6.275000000000003      15.060000000000002
   349   1      10.040000000000003      5.0200000000000022                   17.57
   350   1      10.040000000000003       6.275000000000003      18.824999999999999
   351   1      11.295000000000002      5.0200000000000022      18.824999999999999
   352   1      11.295000000000002       6.275000000000003                   17.57
   353   1      11.295000000000002       6.275000000000003      20.080000000000002
   354   1      10.040000000000003      8.7850000000000001      13.805000000000001
   355   1      11.295000000000002      7.5300000000000011      13.805000000000001
   356   1      11.295000000000002      8.7850000000000001      12.550000000000001
   357   1      10.040000000000003      7.5300000000000011      15.060000000000002
   358   1      10.040000000000003      8.7850000000000001      16.315000000000001