model_files/PtNi/PtNi_30000/PtNi_100/PtNi_100_fcc_29659_temp.data (written by ASE) 

29659 	 atoms 
2  atom types
0.0                      72  xlo xhi
0.0                      72  ylo yhi
0.0                      72  zlo zhi


Atoms 

     1   1  7.1054273576010019e-15  7.1054273576010019e-15       1.915000000000006
     2   1  7.1054273576010019e-15  7.1054273576010019e-15      5.7450000000000081
     3   1  7.1054273576010019e-15  7.1054273576010019e-15      9.5750000000000099
     4   1  7.1054273576010019e-15  7.1054273576010019e-15      13.405000000000006
     5   1  7.1054273576010019e-15  7.1054273576010019e-15      17.235000000000007
     6   1  7.1054273576010019e-15  7.1054273576010019e-15      21.065000000000008
     7   1  7.1054273576010019e-15  7.1054273576010019e-15       24.89500000000001
     8   1  7.1054273576010019e-15  7.1054273576010019e-15      28.725000000000005
     9   1  7.1054273576010019e-15  7.1054273576010019e-15      32.555000000000007
    10   1  7.1054273576010019e-15  7.1054273576010019e-15      36.385000000000005
    11   1  7.1054273576010019e-15  7.1054273576010019e-15      40.215000000000011
    12   1  7.1054273576010019e-15  7.1054273576010019e-15      44.045000000000002
    13   1  7.1054273576010019e-15  7.1054273576010019e-15                  47.875
    14   1  7.1054273576010019e-15  7.1054273576010019e-15      51.705000000000013
    15   1  7.1054273576010019e-15  7.1054273576010019e-15      55.535000000000011
    16   1  7.1054273576010019e-15  7.1054273576010019e-15      59.365000000000009
    17   1  7.1054273576010019e-15  7.1054273576010019e-15      63.195000000000007
    18   1  7.1054273576010019e-15  7.1054273576010019e-15      67.025000000000006
    19   1  7.1054273576010019e-15  7.1054273576010019e-15       70.85499999999999
    20   1  7.1054273576010019e-15       1.915000000000006  7.1054273576010019e-15
    21   1  7.1054273576010019e-15       1.915000000000006      3.8300000000000054
    22   1  7.1054273576010019e-15      3.8300000000000054       1.915000000000006
    23   1  7.1054273576010019e-15       1.915000000000006      7.6600000000000064
    24   1  7.1054273576010019e-15      3.8300000000000054      5.7450000000000081
    25   1  7.1054273576010019e-15       1.915000000000006      11.490000000000007
    26   1  7.1054273576010019e-15      3.8300000000000054      9.5750000000000099
    27   1  7.1054273576010019e-15       1.915000000000006      15.320000000000007
    28   1  7.1054273576010019e-15      3.8300000000000054      13.405000000000006
    29   1  7.1054273576010019e-15       1.915000000000006      19.150000000000006
    30   1  7.1054273576010019e-15      3.8300000000000054      17.235000000000007
    31   1  7.1054273576010019e-15       1.915000000000006      22.980000000000008
    32   1  7.1054273576010019e-15      3.8300000000000054      21.065000000000008
    33   1  7.1054273576010019e-15       1.915000000000006      26.810000000000006
    34   1  7.1054273576010019e-15      3.8300000000000054       24.89500000000001
    35   1  7.1054273576010019e-15       1.915000000000006      30.640000000000004
    36   1  7.1054273576010019e-15      3.8300000000000054      28.725000000000005
    37   1  7.1054273576010019e-15       1.915000000000006      34.470000000000006
    38   1  7.1054273576010019e-15      3.8300000000000054      32.555000000000007
    39   1  7.1054273576010019e-15       1.915000000000006      38.299999999999997
    40   1  7.1054273576010019e-15      3.8300000000000054      36.385000000000005
    41   1  7.1054273576010019e-15       1.915000000000006       42.13000000000001
    42   1  7.1054273576010019e-15      3.8300000000000054      40.215000000000011
    43   1  7.1054273576010019e-15       1.915000000000006      45.960000000000008
    44   1  7.1054273576010019e-15      3.8300000000000054      44.045000000000002
    45   1  7.1054273576010019e-15       1.915000000000006      49.790000000000006
    46   1  7.1054273576010019e-15      3.8300000000000054                  47.875
    47   1  7.1054273576010019e-15       1.915000000000006      53.620000000000012
    48   1  7.1054273576010019e-15      3.8300000000000054      51.705000000000013
    49   1  7.1054273576010019e-15       1.915000000000006      57.450000000000003
    50   1  7.1054273576010019e-15      3.8300000000000054      55.535000000000011
    51   1  7.1054273576010019e-15       1.915000000000006      61.280000000000001
    52   1  7.1054273576010019e-15      3.8300000000000054      59.365000000000009
    53   1  7.1054273576010019e-15       1.915000000000006      65.110000000000014
    54   1  7.1054273576010019e-15      3.8300000000000054      63.195000000000007
    55   1  7.1054273576010019e-15       1.915000000000006      68.940000000000012
    56   1  7.1054273576010019e-15      3.8300000000000054      67.025000000000006
    57   1  7.1054273576010019e-15       1.915000000000006     0.77000000000000834
    58   1  7.1054273576010019e-15      3.8300000000000054       70.85499999999999
    59   1  7.1054273576010019e-15      5.7450000000000081  7.1054273576010019e-15
    60   1  7.1054273576010019e-15      5.7450000000000081      3.8300000000000054
    61   1  7.1054273576010019e-15      7.6600000000000064       1.915000000000006
    62   1  7.1054273576010019e-15      5.7450000000000081      7.6600000000000064
    63   1  7.1054273576010019e-15      7.6600000000000064      5.7450000000000081
    64   1  7.1054273576010019e-15      5.7450000000000081      11.490000000000007
    65   1  7.1054273576010019e-15      7.6600000000000064      9.5750000000000099
    66   1  7.1054273576010019e-15      5.7450000000000081      15.320000000000007
    67   1  7.1054273576010019e-15      7.6600000000000064      13.405000000000006
    68   1  7.1054273576010019e-15      5.7450000000000081      19.150000000000006
    69   1  7.1054273576010019e-15      7.6600000000000064      17.235000000000007
    70   1  7.1054273576010019e-15      5.7450000000000081      22.980000000000008
    71   1  7.1054273576010019e-15      7.6600000000000064      21.065000000000008
    72   1  7.1054273576010019e-15      5.7450000000000081      26.810000000000006
    73   1  7.1054273576010019e-15      7.6600000000000064       24.89500000000001
    74   1  7.1054273576010019e-15      5.7450000000000081      30.640000000000004
    75   1  7.1054273576010019e-15      7.6600000000000064      28.725000000000005
    76   1  7.1054273576010019e-15      5.7450000000000081      34.470000000000006
    77   1  7.1054273576010019e-15      7.6600000000000064      32.555000000000007
    78   1  7.1054273576010019e-15      5.7450000000000081      38.299999999999997
    79   1  7.1054273576010019e-15      7.6600000000000064      36.385000000000005
    80   1  7.1054273576010019e-15      5.7450000000000081       42.13000000000001
    81   1  7.1054273576010019e-15      7.6600000000000064      40.215000000000011
    82   1  7.1054273576010019e-15      5.7450000000000081      45.960000000000008
    83   1  7.1054273576010019e-15      7.6600000000000064      44.045000000000002
    84   1  7.1054273576010019e-15      5.7450000000000081      49.790000000000006
    85   1  7.1054273576010019e-15      7.6600000000000064                  47.875
    86   1  7.1054273576010019e-15      5.7450000000000081      53.620000000000012
    87   1  7.1054273576010019e-15      7.6600000000000064      51.705000000000013
    88   1  7.1054273576010019e-15      5.7450000000000081      57.450000000000003
    89   1  7.1054273576010019e-15      7.6600000000000064      55.535000000000011
    90   1  7.1054273576010019e-15      5.7450000000000081      61.280000000000001
    91   1  7.1054273576010019e-15      7.6600000000000064      59.365000000000009
    92   1  7.1054273576010019e-15      5.7450000000000081      65.110000000000014
    93   1  7.1054273576010019e-15      7.6600000000000064      63.195000000000007
    94   1  7.1054273576010019e-15      5.7450000000000081      68.940000000000012
    95   1  7.1054273576010019e-15      7.6600000000000064      67.025000000000006
    96   1  7.1054273576010019e-15      5.7450000000000081     0.77000000000000834
    97   1  7.1054273576010019e-15      7.6600000000000064       70.85499999999999
    98   1  7.1054273576010019e-15      9.5750000000000099  7.1054273576010019e-15
    99   1  7.1054273576010019e-15      9.5750000000000099      3.8300000000000054
   100   1  7.1054273576010019e-15      11.490000000000007       1.915000000000006
   101   1  7.1054273576010019e-15      9.5750000000000099      7.6600000000000064
   102   1  7.1054273576010019e-15      11.490000000000007      5.7450000000000081
   103   1  7.1054273576010019e-15      9.5750000000000099      11.490000000000007
   104   1  7.1054273576010019e-15      11.490000000000007      9.5750000000000099
   105   1  7.1054273576010019e-15      9.5750000000000099      15.320000000000007
   106   1  7.1054273576010019e-15      11.490000000000007      13.405000000000006
   107   1  7.1054273576010019e-15      9.5750000000000099      19.150000000000006
   108   1  7.1054273576010019e-15      11.490000000000007      17.235000000000007
   109   1  7.1054273576010019e-15      9.5750000000000099      22.980000000000008
   110   1  7.1054273576010019e-15      11.490000000000007      21.065000000000008
   111   1  7.1054273576010019e-15      9.5750000000000099      26.810000000000006
   112   1  7.1054273576010019e-15      11.490000000000007       24.89500000000001
   113   1  7.1054273576010019e-15      9.5750000000000099      30.640000000000004
   114   1  7.1054273576010019e-15      11.490000000000007      28.725000000000005
   115   1  7.1054273576010019e-15      9.5750000000000099      34.470000000000006
   116   1  7.1054273576010019e-15      11.490000000000007      32.555000000000007
   117   1  7.1054273576010019e-15      9.5750000000000099      38.299999999999997
   118   1  7.1054273576010019e-15      11.490000000000007      36.385000000000005
   119   1  7.1054273576010019e-15      9.5750000000000099       42.13000000000001
   120   1  7.1054273576010019e-15      11.490000000000007      40.215000000000011
   121   1  7.1054273576010019e-15      9.5750000000000099      45.960000000000008
   122   1  7.1054273576010019e-15      11.490000000000007      44.045000000000002
   123   1  7.1054273576010019e-15      9.5750000000000099      49.790000000000006
   124   1  7.1054273576010019e-15      11.490000000000007                  47.875
   125   1  7.1054273576010019e-15      9.5750000000000099      53.620000000000012
   126   1  7.1054273576010019e-15      11.490000000000007      51.705000000000013
   127   1  7.1054273576010019e-15      9.5750000000000099      57.450000000000003
   128   1  7.1054273576010019e-15      11.490000000000007      55.535000000000011
   129   1  7.1054273576010019e-15      9.5750000000000099      61.280000000000001
   130   1  7.1054273576010019e-15      11.490000000000007      59.365000000000009
   131   1  7.1054273576010019e-15      9.5750000000000099      65.110000000000014
   132   1  7.1054273576010019e-15      11.490000000000007      63.195000000000007
   133   1  7.1054273576010019e-15      9.5750000000000099      68.940000000000012
   134   1  7.1054273576010019e-15      11.490000000000007      67.025000000000006
   135   1  7.1054273576010019e-15      9.5750000000000099     0.77000000000000834
   136   1  7.1054273576010019e-15      11.490000000000007       70.85499999999999
   137   1  7.1054273576010019e-15      13.405000000000006  7.1054273576010019e-15
   138   1  7.1054273576010019e-15      13.405000000000006      3.8300000000000054
   139   1  7.1054273576010019e-15      15.320000000000007       1.915000000000006
   140   1  7.1054273576010019e-15      13.405000000000006      7.6600000000000064
   141   1  7.1054273576010019e-15      15.320000000000007      5.7450000000000081
   142   1  7.1054273576010019e-15      13.405000000000006      11.490000000000007
   143   1  7.1054273576010019e-15      15.320000000000007      9.5750000000000099
   144   1  7.1054273576010019e-15      13.405000000000006      15.320000000000007
   145   1  7.1054273576010019e-15      15.320000000000007      13.405000000000006
   146   1  7.1054273576010019e-15      13.405000000000006      19.150000000000006
   147   1  7.1054273576010019e-15      15.320000000000007      17.235000000000007
   148   1  7.1054273576010019e-15      13.405000000000006      22.980000000000008
   149   1  7.1054273576010019e-15      15.320000000000007      21.065000000000008
   150   1  7.1054273576010019e-15      13.405000000000006      26.810000000000006
   151   1  7.1054273576010019e-15      15.320000000000007       24.89500000000001
   152   1  7.1054273576010019e-15      13.405000000000006      30.640000000000004
   153   1  7.1054273576010019e-15      15.320000000000007      28.725000000000005
   154   1  7.1054273576010019e-15      13.405000000000006      34.470000000000006
   155   1  7.1054273576010019e-15      15.320000000000007      32.555000000000007
   156   1  7.1054273576010019e-15      13.405000000000006      38.299999999999997
   157   1  7.1054273576010019e-15      15.320000000000007      36.385000000000005
   158   1  7.1054273576010019e-15      13.405000000000006       42.13000000000001
   159   1  7.1054273576010019e-15      15.320000000000007      40.215000000000011
   160   1  7.1054273576010019e-15      13.405000000000006      45.960000000000008
   161   1  7.1054273576010019e-15      15.320000000000007      44.045000000000002
   162   1  7.1054273576010019e-15      13.405000000000006      49.790000000000006
   163   1  7.1054273576010019e-15      15.320000000000007                  47.875
   164   1  7.1054273576010019e-15      13.405000000000006      53.620000000000012
   165   1  7.1054273576010019e-15      15.320000000000007      51.705000000000013
   166   1  7.1054273576010019e-15      13.405000000000006      57.450000000000003
   167   1  7.1054273576010019e-15      15.320000000000007      55.535000000000011
   168   1  7.1054273576010019e-15      13.405000000000006      61.280000000000001
   169   1  7.1054273576010019e-15      15.320000000000007      59.365000000000009
   170   1  7.1054273576010019e-15      13.405000000000006      65.110000000000014
   171   1  7.1054273576010019e-15      15.320000000000007      63.195000000000007
   172   1  7.1054273576010019e-15      13.405000000000006      68.940000000000012
   173   1  7.1054273576010019e-15      15.320000000000007      67.025000000000006
   174   1  7.1054273576010019e-15      13.405000000000006     0.77000000000000834
   175   1  7.1054273576010019e-15      15.320000000000007       70.85499999999999
   176   1  7.1054273576010019e-15      17.235000000000007  7.1054273576010019e-15
   177   1  7.1054273576010019e-15      17.235000000000007      3.8300000000000054
   178   1  7.1054273576010019e-15      19.150000000000006       1.915000000000006
   179   1  7.1054273576010019e-15      17.235000000000007      7.6600000000000064
   180   1  7.1054273576010019e-15      19.150000000000006      5.7450000000000081
   181   1  7.1054273576010019e-15      17.235000000000007      11.490000000000007
   182   1  7.1054273576010019e-15      19.150000000000006      9.5750000000000099
   183   1  7.1054273576010019e-15      17.235000000000007      15.320000000000007
   184   1  7.1054273576010019e-15      19.150000000000006      13.405000000000006
   185   1  7.1054273576010019e-15      17.235000000000007      19.150000000000006
   186   1  7.1054273576010019e-15      19.150000000000006      17.235000000000007
   187   1  7.1054273576010019e-15      17.235000000000007      22.980000000000008
   188   1  7.1054273576010019e-15      19.150000000000006      21.065000000000008
   189   1  7.1054273576010019e-15      17.235000000000007      26.810000000000006
   190   1  7.1054273576010019e-15      19.150000000000006       24.89500000000001
   191   1  7.1054273576010019e-15      17.235000000000007      30.640000000000004
   192   1  7.1054273576010019e-15      19.150000000000006      28.725000000000005
   193   1  7.1054273576010019e-15      17.235000000000007      34.470000000000006
   194   1  7.1054273576010019e-15      19.150000000000006      32.555000000000007
   195   1  7.1054273576010019e-15      17.235000000000007      38.299999999999997
   196   1  7.1054273576010019e-15      19.150000000000006      36.385000000000005
   197   1  7.1054273576010019e-15      17.235000000000007       42.13000000000001
   198   1  7.1054273576010019e-15      19.150000000000006      40.215000000000011
   199   1  7.1054273576010019e-15      17.235000000000007      45.960000000000008
   200   1  7.1054273576010019e-15      19.150000000000006      44.045000000000002
   201   1  7.1054273576010019e-15      17.235000000000007      49.790000000000006
   202   1  7.1054273576010019e-15      19.150000000000006                  47.875
   203   1  7.1054273576010019e-15      17.235000000000007      53.620000000000012
   204   1  7.1054273576010019e-15      19.150000000000006      51.705000000000013
   205   1  7.1054273576010019e-15      17.235000000000007      57.450000000000003
   206   1  7.1054273576010019e-15      19.150000000000006      55.535000000000011
   207   1  7.1054273576010019e-15      17.235000000000007      61.280000000000001
   208   1  7.1054273576010019e-15      19.150000000000006      59.365000000000009
   209   1  7.1054273576010019e-15      17.235000000000007      65.110000000000014
   210   1  7.1054273576010019e-15      19.150000000000006      63.195000000000007
   211   1  7.1054273576010019e-15      17.235000000000007      68.940000000000012
   212   1  7.1054273576010019e-15      19.150000000000006      67.025000000000006
   213   1  7.1054273576010019e-15      17.235000000000007     0.77000000000000834
   214   1  7.1054273576010019e-15      19.150000000000006       70.85499999999999
   215   1  7.1054273576010019e-15      21.065000000000008  7.1054273576010019e-15
   216   1  7.1054273576010019e-15      21.065000000000008      3.8300000000000054
   217   1  7.1054273576010019e-15      22.980000000000008       1.915000000000006
   218   1  7.1054273576010019e-15      21.065000000000008      7.6600000000000064
   219   1  7.1054273576010019e-15      22.980000000000008      5.7450000000000081
   220   1  7.1054273576010019e-15      21.065000000000008      11.490000000000007
   221   1  7.1054273576010019e-15      22.980000000000008      9.5750000000000099
   222   1  7.1054273576010019e-15      21.065000000000008      15.320000000000007
   223   1  7.1054273576010019e-15      22.980000000000008      13.405000000000006
   224   1  7.1054273576010019e-15      21.065000000000008      19.150000000000006
   225   1  7.1054273576010019e-15      22.980000000000008      17.235000000000007
   226   1  7.1054273576010019e-15      21.065000000000008      22.980000000000008
   227   1  7.1054273576010019e-15      22.980000000000008      21.065000000000008
   228   1  7.1054273576010019e-15      21.065000000000008      26.810000000000006
   229   1  7.1054273576010019e-15      22.980000000000008       24.89500000000001
   230   1  7.1054273576010019e-15      21.065000000000008      30.640000000000004
   231   1  7.1054273576010019e-15      22.980000000000008      28.725000000000005
   232   1  7.1054273576010019e-15      21.065000000000008      34.470000000000006
   233   1  7.1054273576010019e-15      22.980000000000008      32.555000000000007
   234   1  7.1054273576010019e-15      21.065000000000008      38.299999999999997
   235   1  7.1054273576010019e-15      22.980000000000008      36.385000000000005
   236   1  7.1054273576010019e-15      21.065000000000008       42.13000000000001
   237   1  7.1054273576010019e-15      22.980000000000008      40.215000000000011
   238   1  7.1054273576010019e-15      21.065000000000008      45.960000000000008
   239   1  7.1054273576010019e-15      22.980000000000008      44.045000000000002
   240   1  7.1054273576010019e-15      21.065000000000008      49.790000000000006
   241   1  7.1054273576010019e-15      22.980000000000008                  47.875
   242   1  7.1054273576010019e-15      21.065000000000008      53.620000000000012
   243   1  7.1054273576010019e-15      22.980000000000008      51.705000000000013
   244   1  7.1054273576010019e-15      21.065000000000008      57.450000000000003
   245   1  7.1054273576010019e-15      22.980000000000008      55.535000000000011
   246   1  7.1054273576010019e-15      21.065000000000008      61.280000000000001
   247   1  7.1054273576010019e-15      22.980000000000008      59.365000000000009
   248   1  7.1054273576010019e-15      21.065000000000008      65.110000000000014
   249   1  7.1054273576010019e-15      22.980000000000008      63.195000000000007
   250   1  7.1054273576010019e-15      21.065000000000008      68.940000000000012
   251   1  7.1054273576010019e-15      22.980000000000008      67.025000000000006
   252   1  7.1054273576010019e-15      21.065000000000008     0.77000000000000834
   253   1  7.1054273576010019e-15      22.980000000000008       70.85499999999999
   254   1  7.1054273576010019e-15       24.89500000000001  7.1054273576010019e-15
   255   1  7.1054273576010019e-15       24.89500000000001      3.8300000000000054
   256   1  7.1054273576010019e-15      26.810000000000006       1.915000000000006
   257   1  7.1054273576010019e-15       24.89500000000001      7.6600000000000064
   258   1  7.1054273576010019e-15      26.810000000000006      5.7450000000000081
   259   1  7.1054273576010019e-15       24.89500000000001      11.490000000000007
   260   1  7.1054273576010019e-15      26.810000000000006      9.5750000000000099
   261   1  7.1054273576010019e-15       24.89500000000001      15.320000000000007
   262   1  7.1054273576010019e-15      26.810000000000006      13.405000000000006
   263   1  7.1054273576010019e-15       24.89500000000001      19.150000000000006
   264   1  7.1054273576010019e-15      26.810000000000006      17.235000000000007
   265   1  7.1054273576010019e-15       24.89500000000001      22.980000000000008
   266   1  7.1054273576010019e-15      26.810000000000006      21.065000000000008
   267   1  7.1054273576010019e-15       24.89500000000001      26.810000000000006
   268   1  7.1054273576010019e-15      26.810000000000006       24.89500000000001
   269   1  7.1054273576010019e-15       24.89500000000001      30.640000000000004
   270   1  7.1054273576010019e-15      26.810000000000006      28.725000000000005
   271   1  7.1054273576010019e-15       24.89500000000001      34.470000000000006
   272   1  7.1054273576010019e-15      26.810000000000006      32.555000000000007
   273   1  7.1054273576010019e-15       24.89500000000001      38.299999999999997
   274   1  7.1054273576010019e-15      26.810000000000006      36.385000000000005
   275   1  7.1054273576010019e-15       24.89500000000001       42.13000000000001
   276   1  7.1054273576010019e-15      26.810000000000006      40.215000000000011
   277   1  7.1054273576010019e-15       24.89500000000001      45.960000000000008
   278   1  7.1054273576010019e-15      26.810000000000006      44.045000000000002
   279   1  7.1054273576010019e-15       24.89500000000001      49.790000000000006
   280   1  7.1054273576010019e-15      26.810000000000006                  47.875
   281   1  7.1054273576010019e-15       24.89500000000001      53.620000000000012
   282   1  7.1054273576010019e-15      26.810000000000006      51.705000000000013
   283   1  7.1054273576010019e-15       24.89500000000001      57.450000000000003
   284   1  7.1054273576010019e-15      26.810000000000006      55.535000000000011
   285   1  7.1054273576010019e-15       24.89500000000001      61.280000000000001
   286   1  7.1054273576010019e-15      26.810000000000006      59.365000000000009
   287   1  7.1054273576010019e-15       24.89500000000001      65.110000000000014
   288   1  7.1054273576010019e-15      26.810000000000006      63.195000000000007
   289   1  7.1054273576010019e-15       24.89500000000001      68.940000000000012
   290   1  7.1054273576010019e-15      26.810000000000006      67.025000000000006
   291   1  7.1054273576010019e-15       24.89500000000001     0.77000000000000834
   292   1  7.1054273576010019e-15      26.810000000000006       70.85499999999999
   293   1  7.1054273576010019e-15      28.725000000000005  7.1054273576010019e-15
   294   1  7.1054273576010019e-15      28.725000000000005      3.8300000000000054
   295   1  7.1054273576010019e-15      30.640000000000004       1.915000000000006
   296   1  7.1054273576010019e-15      28.725000000000005      7.6600000000000064
   297   1  7.1054273576010019e-15      30.640000000000004      5.7450000000000081
   298   1  7.1054273576010019e-15      28.725000000000005      11.490000000000007
   299   1  7.1054273576010019e-15      30.640000000000004      9.5750000000000099
   300   1  7.1054273576010019e-15      28.725000000000005      15.320000000000007
   301   1  7.1054273576010019e-15      30.640000000000004      13.405000000000006
   302   1  7.1054273576010019e-15      28.725000000000005      19.150000000000006
   303   1  7.1054273576010019e-15      30.640000000000004      17.235000000000007
   304   1  7.1054273576010019e-15      28.725000000000005      22.980000000000008
   305   1  7.1054273576010019e-15      30.640000000000004      21.065000000000008
   306   1  7.1054273576010019e-15      28.725000000000005      26.810000000000006
   307   1  7.1054273576010019e-15      30.640000000000004       24.89500000000001
   308   1  7.1054273576010019e-15      28.725000000000005      30.640000000000004
   309   1  7.1054273576010019e-15      30.640000000000004      28.725000000000005
   310   1  7.1054273576010019e-15      28.725000000000005      34.470000000000006
   311   1  7.1054273576010019e-15      30.640000000000004      32.555000000000007
   312   1  7.1054273576010019e-15      28.725000000000005      38.299999999999997
   313   1  7.1054273576010019e-15      30.640000000000004      36.385000000000005
   314   1  7.1054273576010019e-15      28.725000000000005       42.13000000000001
   315   1  7.1054273576010019e-15      30.640000000000004      40.215000000000011
   316   1  7.1054273576010019e-15      28.725000000000005      45.960000000000008
   317   1  7.1054273576010019e-15      30.640000000000004      44.045000000000002
   318   1  7.1054273576010019e-15      28.725000000000005      49.790000000000006
   319   1  7.1054273576010019e-15      30.640000000000004                  47.875
   320   1  7.1054273576010019e-15      28.725000000000005      53.620000000000012
   321   1  7.1054273576010019e-15      30.640000000000004      51.705000000000013
   322   1  7.1054273576010019e-15      28.725000000000005      57.450000000000003
   323   1  7.1054273576010019e-15      30.640000000000004      55.535000000000011
   324   1  7.1054273576010019e-15      28.725000000000005      61.280000000000001
   325   1  7.1054273576010019e-15      30.640000000000004      59.365000000000009
   326   1  7.1054273576010019e-15      28.725000000000005      65.110000000000014
   327   1  7.1054273576010019e-15      30.640000000000004      63.195000000000007
   328   1  7.1054273576010019e-15      28.725000000000005      68.940000000000012
   329   1  7.1054273576010019e-15      30.640000000000004      67.025000000000006
   330   1  7.1054273576010019e-15      28.725000000000005     0.77000000000000834
   331   1  7.1054273576010019e-15      30.640000000000004       70.85499999999999
   332   1  7.1054273576010019e-15      32.555000000000007  7.1054273576010019e-15
   333   1  7.1054273576010019e-15      32.555000000000007      3.8300000000000054
   334   1  7.1054273576010019e-15      34.470000000000006       1.915000000000006
   335   1  7.1054273576010019e-15      32.555000000000007      7.6600000000000064
   336   1  7.1054273576010019e-15      34.470000000000006      5.7450000000000081
   337   1  7.1054273576010019e-15      32.555000000000007      11.490000000000007
   338   1  7.1054273576010019e-15      34.470000000000006      9.5750000000000099
   339   1  7.1054273576010019e-15      32.555000000000007      15.320000000000007
   340   1  7.1054273576010019e-15      34.470000000000006      13.405000000000006
   341   1  7.1054273576010019e-15      32.555000000000007      19.150000000000006
   342   1  7.1054273576010019e-15      34.470000000000006      17.235000000000007
   343   1  7.1054273576010019e-15      32.555000000000007      22.980000000000008
   344   1  7.1054273576010019e-15      34.470000000000006      21.065000000000008
   345   1  7.1054273576010019e-15      32.555000000000007      26.810000000000006
   346   1  7.1054273576010019e-15      34.470000000000006       24.89500000000001
   347   1  7.1054273576010019e-15      32.555000000000007      30.640000000000004
   348   1  7.1054273576010019e-15      34.470000000000006      28.725000000000005
   349   1  7.1054273576010019e-15      32.555000000000007      34.470000000000006
   350   1  7.1054273576010019e-15      34.470000000000006      32.555000000000007
   351   1  7.1054273576010019e-15      32.555000000000007      38.299999999999997
   352   1  7.1054273576010019e-15      34.470000000000006      36.385000000000005
   353   1  7.1054273576010019e-15      32.555000000000007       42.13000000000001
   354   1  7.1054273576010019e-15      34.470000000000006      40.215000000000011
   355   1  7.1054273576010019e-15      32.555000000000007      45.960000000000008
   356   1  7.1054273576010019e-15      34.470000000000006      44.045000000000002
   357   1  7.1054273576010019e-15      32.555000000000007      49.790000000000006
   358   1  7.1054273576010019e-15      34.470000000000006                  47.875