LAMMPS data file via write_data, version 30 Nov 2020, timestep = 0

29765 atoms
5 atom types

0 103 xlo xhi
0 103 ylo yhi
0 103 zlo zhi

Masses

1 58.7
2 55.8
3 52
4 59
5 26

Atoms # atomic

1 3 0 48.73499999999999 48.73499999999999 0 0 0
2 5 1.8049999999999995 46.92999999999999 48.73499999999999 0 0 0
3 5 1.8049999999999995 48.73499999999999 46.92999999999999 0 0 0
6 4 1.8049999999999995 48.73499999999999 50.54 0 0 0
9 5 1.8049999999999995 50.54 48.73499999999999 0 0 0
11 2 0 50.54 50.54 0 0 0
18 1 3.609999999999999 45.125 45.125 0 0 0
19 4 5.414999999999999 43.31999999999999 45.125 0 0 0
20 4 5.414999999999999 45.125 43.31999999999999 0 0 0
21 2 3.609999999999999 45.125 48.73499999999999 0 0 0
22 1 5.414999999999999 43.31999999999999 48.73499999999999 0 0 0
23 3 5.414999999999999 45.125 46.92999999999999 0 0 0
26 2 5.414999999999999 45.125 50.54 0 0 0
31 5 3.609999999999999 48.73499999999999 45.125 0 0 0
32 2 5.414999999999999 46.92999999999999 45.125 0 0 0
33 4 5.414999999999999 48.73499999999999 43.31999999999999 0 0 0
34 4 3.609999999999999 46.92999999999999 46.92999999999999 0 0 0
35 2 3.609999999999999 48.73499999999999 48.73499999999999 0 0 0
36 2 5.414999999999999 46.92999999999999 48.73499999999999 0 0 0
37 5 5.414999999999999 48.73499999999999 46.92999999999999 0 0 0
38 1 3.609999999999999 46.92999999999999 50.54 0 0 0
41 1 5.414999999999999 48.73499999999999 50.54 0 0 0
48 3 5.414999999999999 50.54 45.125 0 0 0
50 4 3.609999999999999 50.54 46.92999999999999 0 0 0
52 4 5.414999999999999 50.54 48.73499999999999 0 0 0
54 2 3.609999999999999 50.54 50.54 0 0 0
83 2 9.024999999999997 37.904999999999994 39.71 0 0 0
84 4 9.024999999999997 37.904999999999994 43.31999999999999 0 0 0
85 1 9.024999999999997 37.904999999999994 46.92999999999999 0 0 0
86 4 9.024999999999997 37.904999999999994 50.54 0 0 0
90 1 9.024999999999997 39.71 37.904999999999994 0 0 0
91 4 7.219999999999998 39.71 39.71 0 0 0
92 5 7.219999999999998 41.515 41.515 0 0 0
93 3 9.024999999999997 39.71 41.515 0 0 0
94 1 9.024999999999997 41.515 39.71 0 0 0
95 2 7.219999999999998 39.71 43.31999999999999 0 0 0
96 1 7.219999999999998 41.515 45.125 0 0 0
97 4 9.024999999999997 39.71 45.125 0 0 0
98 5 9.024999999999997 41.515 43.31999999999999 0 0 0
99 1 7.219999999999998 39.71 46.92999999999999 0 0 0
100 3 7.219999999999998 41.515 48.73499999999999 0 0 0
101 4 9.024999999999997 39.71 48.73499999999999 0 0 0
102 5 9.024999999999997 41.515 46.92999999999999 0 0 0
103 4 7.219999999999998 39.71 50.54 0 0 0
106 5 9.024999999999997 41.515 50.54 0 0 0
118 4 9.024999999999997 43.31999999999999 37.904999999999994 0 0 0
119 2 7.219999999999998 43.31999999999999 39.71 0 0 0
120 2 7.219999999999998 45.125 41.515 0 0 0
121 4 9.024999999999997 43.31999999999999 41.515 0 0 0
122 2 9.024999999999997 45.125 39.71 0 0 0
123 3 7.219999999999998 43.31999999999999 43.31999999999999 0 0 0
124 5 7.219999999999998 45.125 45.125 0 0 0
125 2 9.024999999999997 43.31999999999999 45.125 0 0 0
126 5 9.024999999999997 45.125 43.31999999999999 0 0 0
127 4 7.219999999999998 43.31999999999999 46.92999999999999 0 0 0
128 4 7.219999999999998 45.125 48.73499999999999 0 0 0
129 4 9.024999999999997 43.31999999999999 48.73499999999999 0 0 0
130 3 9.024999999999997 45.125 46.92999999999999 0 0 0
131 5 7.219999999999998 43.31999999999999 50.54 0 0 0
134 3 9.024999999999997 45.125 50.54 0 0 0
146 2 9.024999999999997 46.92999999999999 37.904999999999994 0 0 0
147 1 7.219999999999998 46.92999999999999 39.71 0 0 0
148 5 7.219999999999998 48.73499999999999 41.515 0 0 0
149 5 9.024999999999997 46.92999999999999 41.515 0 0 0
150 4 9.024999999999997 48.73499999999999 39.71 0 0 0
151 5 7.219999999999998 46.92999999999999 43.31999999999999 0 0 0
152 3 7.219999999999998 48.73499999999999 45.125 0 0 0
153 5 9.024999999999997 46.92999999999999 45.125 0 0 0
154 2 9.024999999999997 48.73499999999999 43.31999999999999 0 0 0
155 2 7.219999999999998 46.92999999999999 46.92999999999999 0 0 0
156 2 7.219999999999998 48.73499999999999 48.73499999999999 0 0 0
157 5 9.024999999999997 46.92999999999999 48.73499999999999 0 0 0
158 4 9.024999999999997 48.73499999999999 46.92999999999999 0 0 0
159 3 7.219999999999998 46.92999999999999 50.54 0 0 0
162 2 9.024999999999997 48.73499999999999 50.54 0 0 0
174 1 9.024999999999997 50.54 37.904999999999994 0 0 0
175 4 7.219999999999998 50.54 39.71 0 0 0
177 4 9.024999999999997 50.54 41.515 0 0 0
179 1 7.219999999999998 50.54 43.31999999999999 0 0 0
181 4 9.024999999999997 50.54 45.125 0 0 0
183 3 7.219999999999998 50.54 46.92999999999999 0 0 0
185 2 9.024999999999997 50.54 48.73499999999999 0 0 0
187 2 7.219999999999998 50.54 50.54 0 0 0
280 3 12.634999999999996 34.295 36.1 0 0 0
281 2 12.634999999999996 34.295 39.71 0 0 0
282 1 12.634999999999996 34.295 43.31999999999999 0 0 0
283 2 12.634999999999996 34.295 46.92999999999999 0 0 0
284 4 12.634999999999996 34.295 50.54 0 0 0
289 5 12.634999999999996 36.1 34.295 0 0 0
290 1 10.829999999999998 36.1 36.1 0 0 0
291 2 10.829999999999998 37.904999999999994 37.904999999999994 0 0 0
292 1 12.634999999999996 36.1 37.904999999999994 0 0 0
293 4 12.634999999999996 37.904999999999994 36.1 0 0 0
294 5 10.829999999999998 36.1 39.71 0 0 0
295 3 10.829999999999998 37.904999999999994 41.515 0 0 0
296 3 12.634999999999996 36.1 41.515 0 0 0
297 1 12.634999999999996 37.904999999999994 39.71 0 0 0
298 4 10.829999999999998 36.1 43.31999999999999 0 0 0
299 2 10.829999999999998 37.904999999999994 45.125 0 0 0
300 2 12.634999999999996 36.1 45.125 0 0 0
301 5 12.634999999999996 37.904999999999994 43.31999999999999 0 0 0
302 3 10.829999999999998 36.1 46.92999999999999 0 0 0
303 1 10.829999999999998 37.904999999999994 48.73499999999999 0 0 0
304 2 12.634999999999996 36.1 48.73499999999999 0 0 0
305 3 12.634999999999996 37.904999999999994 46.92999999999999 0 0 0
306 3 10.829999999999998 36.1 50.54 0 0 0
309 4 12.634999999999996 37.904999999999994 50.54 0 0 0
325 1 12.634999999999996 39.71 34.295 0 0 0
326 3 10.829999999999998 39.71 36.1 0 0 0
327 2 10.829999999999998 41.515 37.904999999999994 0 0 0
328 4 12.634999999999996 39.71 37.904999999999994 0 0 0
329 2 12.634999999999996 41.515 36.1 0 0 0
330 2 10.829999999999998 39.71 39.71 0 0 0
331 5 10.829999999999998 41.515 41.515 0 0 0
332 5 12.634999999999996 39.71 41.515 0 0 0
333 1 12.634999999999996 41.515 39.71 0 0 0
334 1 10.829999999999998 39.71 43.31999999999999 0 0 0
335 2 10.829999999999998 41.515 45.125 0 0 0
336 4 12.634999999999996 39.71 45.125 0 0 0
337 5 12.634999999999996 41.515 43.31999999999999 0 0 0
338 2 10.829999999999998 39.71 46.92999999999999 0 0 0
339 2 10.829999999999998 41.515 48.73499999999999 0 0 0
340 3 12.634999999999996 39.71 48.73499999999999 0 0 0
341 3 12.634999999999996 41.515 46.92999999999999 0 0 0
342 5 10.829999999999998 39.71 50.54 0 0 0
345 2 12.634999999999996 41.515 50.54 0 0 0
361 2 12.634999999999996 43.31999999999999 34.295 0 0 0
362 3 10.829999999999998 43.31999999999999 36.1 0 0 0
363 3 10.829999999999998 45.125 37.904999999999994 0 0 0
364 2 12.634999999999996 43.31999999999999 37.904999999999994 0 0 0
365 3 12.634999999999996 45.125 36.1 0 0 0
366 2 10.829999999999998 43.31999999999999 39.71 0 0 0
367 3 10.829999999999998 45.125 41.515 0 0 0
368 4 12.634999999999996 43.31999999999999 41.515 0 0 0
369 2 12.634999999999996 45.125 39.71 0 0 0
370 3 10.829999999999998 43.31999999999999 43.31999999999999 0 0 0
371 3 10.829999999999998 45.125 45.125 0 0 0
372 5 12.634999999999996 43.31999999999999 45.125 0 0 0
373 5 12.634999999999996 45.125 43.31999999999999 0 0 0
374 3 10.829999999999998 43.31999999999999 46.92999999999999 0 0 0
375 5 10.829999999999998 45.125 48.73499999999999 0 0 0
376 2 12.634999999999996 43.31999999999999 48.73499999999999 0 0 0
377 5 12.634999999999996 45.125 46.92999999999999 0 0 0
378 3 10.829999999999998 43.31999999999999 50.54 0 0 0
381 1 12.634999999999996 45.125 50.54 0 0 0
397 1 12.634999999999996 46.92999999999999 34.295 0 0 0
398 2 10.829999999999998 46.92999999999999 36.1 0 0 0
399 2 10.829999999999998 48.73499999999999 37.904999999999994 0 0 0
400 1 12.634999999999996 46.92999999999999 37.904999999999994 0 0 0
401 1 12.634999999999996 48.73499999999999 36.1 0 0 0
402 5 10.829999999999998 46.92999999999999 39.71 0 0 0
403 1 10.829999999999998 48.73499999999999 41.515 0 0 0
404 4 12.634999999999996 46.92999999999999 41.515 0 0 0
405 5 12.634999999999996 48.73499999999999 39.71 0 0 0
406 2 10.829999999999998 46.92999999999999 43.31999999999999 0 0 0
407 5 10.829999999999998 48.73499999999999 45.125 0 0 0
408 3 12.634999999999996 46.92999999999999 45.125 0 0 0
409 2 12.634999999999996 48.73499999999999 43.31999999999999 0 0 0
410 4 10.829999999999998 46.92999999999999 46.92999999999999 0 0 0
411 1 10.829999999999998 48.73499999999999 48.73499999999999 0 0 0
412 2 12.634999999999996 46.92999999999999 48.73499999999999 0 0 0
413 2 12.634999999999996 48.73499999999999 46.92999999999999 0 0 0
414 4 10.829999999999998 46.92999999999999 50.54 0 0 0
417 1 12.634999999999996 48.73499999999999 50.54 0 0 0
433 1 12.634999999999996 50.54 34.295 0 0 0
434 5 10.829999999999998 50.54 36.1 0 0 0
436 5 12.634999999999996 50.54 37.904999999999994 0 0 0
438 1 10.829999999999998 50.54 39.71 0 0 0
440 3 12.634999999999996 50.54 41.515 0 0 0
442 5 10.829999999999998 50.54 43.31999999999999 0 0 0
444 3 12.634999999999996 50.54 45.125 0 0 0
446 4 10.829999999999998 50.54 46.92999999999999 0 0 0
448 3 12.634999999999996 50.54 48.73499999999999 0 0 0
450 1 10.829999999999998 50.54 50.54 0 0 0
605 4 14.440000000000003 30.685000000000002 30.685000000000002 0 0 0
606 5 16.244999999999994 28.88 30.685000000000002 0 0 0
607 1 16.244999999999994 30.685000000000002 28.88 0 0 0
608 4 14.440000000000003 30.685000000000002 34.295 0 0 0
609 1 16.244999999999994 28.88 34.295 0 0 0
610 2 16.244999999999994 30.685000000000002 32.489999999999995 0 0 0
611 2 14.440000000000003 30.685000000000002 37.904999999999994 0 0 0
612 4 16.244999999999994 28.88 37.904999999999994 0 0 0
613 3 16.244999999999994 30.685000000000002 36.1 0 0 0
614 4 14.440000000000003 30.685000000000002 41.515 0 0 0
615 4 16.244999999999994 28.88 41.515 0 0 0
616 2 16.244999999999994 30.685000000000002 39.71 0 0 0
617 5 14.440000000000003 30.685000000000002 45.125 0 0 0
618 4 16.244999999999994 28.88 45.125 0 0 0
619 1 16.244999999999994 30.685000000000002 43.31999999999999 0 0 0
620 3 14.440000000000003 30.685000000000002 48.73499999999999 0 0 0
621 4 16.244999999999994 28.88 48.73499999999999 0 0 0
622 5 16.244999999999994 30.685000000000002 46.92999999999999 0 0 0
625 1 16.244999999999994 30.685000000000002 50.54 0 0 0
642 1 14.440000000000003 34.295 30.685000000000002 0 0 0
643 5 16.244999999999994 32.489999999999995 30.685000000000002 0 0 0
644 1 16.244999999999994 34.295 28.88 0 0 0
645 3 14.440000000000003 32.489999999999995 32.489999999999995 0 0 0
646 2 14.440000000000003 34.295 34.295 0 0 0
647 5 16.244999999999994 32.489999999999995 34.295 0 0 0
648 1 16.244999999999994 34.295 32.489999999999995 0 0 0
649 1 14.440000000000003 32.489999999999995 36.1 0 0 0
650 2 14.440000000000003 34.295 37.904999999999994 0 0 0
651 4 16.244999999999994 32.489999999999995 37.904999999999994 0 0 0
652 1 16.244999999999994 34.295 36.1 0 0 0
653 2 14.440000000000003 32.489999999999995 39.71 0 0 0
654 2 14.440000000000003 34.295 41.515 0 0 0
655 4 16.244999999999994 32.489999999999995 41.515 0 0 0
656 1 16.244999999999994 34.295 39.71 0 0 0
657 3 14.440000000000003 32.489999999999995 43.31999999999999 0 0 0
658 3 14.440000000000003 34.295 45.125 0 0 0
659 1 16.244999999999994 32.489999999999995 45.125 0 0 0
660 5 16.244999999999994 34.295 43.31999999999999 0 0 0
661 5 14.440000000000003 32.489999999999995 46.92999999999999 0 0 0
662 2 14.440000000000003 34.295 48.73499999999999 0 0 0
663 4 16.244999999999994 32.489999999999995 48.73499999999999 0 0 0
664 5 16.244999999999994 34.295 46.92999999999999 0 0 0
665 4 14.440000000000003 32.489999999999995 50.54 0 0 0
668 1 16.244999999999994 34.295 50.54 0 0 0
690 3 14.440000000000003 37.904999999999994 30.685000000000002 0 0 0
691 1 16.244999999999994 36.1 30.685000000000002 0 0 0
692 2 16.244999999999994 37.904999999999994 28.88 0 0 0
693 5 14.440000000000003 36.1 32.489999999999995 0 0 0
694 1 14.440000000000003 37.904999999999994 34.295 0 0 0
695 3 16.244999999999994 36.1 34.295 0 0 0
696 1 16.244999999999994 37.904999999999994 32.489999999999995 0 0 0
697 1 14.440000000000003 36.1 36.1 0 0 0
698 2 14.440000000000003 37.904999999999994 37.904999999999994 0 0 0
699 2 16.244999999999994 36.1 37.904999999999994 0 0 0
700 4 16.244999999999994 37.904999999999994 36.1 0 0 0
701 5 14.440000000000003 36.1 39.71 0 0 0
702 2 14.440000000000003 37.904999999999994 41.515 0 0 0
703 3 16.244999999999994 36.1 41.515 0 0 0
704 1 16.244999999999994 37.904999999999994 39.71 0 0 0
705 2 14.440000000000003 36.1 43.31999999999999 0 0 0
706 5 14.440000000000003 37.904999999999994 45.125 0 0 0
707 4 16.244999999999994 36.1 45.125 0 0 0
708 1 16.244999999999994 37.904999999999994 43.31999999999999 0 0 0
709 1 14.440000000000003 36.1 46.92999999999999 0 0 0
710 1 14.440000000000003 37.904999999999994 48.73499999999999 0 0 0
711 1 16.244999999999994 36.1 48.73499999999999 0 0 0
712 4 16.244999999999994 37.904999999999994 46.92999999999999 0 0 0
713 4 14.440000000000003 36.1 50.54 0 0 0
716 4 16.244999999999994 37.904999999999994 50.54 0 0 0
738 2 14.440000000000003 41.515 30.685000000000002 0 0 0
739 2 16.244999999999994 39.71 30.685000000000002 0 0 0
740 2 16.244999999999994 41.515 28.88 0 0 0
741 4 14.440000000000003 39.71 32.489999999999995 0 0 0
742 3 14.440000000000003 41.515 34.295 0 0 0
743 3 16.244999999999994 39.71 34.295 0 0 0
744 2 16.244999999999994 41.515 32.489999999999995 0 0 0
745 1 14.440000000000003 39.71 36.1 0 0 0
746 1 14.440000000000003 41.515 37.904999999999994 0 0 0
747 4 16.244999999999994 39.71 37.904999999999994 0 0 0
748 1 16.244999999999994 41.515 36.1 0 0 0
749 5 14.440000000000003 39.71 39.71 0 0 0
750 4 14.440000000000003 41.515 41.515 0 0 0
751 3 16.244999999999994 39.71 41.515 0 0 0
752 2 16.244999999999994 41.515 39.71 0 0 0
753 1 14.440000000000003 39.71 43.31999999999999 0 0 0
754 3 14.440000000000003 41.515 45.125 0 0 0
755 1 16.244999999999994 39.71 45.125 0 0 0
756 2 16.244999999999994 41.515 43.31999999999999 0 0 0
757 1 14.440000000000003 39.71 46.92999999999999 0 0 0
758 1 14.440000000000003 41.515 48.73499999999999 0 0 0
759 5 16.244999999999994 39.71 48.73499999999999 0 0 0
760 5 16.244999999999994 41.515 46.92999999999999 0 0 0
761 1 14.440000000000003 39.71 50.54 0 0 0
764 3 16.244999999999994 41.515 50.54 0 0 0
786 4 14.440000000000003 45.125 30.685000000000002 0 0 0
787 5 16.244999999999994 43.31999999999999 30.685000000000002 0 0 0
788 2 16.244999999999994 45.125 28.88 0 0 0
789 3 14.440000000000003 43.31999999999999 32.489999999999995 0 0 0
790 4 14.440000000000003 45.125 34.295 0 0 0
791 2 16.244999999999994 43.31999999999999 34.295 0 0 0
792 5 16.244999999999994 45.125 32.489999999999995 0 0 0
793 1 14.440000000000003 43.31999999999999 36.1 0 0 0
794 5 14.440000000000003 45.125 37.904999999999994 0 0 0
795 4 16.244999999999994 43.31999999999999 37.904999999999994 0 0 0
796 4 16.244999999999994 45.125 36.1 0 0 0
797 3 14.440000000000003 43.31999999999999 39.71 0 0 0
798 4 14.440000000000003 45.125 41.515 0 0 0
799 5 16.244999999999994 43.31999999999999 41.515 0 0 0
800 5 16.244999999999994 45.125 39.71 0 0 0
801 2 14.440000000000003 43.31999999999999 43.31999999999999 0 0 0
802 2 14.440000000000003 45.125 45.125 0 0 0
803 5 16.244999999999994 43.31999999999999 45.125 0 0 0
804 5 16.244999999999994 45.125 43.31999999999999 0 0 0
805 1 14.440000000000003 43.31999999999999 46.92999999999999 0 0 0
806 1 14.440000000000003 45.125 48.73499999999999 0 0 0
807 3 16.244999999999994 43.31999999999999 48.73499999999999 0 0 0
808 4 16.244999999999994 45.125 46.92999999999999 0 0 0
809 1 14.440000000000003 43.31999999999999 50.54 0 0 0
812 4 16.244999999999994 45.125 50.54 0 0 0
834 4 14.440000000000003 48.73499999999999 30.685000000000002 0 0 0
835 5 16.244999999999994 46.92999999999999 30.685000000000002 0 0 0
836 1 16.244999999999994 48.73499999999999 28.88 0 0 0
837 1 14.440000000000003 46.92999999999999 32.489999999999995 0 0 0
838 3 14.440000000000003 48.73499999999999 34.295 0 0 0
839 2 16.244999999999994 46.92999999999999 34.295 0 0 0
840 4 16.244999999999994 48.73499999999999 32.489999999999995 0 0 0
841 2 14.440000000000003 46.92999999999999 36.1 0 0 0
842 3 14.440000000000003 48.73499999999999 37.904999999999994 0 0 0
843 5 16.244999999999994 46.92999999999999 37.904999999999994 0 0 0
844 3 16.244999999999994 48.73499999999999 36.1 0 0 0
845 5 14.440000000000003 46.92999999999999 39.71 0 0 0
846 1 14.440000000000003 48.73499999999999 41.515 0 0 0
847 2 16.244999999999994 46.92999999999999 41.515 0 0 0
848 5 16.244999999999994 48.73499999999999 39.71 0 0 0
849 3 14.440000000000003 46.92999999999999 43.31999999999999 0 0 0
850 3 14.440000000000003 48.73499999999999 45.125 0 0 0
851 1 16.244999999999994 46.92999999999999 45.125 0 0 0
852 5 16.244999999999994 48.73499999999999 43.31999999999999 0 0 0
853 1 14.440000000000003 46.92999999999999 46.92999999999999 0 0 0
854 5 14.440000000000003 48.73499999999999 48.73499999999999 0 0 0
855 1 16.244999999999994 46.92999999999999 48.73499999999999 0 0 0
856 1 16.244999999999994 48.73499999999999 46.92999999999999 0 0 0
857 3 14.440000000000003 46.92999999999999 50.54 0 0 0
860 4 16.244999999999994 48.73499999999999 50.54 0 0 0
883 1 16.244999999999994 50.54 30.685000000000002 0 0 0
885 1 14.440000000000003 50.54 32.489999999999995 0 0 0
887 4 16.244999999999994 50.54 34.295 0 0 0
889 1 14.440000000000003 50.54 36.1 0 0 0
891 2 16.244999999999994 50.54 37.904999999999994 0 0 0
893 5 14.440000000000003 50.54 39.71 0 0 0
895 3 16.244999999999994 50.54 41.515 0 0 0
897 4 14.440000000000003 50.54 43.31999999999999 0 0 0
899 2 16.244999999999994 50.54 45.125 0 0 0
901 1 14.440000000000003 50.54 46.92999999999999 0 0 0
903 4 16.244999999999994 50.54 48.73499999999999 0 0 0
905 2 14.440000000000003 50.54 50.54 0 0 0
1182 1 18.050000000000004 27.074999999999996 27.074999999999996 0 0 0
1183 4 19.855 25.27 27.074999999999996 0 0 0
1184 4 19.855 27.074999999999996 25.27 0 0 0
1185 1 18.050000000000004 27.074999999999996 30.685000000000002 0 0 0
1186 1 19.855 25.27 30.685000000000002 0 0 0
1187 4 19.855 27.074999999999996 28.88 0 0 0
1188 1 18.050000000000004 27.074999999999996 34.295 0 0 0
1189 5 19.855 25.27 34.295 0 0 0
1190 1 19.855 27.074999999999996 32.489999999999995 0 0 0
1191 2 18.050000000000004 27.074999999999996 37.904999999999994 0 0 0
1192 2 19.855 25.27 37.904999999999994 0 0 0
1193 1 19.855 27.074999999999996 36.1 0 0 0
1194 2 18.050000000000004 27.074999999999996 41.515 0 0 0
1195 4 19.855 25.27 41.515 0 0 0
1196 5 19.855 27.074999999999996 39.71 0 0 0
1197 3 18.050000000000004 27.074999999999996 45.125 0 0 0
1198 5 19.855 25.27 45.125 0 0 0
1199 3 19.855 27.074999999999996 43.31999999999999 0 0 0
1200 1 18.050000000000004 27.074999999999996 48.73499999999999 0 0 0
1201 2 19.855 25.27 48.73499999999999 0 0 0
1202 2 19.855 27.074999999999996 46.92999999999999 0 0 0
1205 5 19.855 27.074999999999996 50.54 0 0 0
1225 5 18.050000000000004 30.685000000000002 27.074999999999996 0 0 0
1226 4 19.855 28.88 27.074999999999996 0 0 0
1227 1 19.855 30.685000000000002 25.27 0 0 0
1228 5 18.050000000000004 28.88 28.88 0 0 0
1229 5 18.050000000000004 30.685000000000002 30.685000000000002 0 0 0
1230 1 19.855 28.88 30.685000000000002 0 0 0
1231 3 19.855 30.685000000000002 28.88 0 0 0
1232 4 18.050000000000004 28.88 32.489999999999995 0 0 0
1233 4 18.050000000000004 30.685000000000002 34.295 0 0 0
1234 1 19.855 28.88 34.295 0 0 0
1235 3 19.855 30.685000000000002 32.489999999999995 0 0 0
1236 1 18.050000000000004 28.88 36.1 0 0 0
1237 4 18.050000000000004 30.685000000000002 37.904999999999994 0 0 0
1238 5 19.855 28.88 37.904999999999994 0 0 0
1239 3 19.855 30.685000000000002 36.1 0 0 0
1240 1 18.050000000000004 28.88 39.71 0 0 0
1241 2 18.050000000000004 30.685000000000002 41.515 0 0 0
1242 1 19.855 28.88 41.515 0 0 0
1243 2 19.855 30.685000000000002 39.71 0 0 0
1244 5 18.050000000000004 28.88 43.31999999999999 0 0 0
1245 1 18.050000000000004 30.685000000000002 45.125 0 0 0
1246 2 19.855 28.88 45.125 0 0 0
1247 2 19.855 30.685000000000002 43.31999999999999 0 0 0
1248 5 18.050000000000004 28.88 46.92999999999999 0 0 0
1249 3 18.050000000000004 30.685000000000002 48.73499999999999 0 0 0
1250 1 19.855 28.88 48.73499999999999 0 0 0
1251 1 19.855 30.685000000000002 46.92999999999999 0 0 0
1252 2 18.050000000000004 28.88 50.54 0 0 0
1255 5 19.855 30.685000000000002 50.54 0 0 0
1281 1 18.050000000000004 34.295 27.074999999999996 0 0 0
1282 3 19.855 32.489999999999995 27.074999999999996 0 0 0
1283 4 19.855 34.295 25.27 0 0 0
1284 3 18.050000000000004 32.489999999999995 28.88 0 0 0
1285 4 18.050000000000004 34.295 30.685000000000002 0 0 0
1286 4 19.855 32.489999999999995 30.685000000000002 0 0 0
1287 4 19.855 34.295 28.88 0 0 0
1288 2 18.050000000000004 32.489999999999995 32.489999999999995 0 0 0
1289 2 18.050000000000004 34.295 34.295 0 0 0
1290 1 19.855 32.489999999999995 34.295 0 0 0
1291 5 19.855 34.295 32.489999999999995 0 0 0
1292 4 18.050000000000004 32.489999999999995 36.1 0 0 0
1293 2 18.050000000000004 34.295 37.904999999999994 0 0 0
1294 3 19.855 32.489999999999995 37.904999999999994 0 0 0
1295 1 19.855 34.295 36.1 0 0 0
1296 1 18.050000000000004 32.489999999999995 39.71 0 0 0
1297 1 18.050000000000004 34.295 41.515 0 0 0
1298 2 19.855 32.489999999999995 41.515 0 0 0
1299 5 19.855 34.295 39.71 0 0 0
1300 5 18.050000000000004 32.489999999999995 43.31999999999999 0 0 0
1301 5 18.050000000000004 34.295 45.125 0 0 0
1302 1 19.855 32.489999999999995 45.125 0 0 0
1303 4 19.855 34.295 43.31999999999999 0 0 0
1304 4 18.050000000000004 32.489999999999995 46.92999999999999 0 0 0
1305 4 18.050000000000004 34.295 48.73499999999999 0 0 0
1306 2 19.855 32.489999999999995 48.73499999999999 0 0 0
1307 2 19.855 34.295 46.92999999999999 0 0 0
1308 3 18.050000000000004 32.489999999999995 50.54 0 0 0
1311 1 19.855 34.295 50.54 0 0 0
1337 2 18.050000000000004 37.904999999999994 27.074999999999996 0 0 0
1338 5 19.855 36.1 27.074999999999996 0 0 0
1339 3 19.855 37.904999999999994 25.27 0 0 0
1340 5 18.050000000000004 36.1 28.88 0 0 0
1341 4 18.050000000000004 37.904999999999994 30.685000000000002 0 0 0
1342 1 19.855 36.1 30.685000000000002 0 0 0
1343 5 19.855 37.904999999999994 28.88 0 0 0
1344 2 18.050000000000004 36.1 32.489999999999995 0 0 0
1345 2 18.050000000000004 37.904999999999994 34.295 0 0 0
1346 1 19.855 36.1 34.295 0 0 0
1347 1 19.855 37.904999999999994 32.489999999999995 0 0 0
1348 5 18.050000000000004 36.1 36.1 0 0 0
1349 3 18.050000000000004 37.904999999999994 37.904999999999994 0 0 0
1350 5 19.855 36.1 37.904999999999994 0 0 0
1351 5 19.855 37.904999999999994 36.1 0 0 0
1352 2 18.050000000000004 36.1 39.71 0 0 0
1353 5 18.050000000000004 37.904999999999994 41.515 0 0 0
1354 2 19.855 36.1 41.515 0 0 0
1355 3 19.855 37.904999999999994 39.71 0 0 0
1356 5 18.050000000000004 36.1 43.31999999999999 0 0 0
1357 4 18.050000000000004 37.904999999999994 45.125 0 0 0
1358 1 19.855 36.1 45.125 0 0 0
1359 3 19.855 37.904999999999994 43.31999999999999 0 0 0
1360 3 18.050000000000004 36.1 46.92999999999999 0 0 0
1361 3 18.050000000000004 37.904999999999994 48.73499999999999 0 0 0
1362 2 19.855 36.1 48.73499999999999 0 0 0
1363 3 19.855 37.904999999999994 46.92999999999999 0 0 0
1364 5 18.050000000000004 36.1 50.54 0 0 0
1367 1 19.855 37.904999999999994 50.54 0 0 0
1393 3 18.050000000000004 41.515 27.074999999999996 0 0 0
1394 5 19.855 39.71 27.074999999999996 0 0 0
1395 2 19.855 41.515 25.27 0 0 0
1396 4 18.050000000000004 39.71 28.88 0 0 0
1397 2 18.050000000000004 41.515 30.685000000000002 0 0 0
1398 4 19.855 39.71 30.685000000000002 0 0 0
1399 4 19.855 41.515 28.88 0 0 0
1400 4 18.050000000000004 39.71 32.489999999999995 0 0 0
1401 5 18.050000000000004 41.515 34.295 0 0 0
1402 5 19.855 39.71 34.295 0 0 0
1403 2 19.855 41.515 32.489999999999995 0 0 0
1404 5 18.050000000000004 39.71 36.1 0 0 0
1405 4 18.050000000000004 41.515 37.904999999999994 0 0 0
1406 2 19.855 39.71 37.904999999999994 0 0 0
1407 5 19.855 41.515 36.1 0 0 0
1408 4 18.050000000000004 39.71 39.71 0 0 0
1409 5 18.050000000000004 41.515 41.515 0 0 0
1410 3 19.855 39.71 41.515 0 0 0
1411 1 19.855 41.515 39.71 0 0 0
1412 5 18.050000000000004 39.71 43.31999999999999 0 0 0
1413 2 18.050000000000004 41.515 45.125 0 0 0
1414 2 19.855 39.71 45.125 0 0 0
1415 3 19.855 41.515 43.31999999999999 0 0 0
1416 5 18.050000000000004 39.71 46.92999999999999 0 0 0
1417 1 18.050000000000004 41.515 48.73499999999999 0 0 0
1418 3 19.855 39.71 48.73499999999999 0 0 0
1419 1 19.855 41.515 46.92999999999999 0 0 0
1420 4 18.050000000000004 39.71 50.54 0 0 0
1423 4 19.855 41.515 50.54 0 0 0
1449 2 18.050000000000004 45.125 27.074999999999996 0 0 0
1450 3 19.855 43.31999999999999 27.074999999999996 0 0 0
1451 2 19.855 45.125 25.27 0 0 0
1452 2 18.050000000000004 43.31999999999999 28.88 0 0 0
1453 2 18.050000000000004 45.125 30.685000000000002 0 0 0
1454 3 19.855 43.31999999999999 30.685000000000002 0 0 0
1455 4 19.855 45.125 28.88 0 0 0
1456 3 18.050000000000004 43.31999999999999 32.489999999999995 0 0 0
1457 1 18.050000000000004 45.125 34.295 0 0 0
1458 1 19.855 43.31999999999999 34.295 0 0 0
1459 2 19.855 45.125 32.489999999999995 0 0 0
1460 4 18.050000000000004 43.31999999999999 36.1 0 0 0
1461 3 18.050000000000004 45.125 37.904999999999994 0 0 0
1462 3 19.855 43.31999999999999 37.904999999999994 0 0 0
1463 5 19.855 45.125 36.1 0 0 0
1464 3 18.050000000000004 43.31999999999999 39.71 0 0 0
1465 2 18.050000000000004 45.125 41.515 0 0 0
1466 1 19.855 43.31999999999999 41.515 0 0 0
1467 4 19.855 45.125 39.71 0 0 0
1468 4 18.050000000000004 43.31999999999999 43.31999999999999 0 0 0
1469 5 18.050000000000004 45.125 45.125 0 0 0
1470 2 19.855 43.31999999999999 45.125 0 0 0
1471 2 19.855 45.125 43.31999999999999 0 0 0
1472 2 18.050000000000004 43.31999999999999 46.92999999999999 0 0 0
1473 1 18.050000000000004 45.125 48.73499999999999 0 0 0
1474 5 19.855 43.31999999999999 48.73499999999999 0 0 0
1475 3 19.855 45.125 46.92999999999999 0 0 0
1476 3 18.050000000000004 43.31999999999999 50.54 0 0 0
1479 2 19.855 45.125 50.54 0 0 0
1505 3 18.050000000000004 48.73499999999999 27.074999999999996 0 0 0
1506 5 19.855 46.92999999999999 27.074999999999996 0 0 0
1507 1 19.855 48.73499999999999 25.27 0 0 0
1508 1 18.050000000000004 46.92999999999999 28.88 0 0 0
1509 4 18.050000000000004 48.73499999999999 30.685000000000002 0 0 0
1510 1 19.855 46.92999999999999 30.685000000000002 0 0 0
1511 3 19.855 48.73499999999999 28.88 0 0 0
1512 2 18.050000000000004 46.92999999999999 32.489999999999995 0 0 0
1513 3 18.050000000000004 48.73499999999999 34.295 0 0 0
1514 1 19.855 46.92999999999999 34.295 0 0 0
1515 5 19.855 48.73499999999999 32.489999999999995 0 0 0
1516 1 18.050000000000004 46.92999999999999 36.1 0 0 0
1517 5 18.050000000000004 48.73499999999999 37.904999999999994 0 0 0
1518 2 19.855 46.92999999999999 37.904999999999994 0 0 0
1519 5 19.855 48.73499999999999 36.1 0 0 0
1520 5 18.050000000000004 46.92999999999999 39.71 0 0 0
1521 2 18.050000000000004 48.73499999999999 41.515 0 0 0
1522 1 19.855 46.92999999999999 41.515 0 0 0
1523 2 19.855 48.73499999999999 39.71 0 0 0
1524 1 18.050000000000004 46.92999999999999 43.31999999999999 0 0 0
1525 1 18.050000000000004 48.73499999999999 45.125 0 0 0
1526 3 19.855 46.92999999999999 45.125 0 0 0
1527 5 19.855 48.73499999999999 43.31999999999999 0 0 0
1528 3 18.050000000000004 46.92999999999999 46.92999999999999 0 0 0
1529 3 18.050000000000004 48.73499999999999 48.73499999999999 0 0 0
1530 5 19.855 46.92999999999999 48.73499999999999 0 0 0
1531 3 19.855 48.73499999999999 46.92999999999999 0 0 0
1532 5 18.050000000000004 46.92999999999999 50.54 0 0 0
1535 2 19.855 48.73499999999999 50.54 0 0 0
1562 3 19.855 50.54 27.074999999999996 0 0 0
1564 3 18.050000000000004 50.54 28.88 0 0 0
1566 5 19.855 50.54 30.685000000000002 0 0 0
1568 1 18.050000000000004 50.54 32.489999999999995 0 0 0
1570 1 19.855 50.54 34.295 0 0 0
1572 1 18.050000000000004 50.54 36.1 0 0 0
1574 3 19.855 50.54 37.904999999999994 0 0 0
1576 1 18.050000000000004 50.54 39.71 0 0 0
1578 5 19.855 50.54 41.515 0 0 0
1580 5 18.050000000000004 50.54 43.31999999999999 0 0 0
1582 5 19.855 50.54 45.125 0 0 0
1584 2 18.050000000000004 50.54 46.92999999999999 0 0 0
1586 5 19.855 50.54 48.73499999999999 0 0 0
1588 4 18.050000000000004 50.54 50.54 0 0 0
1967 3 21.659999999999997 21.659999999999997 21.659999999999997 0 0 0
1968 1 21.659999999999997 23.464999999999996 23.464999999999996 0 0 0
1969 2 23.464999999999996 21.659999999999997 23.464999999999996 0 0 0
1970 3 23.464999999999996 23.464999999999996 21.659999999999997 0 0 0
1971 2 21.659999999999997 21.659999999999997 25.27 0 0 0
1972 4 21.659999999999997 23.464999999999996 27.074999999999996 0 0 0
1973 1 23.464999999999996 21.659999999999997 27.074999999999996 0 0 0
1974 4 23.464999999999996 23.464999999999996 25.27 0 0 0
1975 5 21.659999999999997 21.659999999999997 28.88 0 0 0
1976 3 21.659999999999997 23.464999999999996 30.685000000000002 0 0 0
1977 4 23.464999999999996 21.659999999999997 30.685000000000002 0 0 0
1978 4 23.464999999999996 23.464999999999996 28.88 0 0 0
1979 3 21.659999999999997 21.659999999999997 32.489999999999995 0 0 0
1980 5 21.659999999999997 23.464999999999996 34.295 0 0 0
1981 4 23.464999999999996 21.659999999999997 34.295 0 0 0
1982 2 23.464999999999996 23.464999999999996 32.489999999999995 0 0 0
1983 1 21.659999999999997 21.659999999999997 36.1 0 0 0
1984 5 21.659999999999997 23.464999999999996 37.904999999999994 0 0 0
1985 4 23.464999999999996 21.659999999999997 37.904999999999994 0 0 0
1986 1 23.464999999999996 23.464999999999996 36.1 0 0 0