model_files/CuFeNi/CuFeNi_30000/CuFeNi_110/CuFeNi_110_fcc_31263_temp.data (written by ASE) 

31263 	 atoms 
3  atom types
0.0                     109  xlo xhi
0.0                     109  ylo yhi
0.0                     109  zlo zhi


Atoms 

     1   1                       0      51.910000000000011      51.910000000000011
     2   1      1.7899999999999991      50.120000000000012      51.910000000000011
     3   1      1.7899999999999991      51.910000000000011      50.120000000000012
     4   1                       0      51.910000000000011      55.490000000000002
     5   1      1.7899999999999991      50.120000000000012      55.490000000000002
     6   1      1.7899999999999991      51.910000000000011      53.700000000000003
     7   1      1.7899999999999991      51.910000000000011      57.280000000000008
     8   1                       0      55.490000000000002      51.910000000000011
     9   1      1.7899999999999991      53.700000000000003      51.910000000000011
    10   1      1.7899999999999991      55.490000000000002      50.120000000000012
    11   1                       0      53.700000000000003      53.700000000000003
    12   1                       0      55.490000000000002      55.490000000000002
    13   1      1.7899999999999991      53.700000000000003      55.490000000000002
    14   1      1.7899999999999991      55.490000000000002      53.700000000000003
    15   1      1.7899999999999991      55.490000000000002      57.280000000000008
    16   1      1.7899999999999991      57.280000000000008      51.910000000000011
    17   1      1.7899999999999991      57.280000000000008      55.490000000000002
    18   1      3.5799999999999983      48.330000000000005      48.330000000000005
    19   1      5.3700000000000045      46.540000000000006      48.330000000000005
    20   1      5.3700000000000045      48.330000000000005      46.540000000000006
    21   1      3.5799999999999983      48.330000000000005      51.910000000000011
    22   1      5.3700000000000045      46.540000000000006      51.910000000000011
    23   1      5.3700000000000045      48.330000000000005      50.120000000000012
    24   1      3.5799999999999983      48.330000000000005      55.490000000000002
    25   1      5.3700000000000045      46.540000000000006      55.490000000000002
    26   1      5.3700000000000045      48.330000000000005      53.700000000000003
    27   1      3.5799999999999983      48.330000000000005                   59.07
    28   1      5.3700000000000045      46.540000000000006                   59.07
    29   1      5.3700000000000045      48.330000000000005      57.280000000000008
    30   1      5.3700000000000045      48.330000000000005      60.860000000000007
    31   1      3.5799999999999983      51.910000000000011      48.330000000000005
    32   1      5.3700000000000045      50.120000000000012      48.330000000000005
    33   1      5.3700000000000045      51.910000000000011      46.540000000000006
    34   1      3.5799999999999983      50.120000000000012      50.120000000000012
    35   1      3.5799999999999983      51.910000000000011      51.910000000000011
    36   1      5.3700000000000045      50.120000000000012      51.910000000000011
    37   1      5.3700000000000045      51.910000000000011      50.120000000000012
    38   1      3.5799999999999983      50.120000000000012      53.700000000000003
    39   1      3.5799999999999983      51.910000000000011      55.490000000000002
    40   1      5.3700000000000045      50.120000000000012      55.490000000000002
    41   1      5.3700000000000045      51.910000000000011      53.700000000000003
    42   1      3.5799999999999983      50.120000000000012      57.280000000000008
    43   1      3.5799999999999983      51.910000000000011                   59.07
    44   1      5.3700000000000045      50.120000000000012                   59.07
    45   1      5.3700000000000045      51.910000000000011      57.280000000000008
    46   1      5.3700000000000045      51.910000000000011      60.860000000000007
    47   1      3.5799999999999983      55.490000000000002      48.330000000000005
    48   1      5.3700000000000045      53.700000000000003      48.330000000000005
    49   1      5.3700000000000045      55.490000000000002      46.540000000000006
    50   1      3.5799999999999983      53.700000000000003      50.120000000000012
    51   1      3.5799999999999983      55.490000000000002      51.910000000000011
    52   1      5.3700000000000045      53.700000000000003      51.910000000000011
    53   1      5.3700000000000045      55.490000000000002      50.120000000000012
    54   1      3.5799999999999983      53.700000000000003      53.700000000000003
    55   1      3.5799999999999983      55.490000000000002      55.490000000000002
    56   1      5.3700000000000045      53.700000000000003      55.490000000000002
    57   1      5.3700000000000045      55.490000000000002      53.700000000000003
    58   1      3.5799999999999983      53.700000000000003      57.280000000000008
    59   1      3.5799999999999983      55.490000000000002                   59.07
    60   1      5.3700000000000045      53.700000000000003                   59.07
    61   1      5.3700000000000045      55.490000000000002      57.280000000000008
    62   1      5.3700000000000045      55.490000000000002      60.860000000000007
    63   1      3.5799999999999983                   59.07      48.330000000000005
    64   1      5.3700000000000045      57.280000000000008      48.330000000000005
    65   1      5.3700000000000045                   59.07      46.540000000000006
    66   1      3.5799999999999983      57.280000000000008      50.120000000000012
    67   1      3.5799999999999983                   59.07      51.910000000000011
    68   1      5.3700000000000045      57.280000000000008      51.910000000000011
    69   1      5.3700000000000045                   59.07      50.120000000000012
    70   1      3.5799999999999983      57.280000000000008      53.700000000000003
    71   1      3.5799999999999983                   59.07      55.490000000000002
    72   1      5.3700000000000045      57.280000000000008      55.490000000000002
    73   1      5.3700000000000045                   59.07      53.700000000000003
    74   1      3.5799999999999983      57.280000000000008      57.280000000000008
    75   1      3.5799999999999983                   59.07                   59.07
    76   1      5.3700000000000045      57.280000000000008                   59.07
    77   1      5.3700000000000045                   59.07      57.280000000000008
    78   1      5.3700000000000045                   59.07      60.860000000000007
    79   1      5.3700000000000045      60.860000000000007      48.330000000000005
    80   1      5.3700000000000045      60.860000000000007      51.910000000000011
    81   1      5.3700000000000045      60.860000000000007      55.490000000000002
    82   1      5.3700000000000045      60.860000000000007                   59.07
    83   1      7.1600000000000037      44.750000000000007      44.750000000000007
    84   1      8.9500000000000028      42.960000000000008      44.750000000000007
    85   1      8.9500000000000028      44.750000000000007      42.960000000000008
    86   1      7.1600000000000037      44.750000000000007      48.330000000000005
    87   1      8.9500000000000028      42.960000000000008      48.330000000000005
    88   1      8.9500000000000028      44.750000000000007      46.540000000000006
    89   1      7.1600000000000037      44.750000000000007      51.910000000000011
    90   1      8.9500000000000028      42.960000000000008      51.910000000000011
    91   1      8.9500000000000028      44.750000000000007      50.120000000000012
    92   1      7.1600000000000037      44.750000000000007      55.490000000000002
    93   1      8.9500000000000028      42.960000000000008      55.490000000000002
    94   1      8.9500000000000028      44.750000000000007      53.700000000000003
    95   1      7.1600000000000037      44.750000000000007                   59.07
    96   1      8.9500000000000028      42.960000000000008                   59.07
    97   1      8.9500000000000028      44.750000000000007      57.280000000000008
    98   1      7.1600000000000037      44.750000000000007      62.650000000000006
    99   1      8.9500000000000028      42.960000000000008      62.650000000000006
   100   1      8.9500000000000028      44.750000000000007      60.860000000000007
   101   1      8.9500000000000028      44.750000000000007      64.439999999999998
   102   1      7.1600000000000037      48.330000000000005      44.750000000000007
   103   1      8.9500000000000028      46.540000000000006      44.750000000000007
   104   1      8.9500000000000028      48.330000000000005      42.960000000000008
   105   1      7.1600000000000037      46.540000000000006      46.540000000000006
   106   1      7.1600000000000037      48.330000000000005      48.330000000000005
   107   1      8.9500000000000028      46.540000000000006      48.330000000000005
   108   1      8.9500000000000028      48.330000000000005      46.540000000000006
   109   1      7.1600000000000037      46.540000000000006      50.120000000000012
   110   1      7.1600000000000037      48.330000000000005      51.910000000000011
   111   1      8.9500000000000028      46.540000000000006      51.910000000000011
   112   1      8.9500000000000028      48.330000000000005      50.120000000000012
   113   1      7.1600000000000037      46.540000000000006      53.700000000000003
   114   1      7.1600000000000037      48.330000000000005      55.490000000000002
   115   1      8.9500000000000028      46.540000000000006      55.490000000000002
   116   1      8.9500000000000028      48.330000000000005      53.700000000000003
   117   1      7.1600000000000037      46.540000000000006      57.280000000000008
   118   1      7.1600000000000037      48.330000000000005                   59.07
   119   1      8.9500000000000028      46.540000000000006                   59.07
   120   1      8.9500000000000028      48.330000000000005      57.280000000000008
   121   1      7.1600000000000037      46.540000000000006      60.860000000000007
   122   1      7.1600000000000037      48.330000000000005      62.650000000000006
   123   1      8.9500000000000028      46.540000000000006      62.650000000000006
   124   1      8.9500000000000028      48.330000000000005      60.860000000000007
   125   1      8.9500000000000028      48.330000000000005      64.439999999999998
   126   1      7.1600000000000037      51.910000000000011      44.750000000000007
   127   1      8.9500000000000028      50.120000000000012      44.750000000000007
   128   1      8.9500000000000028      51.910000000000011      42.960000000000008
   129   1      7.1600000000000037      50.120000000000012      46.540000000000006
   130   1      7.1600000000000037      51.910000000000011      48.330000000000005
   131   1      8.9500000000000028      50.120000000000012      48.330000000000005
   132   1      8.9500000000000028      51.910000000000011      46.540000000000006
   133   1      7.1600000000000037      50.120000000000012      50.120000000000012
   134   1      7.1600000000000037      51.910000000000011      51.910000000000011
   135   1      8.9500000000000028      50.120000000000012      51.910000000000011
   136   1      8.9500000000000028      51.910000000000011      50.120000000000012
   137   1      7.1600000000000037      50.120000000000012      53.700000000000003
   138   1      7.1600000000000037      51.910000000000011      55.490000000000002
   139   1      8.9500000000000028      50.120000000000012      55.490000000000002
   140   1      8.9500000000000028      51.910000000000011      53.700000000000003
   141   1      7.1600000000000037      50.120000000000012      57.280000000000008
   142   1      7.1600000000000037      51.910000000000011                   59.07
   143   1      8.9500000000000028      50.120000000000012                   59.07
   144   1      8.9500000000000028      51.910000000000011      57.280000000000008
   145   1      7.1600000000000037      50.120000000000012      60.860000000000007
   146   1      7.1600000000000037      51.910000000000011      62.650000000000006
   147   1      8.9500000000000028      50.120000000000012      62.650000000000006
   148   1      8.9500000000000028      51.910000000000011      60.860000000000007
   149   1      8.9500000000000028      51.910000000000011      64.439999999999998
   150   1      7.1600000000000037      55.490000000000002      44.750000000000007
   151   1      8.9500000000000028      53.700000000000003      44.750000000000007
   152   1      8.9500000000000028      55.490000000000002      42.960000000000008
   153   1      7.1600000000000037      53.700000000000003      46.540000000000006
   154   1      7.1600000000000037      55.490000000000002      48.330000000000005
   155   1      8.9500000000000028      53.700000000000003      48.330000000000005
   156   1      8.9500000000000028      55.490000000000002      46.540000000000006
   157   1      7.1600000000000037      53.700000000000003      50.120000000000012
   158   1      7.1600000000000037      55.490000000000002      51.910000000000011
   159   1      8.9500000000000028      53.700000000000003      51.910000000000011
   160   1      8.9500000000000028      55.490000000000002      50.120000000000012
   161   1      7.1600000000000037      53.700000000000003      53.700000000000003
   162   1      7.1600000000000037      55.490000000000002      55.490000000000002
   163   1      8.9500000000000028      53.700000000000003      55.490000000000002
   164   1      8.9500000000000028      55.490000000000002      53.700000000000003
   165   1      7.1600000000000037      53.700000000000003      57.280000000000008
   166   1      7.1600000000000037      55.490000000000002                   59.07
   167   1      8.9500000000000028      53.700000000000003                   59.07
   168   1      8.9500000000000028      55.490000000000002      57.280000000000008
   169   1      7.1600000000000037      53.700000000000003      60.860000000000007
   170   1      7.1600000000000037      55.490000000000002      62.650000000000006
   171   1      8.9500000000000028      53.700000000000003      62.650000000000006
   172   1      8.9500000000000028      55.490000000000002      60.860000000000007
   173   1      8.9500000000000028      55.490000000000002      64.439999999999998
   174   1      7.1600000000000037                   59.07      44.750000000000007
   175   1      8.9500000000000028      57.280000000000008      44.750000000000007
   176   1      8.9500000000000028                   59.07      42.960000000000008
   177   1      7.1600000000000037      57.280000000000008      46.540000000000006
   178   1      7.1600000000000037                   59.07      48.330000000000005
   179   1      8.9500000000000028      57.280000000000008      48.330000000000005
   180   1      8.9500000000000028                   59.07      46.540000000000006
   181   1      7.1600000000000037      57.280000000000008      50.120000000000012
   182   1      7.1600000000000037                   59.07      51.910000000000011
   183   1      8.9500000000000028      57.280000000000008      51.910000000000011
   184   1      8.9500000000000028                   59.07      50.120000000000012
   185   1      7.1600000000000037      57.280000000000008      53.700000000000003
   186   1      7.1600000000000037                   59.07      55.490000000000002
   187   1      8.9500000000000028      57.280000000000008      55.490000000000002
   188   1      8.9500000000000028                   59.07      53.700000000000003
   189   1      7.1600000000000037      57.280000000000008      57.280000000000008
   190   1      7.1600000000000037                   59.07                   59.07
   191   1      8.9500000000000028      57.280000000000008                   59.07
   192   1      8.9500000000000028                   59.07      57.280000000000008
   193   1      7.1600000000000037      57.280000000000008      60.860000000000007
   194   1      7.1600000000000037                   59.07      62.650000000000006
   195   1      8.9500000000000028      57.280000000000008      62.650000000000006
   196   1      8.9500000000000028                   59.07      60.860000000000007
   197   1      8.9500000000000028                   59.07      64.439999999999998
   198   1      7.1600000000000037      62.650000000000006      44.750000000000007
   199   1      8.9500000000000028      60.860000000000007      44.750000000000007
   200   1      8.9500000000000028      62.650000000000006      42.960000000000008
   201   1      7.1600000000000037      60.860000000000007      46.540000000000006
   202   1      7.1600000000000037      62.650000000000006      48.330000000000005
   203   1      8.9500000000000028      60.860000000000007      48.330000000000005
   204   1      8.9500000000000028      62.650000000000006      46.540000000000006
   205   1      7.1600000000000037      60.860000000000007      50.120000000000012
   206   1      7.1600000000000037      62.650000000000006      51.910000000000011
   207   1      8.9500000000000028      60.860000000000007      51.910000000000011
   208   1      8.9500000000000028      62.650000000000006      50.120000000000012
   209   1      7.1600000000000037      60.860000000000007      53.700000000000003
   210   1      7.1600000000000037      62.650000000000006      55.490000000000002
   211   1      8.9500000000000028      60.860000000000007      55.490000000000002
   212   1      8.9500000000000028      62.650000000000006      53.700000000000003
   213   1      7.1600000000000037      60.860000000000007      57.280000000000008
   214   1      7.1600000000000037      62.650000000000006                   59.07
   215   1      8.9500000000000028      60.860000000000007                   59.07
   216   1      8.9500000000000028      62.650000000000006      57.280000000000008
   217   1      7.1600000000000037      60.860000000000007      60.860000000000007
   218   1      7.1600000000000037      62.650000000000006      62.650000000000006
   219   1      8.9500000000000028      60.860000000000007      62.650000000000006
   220   1      8.9500000000000028      62.650000000000006      60.860000000000007
   221   1      8.9500000000000028      62.650000000000006      64.439999999999998
   222   1      8.9500000000000028      64.439999999999998      44.750000000000007
   223   1      8.9500000000000028      64.439999999999998      48.330000000000005
   224   1      8.9500000000000028      64.439999999999998      51.910000000000011
   225   1      8.9500000000000028      64.439999999999998      55.490000000000002
   226   1      8.9500000000000028      64.439999999999998                   59.07
   227   1      8.9500000000000028      64.439999999999998      62.650000000000006
   228   1      10.740000000000004      41.170000000000002      41.170000000000002
   229   1      12.530000000000003      39.380000000000003      41.170000000000002
   230   1      12.530000000000003      41.170000000000002      39.380000000000003
   231   1      10.740000000000004      41.170000000000002      44.750000000000007
   232   1      12.530000000000003      39.380000000000003      44.750000000000007
   233   1      12.530000000000003      41.170000000000002      42.960000000000008
   234   1      10.740000000000004      41.170000000000002      48.330000000000005
   235   1      12.530000000000003      39.380000000000003      48.330000000000005
   236   1      12.530000000000003      41.170000000000002      46.540000000000006
   237   1      10.740000000000004      41.170000000000002      51.910000000000011
   238   1      12.530000000000003      39.380000000000003      51.910000000000011
   239   1      12.530000000000003      41.170000000000002      50.120000000000012
   240   1      10.740000000000004      41.170000000000002      55.490000000000002
   241   1      12.530000000000003      39.380000000000003      55.490000000000002
   242   1      12.530000000000003      41.170000000000002      53.700000000000003
   243   1      10.740000000000004      41.170000000000002                   59.07
   244   1      12.530000000000003      39.380000000000003                   59.07
   245   1      12.530000000000003      41.170000000000002      57.280000000000008
   246   1      10.740000000000004      41.170000000000002      62.650000000000006
   247   1      12.530000000000003      39.380000000000003      62.650000000000006
   248   1      12.530000000000003      41.170000000000002      60.860000000000007
   249   1      10.740000000000004      41.170000000000002      66.230000000000004
   250   1      12.530000000000003      39.380000000000003      66.230000000000004
   251   1      12.530000000000003      41.170000000000002      64.439999999999998
   252   1      12.530000000000003      41.170000000000002      68.019999999999996
   253   1      10.740000000000004      44.750000000000007      41.170000000000002
   254   1      12.530000000000003      42.960000000000008      41.170000000000002
   255   1      12.530000000000003      44.750000000000007      39.380000000000003
   256   1      10.740000000000004      42.960000000000008      42.960000000000008
   257   1      10.740000000000004      44.750000000000007      44.750000000000007
   258   1      12.530000000000003      42.960000000000008      44.750000000000007
   259   1      12.530000000000003      44.750000000000007      42.960000000000008
   260   1      10.740000000000004      42.960000000000008      46.540000000000006
   261   1      10.740000000000004      44.750000000000007      48.330000000000005
   262   1      12.530000000000003      42.960000000000008      48.330000000000005
   263   1      12.530000000000003      44.750000000000007      46.540000000000006
   264   1      10.740000000000004      42.960000000000008      50.120000000000012
   265   1      10.740000000000004      44.750000000000007      51.910000000000011
   266   1      12.530000000000003      42.960000000000008      51.910000000000011
   267   1      12.530000000000003      44.750000000000007      50.120000000000012
   268   1      10.740000000000004      42.960000000000008      53.700000000000003
   269   1      10.740000000000004      44.750000000000007      55.490000000000002
   270   1      12.530000000000003      42.960000000000008      55.490000000000002
   271   1      12.530000000000003      44.750000000000007      53.700000000000003
   272   1      10.740000000000004      42.960000000000008      57.280000000000008
   273   1      10.740000000000004      44.750000000000007                   59.07
   274   1      12.530000000000003      42.960000000000008                   59.07
   275   1      12.530000000000003      44.750000000000007      57.280000000000008
   276   1      10.740000000000004      42.960000000000008      60.860000000000007
   277   1      10.740000000000004      44.750000000000007      62.650000000000006
   278   1      12.530000000000003      42.960000000000008      62.650000000000006
   279   1      12.530000000000003      44.750000000000007      60.860000000000007
   280   1      10.740000000000004      42.960000000000008      64.439999999999998
   281   1      10.740000000000004      44.750000000000007      66.230000000000004
   282   1      12.530000000000003      42.960000000000008      66.230000000000004
   283   1      12.530000000000003      44.750000000000007      64.439999999999998
   284   1      12.530000000000003      44.750000000000007      68.019999999999996
   285   1      10.740000000000004      48.330000000000005      41.170000000000002
   286   1      12.530000000000003      46.540000000000006      41.170000000000002
   287   1      12.530000000000003      48.330000000000005      39.380000000000003
   288   1      10.740000000000004      46.540000000000006      42.960000000000008
   289   1      10.740000000000004      48.330000000000005      44.750000000000007
   290   1      12.530000000000003      46.540000000000006      44.750000000000007
   291   1      12.530000000000003      48.330000000000005      42.960000000000008
   292   1      10.740000000000004      46.540000000000006      46.540000000000006
   293   1      10.740000000000004      48.330000000000005      48.330000000000005
   294   1      12.530000000000003      46.540000000000006      48.330000000000005
   295   1      12.530000000000003      48.330000000000005      46.540000000000006
   296   1      10.740000000000004      46.540000000000006      50.120000000000012
   297   1      10.740000000000004      48.330000000000005      51.910000000000011
   298   1      12.530000000000003      46.540000000000006      51.910000000000011
   299   1      12.530000000000003      48.330000000000005      50.120000000000012
   300   1      10.740000000000004      46.540000000000006      53.700000000000003
   301   1      10.740000000000004      48.330000000000005      55.490000000000002
   302   1      12.530000000000003      46.540000000000006      55.490000000000002
   303   1      12.530000000000003      48.330000000000005      53.700000000000003
   304   1      10.740000000000004      46.540000000000006      57.280000000000008
   305   1      10.740000000000004      48.330000000000005                   59.07
   306   1      12.530000000000003      46.540000000000006                   59.07
   307   1      12.530000000000003      48.330000000000005      57.280000000000008
   308   1      10.740000000000004      46.540000000000006      60.860000000000007
   309   1      10.740000000000004      48.330000000000005      62.650000000000006
   310   1      12.530000000000003      46.540000000000006      62.650000000000006
   311   1      12.530000000000003      48.330000000000005      60.860000000000007
   312   1      10.740000000000004      46.540000000000006      64.439999999999998
   313   1      10.740000000000004      48.330000000000005      66.230000000000004
   314   1      12.530000000000003      46.540000000000006      66.230000000000004
   315   1      12.530000000000003      48.330000000000005      64.439999999999998
   316   1      12.530000000000003      48.330000000000005      68.019999999999996
   317   1      10.740000000000004      51.910000000000011      41.170000000000002
   318   1      12.530000000000003      50.120000000000012      41.170000000000002
   319   1      12.530000000000003      51.910000000000011      39.380000000000003
   320   1      10.740000000000004      50.120000000000012      42.960000000000008
   321   1      10.740000000000004      51.910000000000011      44.750000000000007
   322   1      12.530000000000003      50.120000000000012      44.750000000000007
   323   1      12.530000000000003      51.910000000000011      42.960000000000008
   324   1      10.740000000000004      50.120000000000012      46.540000000000006
   325   1      10.740000000000004      51.910000000000011      48.330000000000005
   326   1      12.530000000000003      50.120000000000012      48.330000000000005
   327   1      12.530000000000003      51.910000000000011      46.540000000000006
   328   1      10.740000000000004      50.120000000000012      50.120000000000012
   329   1      10.740000000000004      51.910000000000011      51.910000000000011
   330   1      12.530000000000003      50.120000000000012      51.910000000000011
   331   1      12.530000000000003      51.910000000000011      50.120000000000012
   332   1      10.740000000000004      50.120000000000012      53.700000000000003
   333   1      10.740000000000004      51.910000000000011      55.490000000000002
   334   1      12.530000000000003      50.120000000000012      55.490000000000002
   335   1      12.530000000000003      51.910000000000011      53.700000000000003
   336   1      10.740000000000004      50.120000000000012      57.280000000000008
   337   1      10.740000000000004      51.910000000000011                   59.07
   338   1      12.530000000000003      50.120000000000012                   59.07
   339   1      12.530000000000003      51.910000000000011      57.280000000000008
   340   1      10.740000000000004      50.120000000000012      60.860000000000007
   341   1      10.740000000000004      51.910000000000011      62.650000000000006
   342   1      12.530000000000003      50.120000000000012      62.650000000000006
   343   1      12.530000000000003      51.910000000000011      60.860000000000007
   344   1      10.740000000000004      50.120000000000012      64.439999999999998
   345   1      10.740000000000004      51.910000000000011      66.230000000000004
   346   1      12.530000000000003      50.120000000000012      66.230000000000004
   347   1      12.530000000000003      51.910000000000011      64.439999999999998
   348   1      12.530000000000003      51.910000000000011      68.019999999999996
   349   1      10.740000000000004      55.490000000000002      41.170000000000002
   350   1      12.530000000000003      53.700000000000003      41.170000000000002
   351   1      12.530000000000003      55.490000000000002      39.380000000000003
   352   1      10.740000000000004      53.700000000000003      42.960000000000008
   353   1      10.740000000000004      55.490000000000002      44.750000000000007
   354   1      12.530000000000003      53.700000000000003      44.750000000000007
   355   1      12.530000000000003      55.490000000000002      42.960000000000008
   356   1      10.740000000000004      53.700000000000003      46.540000000000006
   357   1      10.740000000000004      55.490000000000002      48.330000000000005
   358   1      12.530000000000003      53.700000000000003      48.330000000000005