model_files/Pd/Pd_30000/Pd_443/data.Pd_443_fcc_30115 (written by ASE) 

30115 	 atoms 
1  atom types
0.0                     132  xlo xhi
0.0                     132  ylo yhi
0.0                     132  zlo zhi


Atoms 

     1   1      1.9450000000000074      64.185000000000002       66.13000000000001
     2   1      1.9450000000000074       66.13000000000001      64.185000000000002
     3   1  1.4210854715202004e-14       66.13000000000001       66.13000000000001
     4   1      1.9450000000000074       66.13000000000001      68.075000000000003
     5   1      1.9450000000000074      68.075000000000003       66.13000000000001
     6   1       5.835000000000016      60.295000000000016       66.13000000000001
     7   1      3.8900000000000148      64.185000000000002      64.185000000000002
     8   1       5.835000000000016      62.240000000000009      64.185000000000002
     9   1       5.835000000000016      64.185000000000002      62.240000000000009
    10   1      3.8900000000000148      62.240000000000009       66.13000000000001
    11   1      3.8900000000000148      64.185000000000002      68.075000000000003
    12   1       5.835000000000016      62.240000000000009      68.075000000000003
    13   1       5.835000000000016      64.185000000000002       66.13000000000001
    14   1       5.835000000000016      64.185000000000002       70.02000000000001
    15   1       5.835000000000016       66.13000000000001      60.295000000000016
    16   1      3.8900000000000148       66.13000000000001      62.240000000000009
    17   1      3.8900000000000148      68.075000000000003      64.185000000000002
    18   1       5.835000000000016       66.13000000000001      64.185000000000002
    19   1       5.835000000000016      68.075000000000003      62.240000000000009
    20   1      3.8900000000000148       66.13000000000001       66.13000000000001
    21   1      3.8900000000000148      68.075000000000003      68.075000000000003
    22   1       5.835000000000016       66.13000000000001      68.075000000000003
    23   1       5.835000000000016      68.075000000000003       66.13000000000001
    24   1      3.8900000000000148       66.13000000000001       70.02000000000001
    25   1       5.835000000000016       66.13000000000001      71.965000000000018
    26   1       5.835000000000016      68.075000000000003       70.02000000000001
    27   1       5.835000000000016       70.02000000000001      64.185000000000002
    28   1      3.8900000000000148       70.02000000000001       66.13000000000001
    29   1       5.835000000000016       70.02000000000001      68.075000000000003
    30   1       5.835000000000016      71.965000000000018       66.13000000000001
    31   1      9.7250000000000156      56.405000000000015       66.13000000000001
    32   1      7.7800000000000153      60.295000000000016      64.185000000000002
    33   1      9.7250000000000156      58.350000000000016      64.185000000000002
    34   1      9.7250000000000156      60.295000000000016      62.240000000000009
    35   1      7.7800000000000153      58.350000000000016       66.13000000000001
    36   1      7.7800000000000153      60.295000000000016      68.075000000000003
    37   1      9.7250000000000156      58.350000000000016      68.075000000000003
    38   1      9.7250000000000156      60.295000000000016       66.13000000000001
    39   1      9.7250000000000156      60.295000000000016       70.02000000000001
    40   1      7.7800000000000153      64.185000000000002      60.295000000000016
    41   1      9.7250000000000156      62.240000000000009      60.295000000000016
    42   1      9.7250000000000156      64.185000000000002      58.350000000000016
    43   1      7.7800000000000153      62.240000000000009      62.240000000000009
    44   1      7.7800000000000153      64.185000000000002      64.185000000000002
    45   1      9.7250000000000156      62.240000000000009      64.185000000000002
    46   1      9.7250000000000156      64.185000000000002      62.240000000000009
    47   1      7.7800000000000153      62.240000000000009       66.13000000000001
    48   1      7.7800000000000153      64.185000000000002      68.075000000000003
    49   1      9.7250000000000156      62.240000000000009      68.075000000000003
    50   1      9.7250000000000156      64.185000000000002       66.13000000000001
    51   1      7.7800000000000153      62.240000000000009       70.02000000000001
    52   1      7.7800000000000153      64.185000000000002      71.965000000000018
    53   1      9.7250000000000156      62.240000000000009      71.965000000000018
    54   1      9.7250000000000156      64.185000000000002       70.02000000000001
    55   1      9.7250000000000156      64.185000000000002      73.910000000000011
    56   1      9.7250000000000156       66.13000000000001      56.405000000000015
    57   1      7.7800000000000153       66.13000000000001      58.350000000000016
    58   1      7.7800000000000153      68.075000000000003      60.295000000000016
    59   1      9.7250000000000156       66.13000000000001      60.295000000000016
    60   1      9.7250000000000156      68.075000000000003      58.350000000000016
    61   1      7.7800000000000153       66.13000000000001      62.240000000000009
    62   1      7.7800000000000153      68.075000000000003      64.185000000000002
    63   1      9.7250000000000156       66.13000000000001      64.185000000000002
    64   1      9.7250000000000156      68.075000000000003      62.240000000000009
    65   1      7.7800000000000153       66.13000000000001       66.13000000000001
    66   1      7.7800000000000153      68.075000000000003      68.075000000000003
    67   1      9.7250000000000156       66.13000000000001      68.075000000000003
    68   1      9.7250000000000156      68.075000000000003       66.13000000000001
    69   1      7.7800000000000153       66.13000000000001       70.02000000000001
    70   1      7.7800000000000153      68.075000000000003      71.965000000000018
    71   1      9.7250000000000156       66.13000000000001      71.965000000000018
    72   1      9.7250000000000156      68.075000000000003       70.02000000000001
    73   1      7.7800000000000153       66.13000000000001      73.910000000000011
    74   1      9.7250000000000156       66.13000000000001      75.855000000000004
    75   1      9.7250000000000156      68.075000000000003      73.910000000000011
    76   1      9.7250000000000156       70.02000000000001      60.295000000000016
    77   1      7.7800000000000153       70.02000000000001      62.240000000000009
    78   1      7.7800000000000153      71.965000000000018      64.185000000000002
    79   1      9.7250000000000156       70.02000000000001      64.185000000000002
    80   1      9.7250000000000156      71.965000000000018      62.240000000000009
    81   1      7.7800000000000153       70.02000000000001       66.13000000000001
    82   1      7.7800000000000153      71.965000000000018      68.075000000000003
    83   1      9.7250000000000156       70.02000000000001      68.075000000000003
    84   1      9.7250000000000156      71.965000000000018       66.13000000000001
    85   1      7.7800000000000153       70.02000000000001       70.02000000000001
    86   1      9.7250000000000156       70.02000000000001      71.965000000000018
    87   1      9.7250000000000156      71.965000000000018       70.02000000000001
    88   1      9.7250000000000156      73.910000000000011      64.185000000000002
    89   1      7.7800000000000153      73.910000000000011       66.13000000000001
    90   1      9.7250000000000156      73.910000000000011      68.075000000000003
    91   1      9.7250000000000156      75.855000000000004       66.13000000000001
    92   1      13.615000000000009      52.515000000000015       66.13000000000001
    93   1      11.670000000000016      56.405000000000015      64.185000000000002
    94   1      13.615000000000009      54.460000000000015      64.185000000000002
    95   1      13.615000000000009      56.405000000000015      62.240000000000009
    96   1      11.670000000000016      54.460000000000015       66.13000000000001
    97   1      11.670000000000016      56.405000000000015      68.075000000000003
    98   1      13.615000000000009      54.460000000000015      68.075000000000003
    99   1      13.615000000000009      56.405000000000015       66.13000000000001
   100   1      13.615000000000009      56.405000000000015       70.02000000000001
   101   1      11.670000000000016      60.295000000000016      60.295000000000016
   102   1      13.615000000000009      58.350000000000016      60.295000000000016
   103   1      13.615000000000009      60.295000000000016      58.350000000000016
   104   1      11.670000000000016      58.350000000000016      62.240000000000009
   105   1      11.670000000000016      60.295000000000016      64.185000000000002
   106   1      13.615000000000009      58.350000000000016      64.185000000000002
   107   1      13.615000000000009      60.295000000000016      62.240000000000009
   108   1      11.670000000000016      58.350000000000016       66.13000000000001
   109   1      11.670000000000016      60.295000000000016      68.075000000000003
   110   1      13.615000000000009      58.350000000000016      68.075000000000003
   111   1      13.615000000000009      60.295000000000016       66.13000000000001
   112   1      11.670000000000016      58.350000000000016       70.02000000000001
   113   1      11.670000000000016      60.295000000000016      71.965000000000018
   114   1      13.615000000000009      58.350000000000016      71.965000000000018
   115   1      13.615000000000009      60.295000000000016       70.02000000000001
   116   1      13.615000000000009      60.295000000000016      73.910000000000011
   117   1      11.670000000000016      64.185000000000002      56.405000000000015
   118   1      13.615000000000009      62.240000000000009      56.405000000000015
   119   1      13.615000000000009      64.185000000000002      54.460000000000015
   120   1      11.670000000000016      62.240000000000009      58.350000000000016
   121   1      11.670000000000016      64.185000000000002      60.295000000000016
   122   1      13.615000000000009      62.240000000000009      60.295000000000016
   123   1      13.615000000000009      64.185000000000002      58.350000000000016
   124   1      11.670000000000016      62.240000000000009      62.240000000000009
   125   1      11.670000000000016      64.185000000000002      64.185000000000002
   126   1      13.615000000000009      62.240000000000009      64.185000000000002
   127   1      13.615000000000009      64.185000000000002      62.240000000000009
   128   1      11.670000000000016      62.240000000000009       66.13000000000001
   129   1      11.670000000000016      64.185000000000002      68.075000000000003
   130   1      13.615000000000009      62.240000000000009      68.075000000000003
   131   1      13.615000000000009      64.185000000000002       66.13000000000001
   132   1      11.670000000000016      62.240000000000009       70.02000000000001
   133   1      11.670000000000016      64.185000000000002      71.965000000000018
   134   1      13.615000000000009      62.240000000000009      71.965000000000018
   135   1      13.615000000000009      64.185000000000002       70.02000000000001
   136   1      11.670000000000016      62.240000000000009      73.910000000000011
   137   1      11.670000000000016      64.185000000000002      75.855000000000004
   138   1      13.615000000000009      62.240000000000009      75.855000000000004
   139   1      13.615000000000009      64.185000000000002      73.910000000000011
   140   1      13.615000000000009      64.185000000000002      77.800000000000011
   141   1      13.615000000000009       66.13000000000001      52.515000000000015
   142   1      11.670000000000016       66.13000000000001      54.460000000000015
   143   1      11.670000000000016      68.075000000000003      56.405000000000015
   144   1      13.615000000000009       66.13000000000001      56.405000000000015
   145   1      13.615000000000009      68.075000000000003      54.460000000000015
   146   1      11.670000000000016       66.13000000000001      58.350000000000016
   147   1      11.670000000000016      68.075000000000003      60.295000000000016
   148   1      13.615000000000009       66.13000000000001      60.295000000000016
   149   1      13.615000000000009      68.075000000000003      58.350000000000016
   150   1      11.670000000000016       66.13000000000001      62.240000000000009
   151   1      11.670000000000016      68.075000000000003      64.185000000000002
   152   1      13.615000000000009       66.13000000000001      64.185000000000002
   153   1      13.615000000000009      68.075000000000003      62.240000000000009
   154   1      11.670000000000016       66.13000000000001       66.13000000000001
   155   1      11.670000000000016      68.075000000000003      68.075000000000003
   156   1      13.615000000000009       66.13000000000001      68.075000000000003
   157   1      13.615000000000009      68.075000000000003       66.13000000000001
   158   1      11.670000000000016       66.13000000000001       70.02000000000001
   159   1      11.670000000000016      68.075000000000003      71.965000000000018
   160   1      13.615000000000009       66.13000000000001      71.965000000000018
   161   1      13.615000000000009      68.075000000000003       70.02000000000001
   162   1      11.670000000000016       66.13000000000001      73.910000000000011
   163   1      11.670000000000016      68.075000000000003      75.855000000000004
   164   1      13.615000000000009       66.13000000000001      75.855000000000004
   165   1      13.615000000000009      68.075000000000003      73.910000000000011
   166   1      11.670000000000016       66.13000000000001      77.800000000000011
   167   1      13.615000000000009       66.13000000000001      79.745000000000005
   168   1      13.615000000000009      68.075000000000003      77.800000000000011
   169   1      13.615000000000009       70.02000000000001      56.405000000000015
   170   1      11.670000000000016       70.02000000000001      58.350000000000016
   171   1      11.670000000000016      71.965000000000018      60.295000000000016
   172   1      13.615000000000009       70.02000000000001      60.295000000000016
   173   1      13.615000000000009      71.965000000000018      58.350000000000016
   174   1      11.670000000000016       70.02000000000001      62.240000000000009
   175   1      11.670000000000016      71.965000000000018      64.185000000000002
   176   1      13.615000000000009       70.02000000000001      64.185000000000002
   177   1      13.615000000000009      71.965000000000018      62.240000000000009
   178   1      11.670000000000016       70.02000000000001       66.13000000000001
   179   1      11.670000000000016      71.965000000000018      68.075000000000003
   180   1      13.615000000000009       70.02000000000001      68.075000000000003
   181   1      13.615000000000009      71.965000000000018       66.13000000000001
   182   1      11.670000000000016       70.02000000000001       70.02000000000001
   183   1      11.670000000000016      71.965000000000018      71.965000000000018
   184   1      13.615000000000009       70.02000000000001      71.965000000000018
   185   1      13.615000000000009      71.965000000000018       70.02000000000001
   186   1      11.670000000000016       70.02000000000001      73.910000000000011
   187   1      13.615000000000009       70.02000000000001      75.855000000000004
   188   1      13.615000000000009      71.965000000000018      73.910000000000011
   189   1      13.615000000000009      73.910000000000011      60.295000000000016
   190   1      11.670000000000016      73.910000000000011      62.240000000000009
   191   1      11.670000000000016      75.855000000000004      64.185000000000002
   192   1      13.615000000000009      73.910000000000011      64.185000000000002
   193   1      13.615000000000009      75.855000000000004      62.240000000000009
   194   1      11.670000000000016      73.910000000000011       66.13000000000001
   195   1      11.670000000000016      75.855000000000004      68.075000000000003
   196   1      13.615000000000009      73.910000000000011      68.075000000000003
   197   1      13.615000000000009      75.855000000000004       66.13000000000001
   198   1      11.670000000000016      73.910000000000011       70.02000000000001
   199   1      13.615000000000009      73.910000000000011      71.965000000000018
   200   1      13.615000000000009      75.855000000000004       70.02000000000001
   201   1      13.615000000000009      77.800000000000011      64.185000000000002
   202   1      11.670000000000016      77.800000000000011       66.13000000000001
   203   1      13.615000000000009      77.800000000000011      68.075000000000003
   204   1      13.615000000000009      79.745000000000005       66.13000000000001
   205   1       17.50500000000001      48.625000000000021       66.13000000000001
   206   1      15.560000000000018      52.515000000000015      64.185000000000002
   207   1       17.50500000000001      50.570000000000014      64.185000000000002
   208   1       17.50500000000001      52.515000000000015      62.240000000000009
   209   1      15.560000000000018      50.570000000000014       66.13000000000001
   210   1      15.560000000000018      52.515000000000015      68.075000000000003
   211   1       17.50500000000001      50.570000000000014      68.075000000000003
   212   1       17.50500000000001      52.515000000000015       66.13000000000001
   213   1       17.50500000000001      52.515000000000015       70.02000000000001
   214   1      15.560000000000018      56.405000000000015      60.295000000000016
   215   1       17.50500000000001      54.460000000000015      60.295000000000016
   216   1       17.50500000000001      56.405000000000015      58.350000000000016
   217   1      15.560000000000018      54.460000000000015      62.240000000000009
   218   1      15.560000000000018      56.405000000000015      64.185000000000002
   219   1       17.50500000000001      54.460000000000015      64.185000000000002
   220   1       17.50500000000001      56.405000000000015      62.240000000000009
   221   1      15.560000000000018      54.460000000000015       66.13000000000001
   222   1      15.560000000000018      56.405000000000015      68.075000000000003
   223   1       17.50500000000001      54.460000000000015      68.075000000000003
   224   1       17.50500000000001      56.405000000000015       66.13000000000001
   225   1      15.560000000000018      54.460000000000015       70.02000000000001
   226   1      15.560000000000018      56.405000000000015      71.965000000000018
   227   1       17.50500000000001      54.460000000000015      71.965000000000018
   228   1       17.50500000000001      56.405000000000015       70.02000000000001
   229   1       17.50500000000001      56.405000000000015      73.910000000000011
   230   1      15.560000000000018      60.295000000000016      56.405000000000015
   231   1       17.50500000000001      58.350000000000016      56.405000000000015
   232   1       17.50500000000001      60.295000000000016      54.460000000000015
   233   1      15.560000000000018      58.350000000000016      58.350000000000016
   234   1      15.560000000000018      60.295000000000016      60.295000000000016
   235   1       17.50500000000001      58.350000000000016      60.295000000000016
   236   1       17.50500000000001      60.295000000000016      58.350000000000016
   237   1      15.560000000000018      58.350000000000016      62.240000000000009
   238   1      15.560000000000018      60.295000000000016      64.185000000000002
   239   1       17.50500000000001      58.350000000000016      64.185000000000002
   240   1       17.50500000000001      60.295000000000016      62.240000000000009
   241   1      15.560000000000018      58.350000000000016       66.13000000000001
   242   1      15.560000000000018      60.295000000000016      68.075000000000003
   243   1       17.50500000000001      58.350000000000016      68.075000000000003
   244   1       17.50500000000001      60.295000000000016       66.13000000000001
   245   1      15.560000000000018      58.350000000000016       70.02000000000001
   246   1      15.560000000000018      60.295000000000016      71.965000000000018
   247   1       17.50500000000001      58.350000000000016      71.965000000000018
   248   1       17.50500000000001      60.295000000000016       70.02000000000001
   249   1      15.560000000000018      58.350000000000016      73.910000000000011
   250   1      15.560000000000018      60.295000000000016      75.855000000000004
   251   1       17.50500000000001      58.350000000000016      75.855000000000004
   252   1       17.50500000000001      60.295000000000016      73.910000000000011
   253   1       17.50500000000001      60.295000000000016      77.800000000000011
   254   1      15.560000000000018      64.185000000000002      52.515000000000015
   255   1       17.50500000000001      62.240000000000009      52.515000000000015
   256   1       17.50500000000001      64.185000000000002      50.570000000000014
   257   1      15.560000000000018      62.240000000000009      54.460000000000015
   258   1      15.560000000000018      64.185000000000002      56.405000000000015
   259   1       17.50500000000001      62.240000000000009      56.405000000000015
   260   1       17.50500000000001      64.185000000000002      54.460000000000015
   261   1      15.560000000000018      62.240000000000009      58.350000000000016
   262   1      15.560000000000018      64.185000000000002      60.295000000000016
   263   1       17.50500000000001      62.240000000000009      60.295000000000016
   264   1       17.50500000000001      64.185000000000002      58.350000000000016
   265   1      15.560000000000018      62.240000000000009      62.240000000000009
   266   1      15.560000000000018      64.185000000000002      64.185000000000002
   267   1       17.50500000000001      62.240000000000009      64.185000000000002
   268   1       17.50500000000001      64.185000000000002      62.240000000000009
   269   1      15.560000000000018      62.240000000000009       66.13000000000001
   270   1      15.560000000000018      64.185000000000002      68.075000000000003
   271   1       17.50500000000001      62.240000000000009      68.075000000000003
   272   1       17.50500000000001      64.185000000000002       66.13000000000001
   273   1      15.560000000000018      62.240000000000009       70.02000000000001
   274   1      15.560000000000018      64.185000000000002      71.965000000000018
   275   1       17.50500000000001      62.240000000000009      71.965000000000018
   276   1       17.50500000000001      64.185000000000002       70.02000000000001
   277   1      15.560000000000018      62.240000000000009      73.910000000000011
   278   1      15.560000000000018      64.185000000000002      75.855000000000004
   279   1       17.50500000000001      62.240000000000009      75.855000000000004
   280   1       17.50500000000001      64.185000000000002      73.910000000000011
   281   1      15.560000000000018      62.240000000000009      77.800000000000011
   282   1      15.560000000000018      64.185000000000002      79.745000000000005
   283   1       17.50500000000001      62.240000000000009      79.745000000000005
   284   1       17.50500000000001      64.185000000000002      77.800000000000011
   285   1       17.50500000000001      64.185000000000002      81.690000000000012
   286   1       17.50500000000001       66.13000000000001      48.625000000000021
   287   1      15.560000000000018       66.13000000000001      50.570000000000014
   288   1      15.560000000000018      68.075000000000003      52.515000000000015
   289   1       17.50500000000001       66.13000000000001      52.515000000000015
   290   1       17.50500000000001      68.075000000000003      50.570000000000014
   291   1      15.560000000000018       66.13000000000001      54.460000000000015
   292   1      15.560000000000018      68.075000000000003      56.405000000000015
   293   1       17.50500000000001       66.13000000000001      56.405000000000015
   294   1       17.50500000000001      68.075000000000003      54.460000000000015
   295   1      15.560000000000018       66.13000000000001      58.350000000000016
   296   1      15.560000000000018      68.075000000000003      60.295000000000016
   297   1       17.50500000000001       66.13000000000001      60.295000000000016
   298   1       17.50500000000001      68.075000000000003      58.350000000000016
   299   1      15.560000000000018       66.13000000000001      62.240000000000009
   300   1      15.560000000000018      68.075000000000003      64.185000000000002
   301   1       17.50500000000001       66.13000000000001      64.185000000000002
   302   1       17.50500000000001      68.075000000000003      62.240000000000009
   303   1      15.560000000000018       66.13000000000001       66.13000000000001
   304   1      15.560000000000018      68.075000000000003      68.075000000000003
   305   1       17.50500000000001       66.13000000000001      68.075000000000003
   306   1       17.50500000000001      68.075000000000003       66.13000000000001
   307   1      15.560000000000018       66.13000000000001       70.02000000000001
   308   1      15.560000000000018      68.075000000000003      71.965000000000018
   309   1       17.50500000000001       66.13000000000001      71.965000000000018
   310   1       17.50500000000001      68.075000000000003       70.02000000000001
   311   1      15.560000000000018       66.13000000000001      73.910000000000011
   312   1      15.560000000000018      68.075000000000003      75.855000000000004
   313   1       17.50500000000001       66.13000000000001      75.855000000000004
   314   1       17.50500000000001      68.075000000000003      73.910000000000011
   315   1      15.560000000000018       66.13000000000001      77.800000000000011
   316   1      15.560000000000018      68.075000000000003      79.745000000000005
   317   1       17.50500000000001       66.13000000000001      79.745000000000005
   318   1       17.50500000000001      68.075000000000003      77.800000000000011
   319   1      15.560000000000018       66.13000000000001      81.690000000000012
   320   1       17.50500000000001       66.13000000000001      83.635000000000005
   321   1       17.50500000000001      68.075000000000003      81.690000000000012
   322   1       17.50500000000001       70.02000000000001      52.515000000000015
   323   1      15.560000000000018       70.02000000000001      54.460000000000015
   324   1      15.560000000000018      71.965000000000018      56.405000000000015
   325   1       17.50500000000001       70.02000000000001      56.405000000000015
   326   1       17.50500000000001      71.965000000000018      54.460000000000015
   327   1      15.560000000000018       70.02000000000001      58.350000000000016
   328   1      15.560000000000018      71.965000000000018      60.295000000000016
   329   1       17.50500000000001       70.02000000000001      60.295000000000016
   330   1       17.50500000000001      71.965000000000018      58.350000000000016
   331   1      15.560000000000018       70.02000000000001      62.240000000000009
   332   1      15.560000000000018      71.965000000000018      64.185000000000002
   333   1       17.50500000000001       70.02000000000001      64.185000000000002
   334   1       17.50500000000001      71.965000000000018      62.240000000000009
   335   1      15.560000000000018       70.02000000000001       66.13000000000001
   336   1      15.560000000000018      71.965000000000018      68.075000000000003
   337   1       17.50500000000001       70.02000000000001      68.075000000000003
   338   1       17.50500000000001      71.965000000000018       66.13000000000001
   339   1      15.560000000000018       70.02000000000001       70.02000000000001
   340   1      15.560000000000018      71.965000000000018      71.965000000000018
   341   1       17.50500000000001       70.02000000000001      71.965000000000018
   342   1       17.50500000000001      71.965000000000018       70.02000000000001
   343   1      15.560000000000018       70.02000000000001      73.910000000000011
   344   1      15.560000000000018      71.965000000000018      75.855000000000004
   345   1       17.50500000000001       70.02000000000001      75.855000000000004
   346   1       17.50500000000001      71.965000000000018      73.910000000000011
   347   1      15.560000000000018       70.02000000000001      77.800000000000011
   348   1       17.50500000000001       70.02000000000001      79.745000000000005
   349   1       17.50500000000001      71.965000000000018      77.800000000000011
   350   1       17.50500000000001      73.910000000000011      56.405000000000015
   351   1      15.560000000000018      73.910000000000011      58.350000000000016
   352   1      15.560000000000018      75.855000000000004      60.295000000000016
   353   1       17.50500000000001      73.910000000000011      60.295000000000016
   354   1       17.50500000000001      75.855000000000004      58.350000000000016
   355   1      15.560000000000018      73.910000000000011      62.240000000000009
   356   1      15.560000000000018      75.855000000000004      64.185000000000002
   357   1       17.50500000000001      73.910000000000011      64.185000000000002
   358   1       17.50500000000001      75.855000000000004      62.240000000000009