model_files/NiFeCrCoCu/NiFeCrCoCu_30000/NiFeCrCoCu_531/NiFeCrCoCu_531_fcc_29859_temp.data (written by ASE) 

29859 	 atoms 
5  atom types
0.0                      96  xlo xhi
0.0                      96  ylo yhi
0.0                      96  zlo zhi


Atoms 

     1   1                       0      46.409999999999997      48.194999999999993
     2   1                       0      48.194999999999993      46.409999999999997
     3   1                       0      48.194999999999993       49.97999999999999
     4   1                       0       49.97999999999999      48.194999999999993
     5   1      3.5699999999999998      41.054999999999993      46.409999999999997
     6   1      3.5699999999999998      42.839999999999989                  44.625
     7   1      3.5699999999999998      41.054999999999993       49.97999999999999
     8   1      3.5699999999999998      42.839999999999989      48.194999999999993
     9   1      3.5699999999999998      42.839999999999989      51.765000000000001
    10   1      3.5699999999999998                  44.625      42.839999999999989
    11   1      3.5699999999999998      46.409999999999997      41.054999999999993
    12   1      1.7850000000000037                  44.625                  44.625
    13   1      1.7850000000000037      46.409999999999997      46.409999999999997
    14   1      3.5699999999999998                  44.625      46.409999999999997
    15   1      3.5699999999999998      46.409999999999997                  44.625
    16   1      1.7850000000000037                  44.625      48.194999999999993
    17   1      1.7850000000000037      46.409999999999997       49.97999999999999
    18   1      3.5699999999999998                  44.625       49.97999999999999
    19   1      3.5699999999999998      46.409999999999997      48.194999999999993
    20   1      1.7850000000000037                  44.625      51.765000000000001
    21   1      3.5699999999999998                  44.625      53.549999999999997
    22   1      3.5699999999999998      46.409999999999997      51.765000000000001
    23   1      3.5699999999999998      46.409999999999997      55.335000000000001
    24   1      3.5699999999999998      48.194999999999993      42.839999999999989
    25   1      3.5699999999999998       49.97999999999999      41.054999999999993
    26   1      1.7850000000000037      48.194999999999993                  44.625
    27   1      1.7850000000000037       49.97999999999999      46.409999999999997
    28   1      3.5699999999999998      48.194999999999993      46.409999999999997
    29   1      3.5699999999999998       49.97999999999999                  44.625
    30   1      1.7850000000000037      48.194999999999993      48.194999999999993
    31   1      1.7850000000000037       49.97999999999999       49.97999999999999
    32   1      3.5699999999999998      48.194999999999993       49.97999999999999
    33   1      3.5699999999999998       49.97999999999999      48.194999999999993
    34   1      1.7850000000000037      48.194999999999993      51.765000000000001
    35   1      3.5699999999999998      48.194999999999993      53.549999999999997
    36   1      3.5699999999999998       49.97999999999999      51.765000000000001
    37   1      3.5699999999999998       49.97999999999999      55.335000000000001
    38   1      3.5699999999999998      51.765000000000001      42.839999999999989
    39   1      1.7850000000000037      51.765000000000001                  44.625
    40   1      3.5699999999999998      51.765000000000001      46.409999999999997
    41   1      3.5699999999999998      53.549999999999997                  44.625
    42   1      1.7850000000000037      51.765000000000001      48.194999999999993
    43   1      3.5699999999999998      51.765000000000001       49.97999999999999
    44   1      3.5699999999999998      53.549999999999997      48.194999999999993
    45   1      1.7850000000000037      51.765000000000001      51.765000000000001
    46   1      3.5699999999999998      51.765000000000001      53.549999999999997
    47   1      3.5699999999999998      53.549999999999997      51.765000000000001
    48   1      3.5699999999999998      55.335000000000001      46.409999999999997
    49   1      3.5699999999999998      55.335000000000001       49.97999999999999
    50   1      7.1399999999999997      35.699999999999996                  44.625
    51   1      7.1399999999999997      35.699999999999996      48.194999999999993
    52   1      7.1399999999999997      35.699999999999996      51.765000000000001
    53   1      7.1399999999999997      37.484999999999999      39.269999999999996
    54   1      7.1399999999999997      39.269999999999996      37.484999999999999
    55   1       5.355000000000004      39.269999999999996      42.839999999999989
    56   1      7.1399999999999997      37.484999999999999      42.839999999999989
    57   1      7.1399999999999997      39.269999999999996      41.054999999999993
    58   1       5.355000000000004      39.269999999999996      46.409999999999997
    59   1      7.1399999999999997      37.484999999999999      46.409999999999997
    60   1      7.1399999999999997      39.269999999999996                  44.625
    61   1       5.355000000000004      37.484999999999999      48.194999999999993
    62   1       5.355000000000004      39.269999999999996       49.97999999999999
    63   1      7.1399999999999997      37.484999999999999       49.97999999999999
    64   1      7.1399999999999997      39.269999999999996      48.194999999999993
    65   1       5.355000000000004      39.269999999999996      53.549999999999997
    66   1      7.1399999999999997      37.484999999999999      53.549999999999997
    67   1      7.1399999999999997      39.269999999999996      51.765000000000001
    68   1      7.1399999999999997      37.484999999999999      57.119999999999997
    69   1      7.1399999999999997      39.269999999999996      55.335000000000001
    70   1      7.1399999999999997      39.269999999999996      58.904999999999994
    71   1       5.355000000000004      42.839999999999989      39.269999999999996
    72   1      7.1399999999999997      41.054999999999993      39.269999999999996
    73   1      7.1399999999999997      42.839999999999989      37.484999999999999
    74   1       5.355000000000004      41.054999999999993      41.054999999999993
    75   1       5.355000000000004      42.839999999999989      42.839999999999989
    76   1      7.1399999999999997      41.054999999999993      42.839999999999989
    77   1      7.1399999999999997      42.839999999999989      41.054999999999993
    78   1       5.355000000000004      41.054999999999993                  44.625
    79   1       5.355000000000004      42.839999999999989      46.409999999999997
    80   1      7.1399999999999997      41.054999999999993      46.409999999999997
    81   1      7.1399999999999997      42.839999999999989                  44.625
    82   1       5.355000000000004      41.054999999999993      48.194999999999993
    83   1       5.355000000000004      42.839999999999989       49.97999999999999
    84   1      7.1399999999999997      41.054999999999993       49.97999999999999
    85   1      7.1399999999999997      42.839999999999989      48.194999999999993
    86   1       5.355000000000004      41.054999999999993      51.765000000000001
    87   1       5.355000000000004      42.839999999999989      53.549999999999997
    88   1      7.1399999999999997      41.054999999999993      53.549999999999997
    89   1      7.1399999999999997      42.839999999999989      51.765000000000001
    90   1       5.355000000000004      41.054999999999993      55.335000000000001
    91   1       5.355000000000004      42.839999999999989      57.119999999999997
    92   1      7.1399999999999997      41.054999999999993      57.119999999999997
    93   1      7.1399999999999997      42.839999999999989      55.335000000000001
    94   1      7.1399999999999997      42.839999999999989      58.904999999999994
    95   1      7.1399999999999997                  44.625      35.699999999999996
    96   1       5.355000000000004      46.409999999999997      39.269999999999996
    97   1      7.1399999999999997                  44.625      39.269999999999996
    98   1      7.1399999999999997      46.409999999999997      37.484999999999999
    99   1       5.355000000000004                  44.625      41.054999999999993
   100   1       5.355000000000004      46.409999999999997      42.839999999999989
   101   1      7.1399999999999997                  44.625      42.839999999999989
   102   1      7.1399999999999997      46.409999999999997      41.054999999999993
   103   1       5.355000000000004                  44.625                  44.625
   104   1       5.355000000000004      46.409999999999997      46.409999999999997
   105   1      7.1399999999999997                  44.625      46.409999999999997
   106   1      7.1399999999999997      46.409999999999997                  44.625
   107   1       5.355000000000004                  44.625      48.194999999999993
   108   1       5.355000000000004      46.409999999999997       49.97999999999999
   109   1      7.1399999999999997                  44.625       49.97999999999999
   110   1      7.1399999999999997      46.409999999999997      48.194999999999993
   111   1       5.355000000000004                  44.625      51.765000000000001
   112   1       5.355000000000004      46.409999999999997      53.549999999999997
   113   1      7.1399999999999997                  44.625      53.549999999999997
   114   1      7.1399999999999997      46.409999999999997      51.765000000000001
   115   1       5.355000000000004                  44.625      55.335000000000001
   116   1       5.355000000000004      46.409999999999997      57.119999999999997
   117   1      7.1399999999999997                  44.625      57.119999999999997
   118   1      7.1399999999999997      46.409999999999997      55.335000000000001
   119   1      7.1399999999999997                  44.625      60.689999999999991
   120   1      7.1399999999999997      46.409999999999997      58.904999999999994
   121   1      7.1399999999999997      48.194999999999993      35.699999999999996
   122   1       5.355000000000004      48.194999999999993      37.484999999999999
   123   1       5.355000000000004       49.97999999999999      39.269999999999996
   124   1      7.1399999999999997      48.194999999999993      39.269999999999996
   125   1      7.1399999999999997       49.97999999999999      37.484999999999999
   126   1       5.355000000000004      48.194999999999993      41.054999999999993
   127   1       5.355000000000004       49.97999999999999      42.839999999999989
   128   1      7.1399999999999997      48.194999999999993      42.839999999999989
   129   1      7.1399999999999997       49.97999999999999      41.054999999999993
   130   1       5.355000000000004      48.194999999999993                  44.625
   131   1       5.355000000000004       49.97999999999999      46.409999999999997
   132   1      7.1399999999999997      48.194999999999993      46.409999999999997
   133   1      7.1399999999999997       49.97999999999999                  44.625
   134   1       5.355000000000004      48.194999999999993      48.194999999999993
   135   1       5.355000000000004       49.97999999999999       49.97999999999999
   136   1      7.1399999999999997      48.194999999999993       49.97999999999999
   137   1      7.1399999999999997       49.97999999999999      48.194999999999993
   138   1       5.355000000000004      48.194999999999993      51.765000000000001
   139   1       5.355000000000004       49.97999999999999      53.549999999999997
   140   1      7.1399999999999997      48.194999999999993      53.549999999999997
   141   1      7.1399999999999997       49.97999999999999      51.765000000000001
   142   1       5.355000000000004      48.194999999999993      55.335000000000001
   143   1       5.355000000000004       49.97999999999999      57.119999999999997
   144   1      7.1399999999999997      48.194999999999993      57.119999999999997
   145   1      7.1399999999999997       49.97999999999999      55.335000000000001
   146   1       5.355000000000004      48.194999999999993      58.904999999999994
   147   1      7.1399999999999997      48.194999999999993      60.689999999999991
   148   1      7.1399999999999997       49.97999999999999      58.904999999999994
   149   1      7.1399999999999997      51.765000000000001      35.699999999999996
   150   1       5.355000000000004      53.549999999999997      39.269999999999996
   151   1      7.1399999999999997      51.765000000000001      39.269999999999996
   152   1      7.1399999999999997      53.549999999999997      37.484999999999999
   153   1       5.355000000000004      51.765000000000001      41.054999999999993
   154   1       5.355000000000004      53.549999999999997      42.839999999999989
   155   1      7.1399999999999997      51.765000000000001      42.839999999999989
   156   1      7.1399999999999997      53.549999999999997      41.054999999999993
   157   1       5.355000000000004      51.765000000000001                  44.625
   158   1       5.355000000000004      53.549999999999997      46.409999999999997
   159   1      7.1399999999999997      51.765000000000001      46.409999999999997
   160   1      7.1399999999999997      53.549999999999997                  44.625
   161   1       5.355000000000004      51.765000000000001      48.194999999999993
   162   1       5.355000000000004      53.549999999999997       49.97999999999999
   163   1      7.1399999999999997      51.765000000000001       49.97999999999999
   164   1      7.1399999999999997      53.549999999999997      48.194999999999993
   165   1       5.355000000000004      51.765000000000001      51.765000000000001
   166   1       5.355000000000004      53.549999999999997      53.549999999999997
   167   1      7.1399999999999997      51.765000000000001      53.549999999999997
   168   1      7.1399999999999997      53.549999999999997      51.765000000000001
   169   1       5.355000000000004      51.765000000000001      55.335000000000001
   170   1       5.355000000000004      53.549999999999997      57.119999999999997
   171   1      7.1399999999999997      51.765000000000001      57.119999999999997
   172   1      7.1399999999999997      53.549999999999997      55.335000000000001
   173   1      7.1399999999999997      51.765000000000001      60.689999999999991
   174   1      7.1399999999999997      53.549999999999997      58.904999999999994
   175   1      7.1399999999999997      55.335000000000001      39.269999999999996
   176   1      7.1399999999999997      57.119999999999997      37.484999999999999
   177   1       5.355000000000004      55.335000000000001      41.054999999999993
   178   1       5.355000000000004      57.119999999999997      42.839999999999989
   179   1      7.1399999999999997      55.335000000000001      42.839999999999989
   180   1      7.1399999999999997      57.119999999999997      41.054999999999993
   181   1       5.355000000000004      55.335000000000001                  44.625
   182   1       5.355000000000004      57.119999999999997      46.409999999999997
   183   1      7.1399999999999997      55.335000000000001      46.409999999999997
   184   1      7.1399999999999997      57.119999999999997                  44.625
   185   1       5.355000000000004      55.335000000000001      48.194999999999993
   186   1       5.355000000000004      57.119999999999997       49.97999999999999
   187   1      7.1399999999999997      55.335000000000001       49.97999999999999
   188   1      7.1399999999999997      57.119999999999997      48.194999999999993
   189   1       5.355000000000004      55.335000000000001      51.765000000000001
   190   1       5.355000000000004      57.119999999999997      53.549999999999997
   191   1      7.1399999999999997      55.335000000000001      53.549999999999997
   192   1      7.1399999999999997      57.119999999999997      51.765000000000001
   193   1       5.355000000000004      55.335000000000001      55.335000000000001
   194   1      7.1399999999999997      55.335000000000001      57.119999999999997
   195   1      7.1399999999999997      57.119999999999997      55.335000000000001
   196   1      7.1399999999999997      57.119999999999997      58.904999999999994
   197   1      7.1399999999999997      58.904999999999994      39.269999999999996
   198   1      7.1399999999999997      58.904999999999994      42.839999999999989
   199   1      7.1399999999999997      58.904999999999994      46.409999999999997
   200   1      7.1399999999999997      60.689999999999991                  44.625
   201   1       5.355000000000004      58.904999999999994      48.194999999999993
   202   1      7.1399999999999997      58.904999999999994       49.97999999999999
   203   1      7.1399999999999997      60.689999999999991      48.194999999999993
   204   1      7.1399999999999997      58.904999999999994      53.549999999999997
   205   1      7.1399999999999997      60.689999999999991      51.765000000000001
   206   1      7.1399999999999997      58.904999999999994      57.119999999999997
   207   1      10.710000000000001      28.559999999999999      48.194999999999993
   208   1      10.710000000000001      32.129999999999995      37.484999999999999
   209   1      10.710000000000001      30.344999999999995      42.839999999999989
   210   1      10.710000000000001      32.129999999999995      41.054999999999993
   211   1      8.9250000000000043      32.129999999999995      46.409999999999997
   212   1      10.710000000000001      30.344999999999995      46.409999999999997
   213   1      10.710000000000001      32.129999999999995                  44.625
   214   1      8.9250000000000043      32.129999999999995       49.97999999999999
   215   1      10.710000000000001      30.344999999999995       49.97999999999999
   216   1      10.710000000000001      32.129999999999995      48.194999999999993
   217   1      10.710000000000001      30.344999999999995      53.549999999999997
   218   1      10.710000000000001      32.129999999999995      51.765000000000001
   219   1      10.710000000000001      32.129999999999995      55.335000000000001
   220   1      10.710000000000001      32.129999999999995      58.904999999999994
   221   1      8.9250000000000043      35.699999999999996      35.699999999999996
   222   1      10.710000000000001      33.914999999999999      35.699999999999996
   223   1      10.710000000000001      35.699999999999996      33.914999999999999
   224   1      8.9250000000000043      35.699999999999996      39.269999999999996
   225   1      10.710000000000001      33.914999999999999      39.269999999999996
   226   1      10.710000000000001      35.699999999999996      37.484999999999999
   227   1      8.9250000000000043      33.914999999999999      41.054999999999993
   228   1      8.9250000000000043      35.699999999999996      42.839999999999989
   229   1      10.710000000000001      33.914999999999999      42.839999999999989
   230   1      10.710000000000001      35.699999999999996      41.054999999999993
   231   1      8.9250000000000043      33.914999999999999                  44.625
   232   1      8.9250000000000043      35.699999999999996      46.409999999999997
   233   1      10.710000000000001      33.914999999999999      46.409999999999997
   234   1      10.710000000000001      35.699999999999996                  44.625
   235   1      8.9250000000000043      33.914999999999999      48.194999999999993
   236   1      8.9250000000000043      35.699999999999996       49.97999999999999
   237   1      10.710000000000001      33.914999999999999       49.97999999999999
   238   1      10.710000000000001      35.699999999999996      48.194999999999993
   239   1      8.9250000000000043      33.914999999999999      51.765000000000001
   240   1      8.9250000000000043      35.699999999999996      53.549999999999997
   241   1      10.710000000000001      33.914999999999999      53.549999999999997
   242   1      10.710000000000001      35.699999999999996      51.765000000000001
   243   1      8.9250000000000043      33.914999999999999      55.335000000000001
   244   1      8.9250000000000043      35.699999999999996      57.119999999999997
   245   1      10.710000000000001      33.914999999999999      57.119999999999997
   246   1      10.710000000000001      35.699999999999996      55.335000000000001
   247   1      8.9250000000000043      35.699999999999996      60.689999999999991
   248   1      10.710000000000001      33.914999999999999      60.689999999999991
   249   1      10.710000000000001      35.699999999999996      58.904999999999994
   250   1      10.710000000000001      35.699999999999996      62.474999999999987
   251   1      10.710000000000001      37.484999999999999      32.129999999999995
   252   1      8.9250000000000043      39.269999999999996      35.699999999999996
   253   1      10.710000000000001      37.484999999999999      35.699999999999996
   254   1      10.710000000000001      39.269999999999996      33.914999999999999
   255   1      8.9250000000000043      37.484999999999999      37.484999999999999
   256   1      8.9250000000000043      39.269999999999996      39.269999999999996
   257   1      10.710000000000001      37.484999999999999      39.269999999999996
   258   1      10.710000000000001      39.269999999999996      37.484999999999999
   259   1      8.9250000000000043      37.484999999999999      41.054999999999993
   260   1      8.9250000000000043      39.269999999999996      42.839999999999989
   261   1      10.710000000000001      37.484999999999999      42.839999999999989
   262   1      10.710000000000001      39.269999999999996      41.054999999999993
   263   1      8.9250000000000043      37.484999999999999                  44.625
   264   1      8.9250000000000043      39.269999999999996      46.409999999999997
   265   1      10.710000000000001      37.484999999999999      46.409999999999997
   266   1      10.710000000000001      39.269999999999996                  44.625
   267   1      8.9250000000000043      37.484999999999999      48.194999999999993
   268   1      8.9250000000000043      39.269999999999996       49.97999999999999
   269   1      10.710000000000001      37.484999999999999       49.97999999999999
   270   1      10.710000000000001      39.269999999999996      48.194999999999993
   271   1      8.9250000000000043      37.484999999999999      51.765000000000001
   272   1      8.9250000000000043      39.269999999999996      53.549999999999997
   273   1      10.710000000000001      37.484999999999999      53.549999999999997
   274   1      10.710000000000001      39.269999999999996      51.765000000000001
   275   1      8.9250000000000043      37.484999999999999      55.335000000000001
   276   1      8.9250000000000043      39.269999999999996      57.119999999999997
   277   1      10.710000000000001      37.484999999999999      57.119999999999997
   278   1      10.710000000000001      39.269999999999996      55.335000000000001
   279   1      8.9250000000000043      37.484999999999999      58.904999999999994
   280   1      8.9250000000000043      39.269999999999996      60.689999999999991
   281   1      10.710000000000001      37.484999999999999      60.689999999999991
   282   1      10.710000000000001      39.269999999999996      58.904999999999994
   283   1      10.710000000000001      37.484999999999999      64.259999999999991
   284   1      10.710000000000001      39.269999999999996      62.474999999999987
   285   1      10.710000000000001      41.054999999999993      32.129999999999995
   286   1      10.710000000000001      42.839999999999989      30.344999999999995
   287   1      8.9250000000000043      41.054999999999993      33.914999999999999
   288   1      8.9250000000000043      42.839999999999989      35.699999999999996
   289   1      10.710000000000001      41.054999999999993      35.699999999999996
   290   1      10.710000000000001      42.839999999999989      33.914999999999999
   291   1      8.9250000000000043      41.054999999999993      37.484999999999999
   292   1      8.9250000000000043      42.839999999999989      39.269999999999996
   293   1      10.710000000000001      41.054999999999993      39.269999999999996
   294   1      10.710000000000001      42.839999999999989      37.484999999999999
   295   1      8.9250000000000043      41.054999999999993      41.054999999999993
   296   1      8.9250000000000043      42.839999999999989      42.839999999999989
   297   1      10.710000000000001      41.054999999999993      42.839999999999989
   298   1      10.710000000000001      42.839999999999989      41.054999999999993
   299   1      8.9250000000000043      41.054999999999993                  44.625
   300   1      8.9250000000000043      42.839999999999989      46.409999999999997
   301   1      10.710000000000001      41.054999999999993      46.409999999999997
   302   1      10.710000000000001      42.839999999999989                  44.625
   303   1      8.9250000000000043      41.054999999999993      48.194999999999993
   304   1      8.9250000000000043      42.839999999999989       49.97999999999999
   305   1      10.710000000000001      41.054999999999993       49.97999999999999
   306   1      10.710000000000001      42.839999999999989      48.194999999999993
   307   1      8.9250000000000043      41.054999999999993      51.765000000000001
   308   1      8.9250000000000043      42.839999999999989      53.549999999999997
   309   1      10.710000000000001      41.054999999999993      53.549999999999997
   310   1      10.710000000000001      42.839999999999989      51.765000000000001
   311   1      8.9250000000000043      41.054999999999993      55.335000000000001
   312   1      8.9250000000000043      42.839999999999989      57.119999999999997
   313   1      10.710000000000001      41.054999999999993      57.119999999999997
   314   1      10.710000000000001      42.839999999999989      55.335000000000001
   315   1      8.9250000000000043      41.054999999999993      58.904999999999994
   316   1      8.9250000000000043      42.839999999999989      60.689999999999991
   317   1      10.710000000000001      41.054999999999993      60.689999999999991
   318   1      10.710000000000001      42.839999999999989      58.904999999999994
   319   1      8.9250000000000043      41.054999999999993      62.474999999999987
   320   1      10.710000000000001      41.054999999999993      64.259999999999991
   321   1      10.710000000000001      42.839999999999989      62.474999999999987
   322   1      10.710000000000001      42.839999999999989      66.045000000000002
   323   1      8.9250000000000043      46.409999999999997      32.129999999999995
   324   1      10.710000000000001                  44.625      32.129999999999995
   325   1      10.710000000000001      46.409999999999997      30.344999999999995
   326   1      8.9250000000000043                  44.625      33.914999999999999
   327   1      8.9250000000000043      46.409999999999997      35.699999999999996
   328   1      10.710000000000001                  44.625      35.699999999999996
   329   1      10.710000000000001      46.409999999999997      33.914999999999999
   330   1      8.9250000000000043                  44.625      37.484999999999999
   331   1      8.9250000000000043      46.409999999999997      39.269999999999996
   332   1      10.710000000000001                  44.625      39.269999999999996
   333   1      10.710000000000001      46.409999999999997      37.484999999999999
   334   1      8.9250000000000043                  44.625      41.054999999999993
   335   1      8.9250000000000043      46.409999999999997      42.839999999999989
   336   1      10.710000000000001                  44.625      42.839999999999989
   337   1      10.710000000000001      46.409999999999997      41.054999999999993
   338   1      8.9250000000000043                  44.625                  44.625
   339   1      8.9250000000000043      46.409999999999997      46.409999999999997
   340   1      10.710000000000001                  44.625      46.409999999999997
   341   1      10.710000000000001      46.409999999999997                  44.625
   342   1      8.9250000000000043                  44.625      48.194999999999993
   343   1      8.9250000000000043      46.409999999999997       49.97999999999999
   344   1      10.710000000000001                  44.625       49.97999999999999
   345   1      10.710000000000001      46.409999999999997      48.194999999999993
   346   1      8.9250000000000043                  44.625      51.765000000000001
   347   1      8.9250000000000043      46.409999999999997      53.549999999999997
   348   1      10.710000000000001                  44.625      53.549999999999997
   349   1      10.710000000000001      46.409999999999997      51.765000000000001
   350   1      8.9250000000000043                  44.625      55.335000000000001
   351   1      8.9250000000000043      46.409999999999997      57.119999999999997
   352   1      10.710000000000001                  44.625      57.119999999999997
   353   1      10.710000000000001      46.409999999999997      55.335000000000001
   354   1      8.9250000000000043                  44.625      58.904999999999994
   355   1      8.9250000000000043      46.409999999999997      60.689999999999991
   356   1      10.710000000000001                  44.625      60.689999999999991
   357   1      10.710000000000001      46.409999999999997      58.904999999999994
   358   1      8.9250000000000043                  44.625      62.474999999999987