model_files/Pt/Pt_3000/Pt_410/data.Pt_410_fcc_3039 (written by ASE) 

3039 	 atoms 
1  atom types
0.0                      41  xlo xhi
0.0                      41  ylo yhi
0.0                      41  zlo zhi


Atoms 

     1   1      1.9599999999999975      7.8399999999999981      9.7999999999999972
     2   1      1.9599999999999975      9.7999999999999972      7.8399999999999981
     3   1      1.9599999999999975      7.8399999999999981      13.719999999999999
     4   1      1.9599999999999975      9.7999999999999972                   11.76
     5   1      1.9599999999999975      7.8399999999999981      17.640000000000001
     6   1      1.9599999999999975      9.7999999999999972                   15.68
     7   1      1.9599999999999975      7.8399999999999981      21.560000000000002
     8   1      1.9599999999999975      9.7999999999999972      19.599999999999998
     9   1      1.9599999999999975      7.8399999999999981                   25.48
    10   1      1.9599999999999975      9.7999999999999972                   23.52
    11   1      1.9599999999999975      7.8399999999999981      29.399999999999999
    12   1      1.9599999999999975      9.7999999999999972      27.439999999999998
    13   1      1.9599999999999975      9.7999999999999972      31.359999999999999
    14   1      1.9599999999999975                   11.76      9.7999999999999972
    15   1      1.9599999999999975      13.719999999999999      7.8399999999999981
    16   1      1.9599999999999975                   11.76      13.719999999999999
    17   1      1.9599999999999975      13.719999999999999                   11.76
    18   1      1.9599999999999975                   11.76      17.640000000000001
    19   1      1.9599999999999975      13.719999999999999                   15.68
    20   1      1.9599999999999975                   11.76      21.560000000000002
    21   1      1.9599999999999975      13.719999999999999      19.599999999999998
    22   1      1.9599999999999975                   11.76                   25.48
    23   1      1.9599999999999975      13.719999999999999                   23.52
    24   1      1.9599999999999975                   11.76      29.399999999999999
    25   1      1.9599999999999975      13.719999999999999      27.439999999999998
    26   1      1.9599999999999975      13.719999999999999      31.359999999999999
    27   1      1.9599999999999975                   15.68      9.7999999999999972
    28   1      1.9599999999999975      17.640000000000001      7.8399999999999981
    29   1      1.9599999999999975                   15.68      13.719999999999999
    30   1      1.9599999999999975      17.640000000000001                   11.76
    31   1      40.999999999999993                   15.68                   15.68
    32   1      40.999999999999993      17.640000000000001      17.640000000000001
    33   1      1.9599999999999975                   15.68      17.640000000000001
    34   1      1.9599999999999975      17.640000000000001                   15.68
    35   1      40.999999999999993                   15.68      19.599999999999998
    36   1      40.999999999999993      17.640000000000001      21.560000000000002
    37   1      1.9599999999999975                   15.68      21.560000000000002
    38   1      1.9599999999999975      17.640000000000001      19.599999999999998
    39   1      40.999999999999993                   15.68                   23.52
    40   1      1.9599999999999975                   15.68                   25.48
    41   1      1.9599999999999975      17.640000000000001                   23.52
    42   1      1.9599999999999975                   15.68      29.399999999999999
    43   1      1.9599999999999975      17.640000000000001      27.439999999999998
    44   1      1.9599999999999975      17.640000000000001      31.359999999999999
    45   1      1.9599999999999975      19.599999999999998      9.7999999999999972
    46   1      1.9599999999999975      21.560000000000002      7.8399999999999981
    47   1      1.9599999999999975      19.599999999999998      13.719999999999999
    48   1      1.9599999999999975      21.560000000000002                   11.76
    49   1      40.999999999999993      19.599999999999998                   15.68
    50   1      40.999999999999993      21.560000000000002      17.640000000000001
    51   1      1.9599999999999975      19.599999999999998      17.640000000000001
    52   1      1.9599999999999975      21.560000000000002                   15.68
    53   1      40.999999999999993      19.599999999999998      19.599999999999998
    54   1      40.999999999999993      21.560000000000002      21.560000000000002
    55   1      1.9599999999999975      19.599999999999998      21.560000000000002
    56   1      1.9599999999999975      21.560000000000002      19.599999999999998
    57   1      40.999999999999993      19.599999999999998                   23.52
    58   1      1.9599999999999975      19.599999999999998                   25.48
    59   1      1.9599999999999975      21.560000000000002                   23.52
    60   1      1.9599999999999975      19.599999999999998      29.399999999999999
    61   1      1.9599999999999975      21.560000000000002      27.439999999999998
    62   1      1.9599999999999975      21.560000000000002      31.359999999999999
    63   1      1.9599999999999975                   23.52      9.7999999999999972
    64   1      1.9599999999999975                   25.48      7.8399999999999981
    65   1      1.9599999999999975                   23.52      13.719999999999999
    66   1      1.9599999999999975                   25.48                   11.76
    67   1      40.999999999999993                   23.52                   15.68
    68   1      1.9599999999999975                   23.52      17.640000000000001
    69   1      1.9599999999999975                   25.48                   15.68
    70   1      40.999999999999993                   23.52      19.599999999999998
    71   1      1.9599999999999975                   23.52      21.560000000000002
    72   1      1.9599999999999975                   25.48      19.599999999999998
    73   1      40.999999999999993                   23.52                   23.52
    74   1      1.9599999999999975                   23.52                   25.48
    75   1      1.9599999999999975                   25.48                   23.52
    76   1      1.9599999999999975                   23.52      29.399999999999999
    77   1      1.9599999999999975                   25.48      27.439999999999998
    78   1      1.9599999999999975                   25.48      31.359999999999999
    79   1      1.9599999999999975      27.439999999999998      9.7999999999999972
    80   1      1.9599999999999975      29.399999999999999      7.8399999999999981
    81   1      1.9599999999999975      27.439999999999998      13.719999999999999
    82   1      1.9599999999999975      29.399999999999999                   11.76
    83   1      1.9599999999999975      27.439999999999998      17.640000000000001
    84   1      1.9599999999999975      29.399999999999999                   15.68
    85   1      1.9599999999999975      27.439999999999998      21.560000000000002
    86   1      1.9599999999999975      29.399999999999999      19.599999999999998
    87   1      1.9599999999999975      27.439999999999998                   25.48
    88   1      1.9599999999999975      29.399999999999999                   23.52
    89   1      1.9599999999999975      27.439999999999998      29.399999999999999
    90   1      1.9599999999999975      29.399999999999999      27.439999999999998
    91   1      1.9599999999999975      29.399999999999999      31.359999999999999
    92   1      1.9599999999999975      31.359999999999999      9.7999999999999972
    93   1      1.9599999999999975      31.359999999999999      13.719999999999999
    94   1      1.9599999999999975      31.359999999999999      17.640000000000001
    95   1      1.9599999999999975      31.359999999999999      21.560000000000002
    96   1      1.9599999999999975      31.359999999999999                   25.48
    97   1      1.9599999999999975      31.359999999999999      29.399999999999999
    98   1      3.9199999999999982      3.9199999999999982      3.9199999999999982
    99   1      3.9199999999999982      5.8799999999999999      5.8799999999999999
   100   1      5.8799999999999999      3.9199999999999982      5.8799999999999999
   101   1      5.8799999999999999      5.8799999999999999      3.9199999999999982
   102   1      3.9199999999999982      3.9199999999999982      7.8399999999999981
   103   1      3.9199999999999982      5.8799999999999999      9.7999999999999972
   104   1      5.8799999999999999      3.9199999999999982      9.7999999999999972
   105   1      5.8799999999999999      5.8799999999999999      7.8399999999999981
   106   1      3.9199999999999982      3.9199999999999982                   11.76
   107   1      3.9199999999999982      5.8799999999999999      13.719999999999999
   108   1      5.8799999999999999      3.9199999999999982      13.719999999999999
   109   1      5.8799999999999999      5.8799999999999999                   11.76
   110   1      3.9199999999999982      3.9199999999999982                   15.68
   111   1      3.9199999999999982      5.8799999999999999      17.640000000000001
   112   1      5.8799999999999999      3.9199999999999982      17.640000000000001
   113   1      5.8799999999999999      5.8799999999999999                   15.68
   114   1      3.9199999999999982      3.9199999999999982      19.599999999999998
   115   1      3.9199999999999982      5.8799999999999999      21.560000000000002
   116   1      5.8799999999999999      3.9199999999999982      21.560000000000002
   117   1      5.8799999999999999      5.8799999999999999      19.599999999999998
   118   1      3.9199999999999982      3.9199999999999982                   23.52
   119   1      3.9199999999999982      5.8799999999999999                   25.48
   120   1      5.8799999999999999      3.9199999999999982                   25.48
   121   1      5.8799999999999999      5.8799999999999999                   23.52
   122   1      3.9199999999999982      3.9199999999999982      27.439999999999998
   123   1      3.9199999999999982      5.8799999999999999      29.399999999999999
   124   1      5.8799999999999999      3.9199999999999982      29.399999999999999
   125   1      5.8799999999999999      5.8799999999999999      27.439999999999998
   126   1      3.9199999999999982      3.9199999999999982      31.359999999999999
   127   1      3.9199999999999982      5.8799999999999999                   33.32
   128   1      5.8799999999999999      3.9199999999999982                   33.32
   129   1      5.8799999999999999      5.8799999999999999      31.359999999999999
   130   1      3.9199999999999982      3.9199999999999982      35.280000000000001
   131   1      5.8799999999999999      5.8799999999999999      35.280000000000001
   132   1      3.9199999999999982      7.8399999999999981      3.9199999999999982
   133   1      3.9199999999999982      9.7999999999999972      5.8799999999999999
   134   1      5.8799999999999999      7.8399999999999981      5.8799999999999999
   135   1      5.8799999999999999      9.7999999999999972      3.9199999999999982
   136   1      3.9199999999999982      7.8399999999999981      7.8399999999999981
   137   1      3.9199999999999982      9.7999999999999972      9.7999999999999972
   138   1      5.8799999999999999      7.8399999999999981      9.7999999999999972
   139   1      5.8799999999999999      9.7999999999999972      7.8399999999999981
   140   1      3.9199999999999982      7.8399999999999981                   11.76
   141   1      3.9199999999999982      9.7999999999999972      13.719999999999999
   142   1      5.8799999999999999      7.8399999999999981      13.719999999999999
   143   1      5.8799999999999999      9.7999999999999972                   11.76
   144   1      3.9199999999999982      7.8399999999999981                   15.68
   145   1      3.9199999999999982      9.7999999999999972      17.640000000000001
   146   1      5.8799999999999999      7.8399999999999981      17.640000000000001
   147   1      5.8799999999999999      9.7999999999999972                   15.68
   148   1      3.9199999999999982      7.8399999999999981      19.599999999999998
   149   1      3.9199999999999982      9.7999999999999972      21.560000000000002
   150   1      5.8799999999999999      7.8399999999999981      21.560000000000002
   151   1      5.8799999999999999      9.7999999999999972      19.599999999999998
   152   1      3.9199999999999982      7.8399999999999981                   23.52
   153   1      3.9199999999999982      9.7999999999999972                   25.48
   154   1      5.8799999999999999      7.8399999999999981                   25.48
   155   1      5.8799999999999999      9.7999999999999972                   23.52
   156   1      3.9199999999999982      7.8399999999999981      27.439999999999998
   157   1      3.9199999999999982      9.7999999999999972      29.399999999999999
   158   1      5.8799999999999999      7.8399999999999981      29.399999999999999
   159   1      5.8799999999999999      9.7999999999999972      27.439999999999998
   160   1      3.9199999999999982      7.8399999999999981      31.359999999999999
   161   1      3.9199999999999982      9.7999999999999972                   33.32
   162   1      5.8799999999999999      7.8399999999999981                   33.32
   163   1      5.8799999999999999      9.7999999999999972      31.359999999999999
   164   1      3.9199999999999982      7.8399999999999981      35.280000000000001
   165   1      5.8799999999999999      9.7999999999999972      35.280000000000001
   166   1      3.9199999999999982                   11.76      3.9199999999999982
   167   1      3.9199999999999982      13.719999999999999      5.8799999999999999
   168   1      5.8799999999999999                   11.76      5.8799999999999999
   169   1      5.8799999999999999      13.719999999999999      3.9199999999999982
   170   1      3.9199999999999982                   11.76      7.8399999999999981
   171   1      3.9199999999999982      13.719999999999999      9.7999999999999972
   172   1      5.8799999999999999                   11.76      9.7999999999999972
   173   1      5.8799999999999999      13.719999999999999      7.8399999999999981
   174   1      3.9199999999999982                   11.76                   11.76
   175   1      3.9199999999999982      13.719999999999999      13.719999999999999
   176   1      5.8799999999999999                   11.76      13.719999999999999
   177   1      5.8799999999999999      13.719999999999999                   11.76
   178   1      3.9199999999999982                   11.76                   15.68
   179   1      3.9199999999999982      13.719999999999999      17.640000000000001
   180   1      5.8799999999999999                   11.76      17.640000000000001
   181   1      5.8799999999999999      13.719999999999999                   15.68
   182   1      3.9199999999999982                   11.76      19.599999999999998
   183   1      3.9199999999999982      13.719999999999999      21.560000000000002
   184   1      5.8799999999999999                   11.76      21.560000000000002
   185   1      5.8799999999999999      13.719999999999999      19.599999999999998
   186   1      3.9199999999999982                   11.76                   23.52
   187   1      3.9199999999999982      13.719999999999999                   25.48
   188   1      5.8799999999999999                   11.76                   25.48
   189   1      5.8799999999999999      13.719999999999999                   23.52
   190   1      3.9199999999999982                   11.76      27.439999999999998
   191   1      3.9199999999999982      13.719999999999999      29.399999999999999
   192   1      5.8799999999999999                   11.76      29.399999999999999
   193   1      5.8799999999999999      13.719999999999999      27.439999999999998
   194   1      3.9199999999999982                   11.76      31.359999999999999
   195   1      3.9199999999999982      13.719999999999999                   33.32
   196   1      5.8799999999999999                   11.76                   33.32
   197   1      5.8799999999999999      13.719999999999999      31.359999999999999
   198   1      3.9199999999999982                   11.76      35.280000000000001
   199   1      5.8799999999999999      13.719999999999999      35.280000000000001
   200   1      3.9199999999999982                   15.68      3.9199999999999982
   201   1      3.9199999999999982      17.640000000000001      5.8799999999999999
   202   1      5.8799999999999999                   15.68      5.8799999999999999
   203   1      5.8799999999999999      17.640000000000001      3.9199999999999982
   204   1      3.9199999999999982                   15.68      7.8399999999999981
   205   1      3.9199999999999982      17.640000000000001      9.7999999999999972
   206   1      5.8799999999999999                   15.68      9.7999999999999972
   207   1      5.8799999999999999      17.640000000000001      7.8399999999999981
   208   1      3.9199999999999982                   15.68                   11.76
   209   1      3.9199999999999982      17.640000000000001      13.719999999999999
   210   1      5.8799999999999999                   15.68      13.719999999999999
   211   1      5.8799999999999999      17.640000000000001                   11.76
   212   1      3.9199999999999982                   15.68                   15.68
   213   1      3.9199999999999982      17.640000000000001      17.640000000000001
   214   1      5.8799999999999999                   15.68      17.640000000000001
   215   1      5.8799999999999999      17.640000000000001                   15.68
   216   1      3.9199999999999982                   15.68      19.599999999999998
   217   1      3.9199999999999982      17.640000000000001      21.560000000000002
   218   1      5.8799999999999999                   15.68      21.560000000000002
   219   1      5.8799999999999999      17.640000000000001      19.599999999999998
   220   1      3.9199999999999982                   15.68                   23.52
   221   1      3.9199999999999982      17.640000000000001                   25.48
   222   1      5.8799999999999999                   15.68                   25.48
   223   1      5.8799999999999999      17.640000000000001                   23.52
   224   1      3.9199999999999982                   15.68      27.439999999999998
   225   1      3.9199999999999982      17.640000000000001      29.399999999999999
   226   1      5.8799999999999999                   15.68      29.399999999999999
   227   1      5.8799999999999999      17.640000000000001      27.439999999999998
   228   1      3.9199999999999982                   15.68      31.359999999999999
   229   1      3.9199999999999982      17.640000000000001                   33.32
   230   1      5.8799999999999999                   15.68                   33.32
   231   1      5.8799999999999999      17.640000000000001      31.359999999999999
   232   1      3.9199999999999982                   15.68      35.280000000000001
   233   1      5.8799999999999999      17.640000000000001      35.280000000000001
   234   1      3.9199999999999982      19.599999999999998      3.9199999999999982
   235   1      3.9199999999999982      21.560000000000002      5.8799999999999999
   236   1      5.8799999999999999      19.599999999999998      5.8799999999999999
   237   1      5.8799999999999999      21.560000000000002      3.9199999999999982
   238   1      3.9199999999999982      19.599999999999998      7.8399999999999981
   239   1      3.9199999999999982      21.560000000000002      9.7999999999999972
   240   1      5.8799999999999999      19.599999999999998      9.7999999999999972
   241   1      5.8799999999999999      21.560000000000002      7.8399999999999981
   242   1      3.9199999999999982      19.599999999999998                   11.76
   243   1      3.9199999999999982      21.560000000000002      13.719999999999999
   244   1      5.8799999999999999      19.599999999999998      13.719999999999999
   245   1      5.8799999999999999      21.560000000000002                   11.76
   246   1      3.9199999999999982      19.599999999999998                   15.68
   247   1      3.9199999999999982      21.560000000000002      17.640000000000001
   248   1      5.8799999999999999      19.599999999999998      17.640000000000001
   249   1      5.8799999999999999      21.560000000000002                   15.68
   250   1      3.9199999999999982      19.599999999999998      19.599999999999998
   251   1      3.9199999999999982      21.560000000000002      21.560000000000002
   252   1      5.8799999999999999      19.599999999999998      21.560000000000002
   253   1      5.8799999999999999      21.560000000000002      19.599999999999998
   254   1      3.9199999999999982      19.599999999999998                   23.52
   255   1      3.9199999999999982      21.560000000000002                   25.48
   256   1      5.8799999999999999      19.599999999999998                   25.48
   257   1      5.8799999999999999      21.560000000000002                   23.52
   258   1      3.9199999999999982      19.599999999999998      27.439999999999998
   259   1      3.9199999999999982      21.560000000000002      29.399999999999999
   260   1      5.8799999999999999      19.599999999999998      29.399999999999999
   261   1      5.8799999999999999      21.560000000000002      27.439999999999998
   262   1      3.9199999999999982      19.599999999999998      31.359999999999999
   263   1      3.9199999999999982      21.560000000000002                   33.32
   264   1      5.8799999999999999      19.599999999999998                   33.32
   265   1      5.8799999999999999      21.560000000000002      31.359999999999999
   266   1      3.9199999999999982      19.599999999999998      35.280000000000001
   267   1      5.8799999999999999      21.560000000000002      35.280000000000001
   268   1      3.9199999999999982                   23.52      3.9199999999999982
   269   1      3.9199999999999982                   25.48      5.8799999999999999
   270   1      5.8799999999999999                   23.52      5.8799999999999999
   271   1      5.8799999999999999                   25.48      3.9199999999999982
   272   1      3.9199999999999982                   23.52      7.8399999999999981
   273   1      3.9199999999999982                   25.48      9.7999999999999972
   274   1      5.8799999999999999                   23.52      9.7999999999999972
   275   1      5.8799999999999999                   25.48      7.8399999999999981
   276   1      3.9199999999999982                   23.52                   11.76
   277   1      3.9199999999999982                   25.48      13.719999999999999
   278   1      5.8799999999999999                   23.52      13.719999999999999
   279   1      5.8799999999999999                   25.48                   11.76
   280   1      3.9199999999999982                   23.52                   15.68
   281   1      3.9199999999999982                   25.48      17.640000000000001
   282   1      5.8799999999999999                   23.52      17.640000000000001
   283   1      5.8799999999999999                   25.48                   15.68
   284   1      3.9199999999999982                   23.52      19.599999999999998
   285   1      3.9199999999999982                   25.48      21.560000000000002
   286   1      5.8799999999999999                   23.52      21.560000000000002
   287   1      5.8799999999999999                   25.48      19.599999999999998
   288   1      3.9199999999999982                   23.52                   23.52
   289   1      3.9199999999999982                   25.48                   25.48
   290   1      5.8799999999999999                   23.52                   25.48
   291   1      5.8799999999999999                   25.48                   23.52
   292   1      3.9199999999999982                   23.52      27.439999999999998
   293   1      3.9199999999999982                   25.48      29.399999999999999
   294   1      5.8799999999999999                   23.52      29.399999999999999
   295   1      5.8799999999999999                   25.48      27.439999999999998
   296   1      3.9199999999999982                   23.52      31.359999999999999
   297   1      3.9199999999999982                   25.48                   33.32
   298   1      5.8799999999999999                   23.52                   33.32
   299   1      5.8799999999999999                   25.48      31.359999999999999
   300   1      3.9199999999999982                   23.52      35.280000000000001
   301   1      5.8799999999999999                   25.48      35.280000000000001
   302   1      3.9199999999999982      27.439999999999998      3.9199999999999982
   303   1      3.9199999999999982      29.399999999999999      5.8799999999999999
   304   1      5.8799999999999999      27.439999999999998      5.8799999999999999
   305   1      5.8799999999999999      29.399999999999999      3.9199999999999982
   306   1      3.9199999999999982      27.439999999999998      7.8399999999999981
   307   1      3.9199999999999982      29.399999999999999      9.7999999999999972
   308   1      5.8799999999999999      27.439999999999998      9.7999999999999972
   309   1      5.8799999999999999      29.399999999999999      7.8399999999999981
   310   1      3.9199999999999982      27.439999999999998                   11.76
   311   1      3.9199999999999982      29.399999999999999      13.719999999999999
   312   1      5.8799999999999999      27.439999999999998      13.719999999999999
   313   1      5.8799999999999999      29.399999999999999                   11.76
   314   1      3.9199999999999982      27.439999999999998                   15.68
   315   1      3.9199999999999982      29.399999999999999      17.640000000000001
   316   1      5.8799999999999999      27.439999999999998      17.640000000000001
   317   1      5.8799999999999999      29.399999999999999                   15.68
   318   1      3.9199999999999982      27.439999999999998      19.599999999999998
   319   1      3.9199999999999982      29.399999999999999      21.560000000000002
   320   1      5.8799999999999999      27.439999999999998      21.560000000000002
   321   1      5.8799999999999999      29.399999999999999      19.599999999999998
   322   1      3.9199999999999982      27.439999999999998                   23.52
   323   1      3.9199999999999982      29.399999999999999                   25.48
   324   1      5.8799999999999999      27.439999999999998                   25.48
   325   1      5.8799999999999999      29.399999999999999                   23.52
   326   1      3.9199999999999982      27.439999999999998      27.439999999999998
   327   1      3.9199999999999982      29.399999999999999      29.399999999999999
   328   1      5.8799999999999999      27.439999999999998      29.399999999999999
   329   1      5.8799999999999999      29.399999999999999      27.439999999999998
   330   1      3.9199999999999982      27.439999999999998      31.359999999999999
   331   1      3.9199999999999982      29.399999999999999                   33.32
   332   1      5.8799999999999999      27.439999999999998                   33.32
   333   1      5.8799999999999999      29.399999999999999      31.359999999999999
   334   1      3.9199999999999982      27.439999999999998      35.280000000000001
   335   1      5.8799999999999999      29.399999999999999      35.280000000000001
   336   1      3.9199999999999982      31.359999999999999      3.9199999999999982
   337   1      3.9199999999999982                   33.32      5.8799999999999999
   338   1      5.8799999999999999      31.359999999999999      5.8799999999999999
   339   1      5.8799999999999999                   33.32      3.9199999999999982
   340   1      3.9199999999999982      31.359999999999999      7.8399999999999981
   341   1      3.9199999999999982                   33.32      9.7999999999999972
   342   1      5.8799999999999999      31.359999999999999      9.7999999999999972
   343   1      5.8799999999999999                   33.32      7.8399999999999981
   344   1      3.9199999999999982      31.359999999999999                   11.76
   345   1      3.9199999999999982                   33.32      13.719999999999999
   346   1      5.8799999999999999      31.359999999999999      13.719999999999999
   347   1      5.8799999999999999                   33.32                   11.76
   348   1      3.9199999999999982      31.359999999999999                   15.68
   349   1      3.9199999999999982                   33.32      17.640000000000001
   350   1      5.8799999999999999      31.359999999999999      17.640000000000001
   351   1      5.8799999999999999                   33.32                   15.68
   352   1      3.9199999999999982      31.359999999999999      19.599999999999998
   353   1      3.9199999999999982                   33.32      21.560000000000002
   354   1      5.8799999999999999      31.359999999999999      21.560000000000002
   355   1      5.8799999999999999                   33.32      19.599999999999998
   356   1      3.9199999999999982      31.359999999999999                   23.52
   357   1      3.9199999999999982                   33.32                   25.48
   358   1      5.8799999999999999      31.359999999999999                   25.48