model_files/Ni/Ni_30000/Ni_331/data.Ni_331_fcc_30729 (written by ASE) 

30729 	 atoms 
1  atom types
0.0                     112  xlo xhi
0.0                     112  ylo yhi
0.0                     112  zlo zhi


Atoms 

     1   1      1.7599999999999909      54.559999999999981      56.319999999999993
     2   1      1.7599999999999909      56.319999999999993      54.559999999999981
     3   1      111.99999999999999      56.319999999999993      56.319999999999993
     4   1      1.7599999999999909      56.319999999999993      58.079999999999984
     5   1      1.7599999999999909      58.079999999999984      56.319999999999993
     6   1       5.279999999999986      51.039999999999985      52.799999999999983
     7   1       5.279999999999986      51.039999999999985      56.319999999999993
     8   1       5.279999999999986      51.039999999999985      59.839999999999982
     9   1       5.279999999999986      52.799999999999983      51.039999999999985
    10   1      3.5199999999999885      52.799999999999983      52.799999999999983
    11   1      3.5199999999999885      54.559999999999981      54.559999999999981
    12   1       5.279999999999986      52.799999999999983      54.559999999999981
    13   1       5.279999999999986      54.559999999999981      52.799999999999983
    14   1      3.5199999999999885      52.799999999999983      56.319999999999993
    15   1      3.5199999999999885      54.559999999999981      58.079999999999984
    16   1       5.279999999999986      52.799999999999983      58.079999999999984
    17   1       5.279999999999986      54.559999999999981      56.319999999999993
    18   1      3.5199999999999885      52.799999999999983      59.839999999999982
    19   1       5.279999999999986      52.799999999999983      61.599999999999994
    20   1       5.279999999999986      54.559999999999981      59.839999999999982
    21   1       5.279999999999986      56.319999999999993      51.039999999999985
    22   1      3.5199999999999885      56.319999999999993      52.799999999999983
    23   1      3.5199999999999885      58.079999999999984      54.559999999999981
    24   1       5.279999999999986      56.319999999999993      54.559999999999981
    25   1       5.279999999999986      58.079999999999984      52.799999999999983
    26   1      3.5199999999999885      56.319999999999993      56.319999999999993
    27   1      3.5199999999999885      58.079999999999984      58.079999999999984
    28   1       5.279999999999986      56.319999999999993      58.079999999999984
    29   1       5.279999999999986      58.079999999999984      56.319999999999993
    30   1      3.5199999999999885      56.319999999999993      59.839999999999982
    31   1       5.279999999999986      56.319999999999993      61.599999999999994
    32   1       5.279999999999986      58.079999999999984      59.839999999999982
    33   1       5.279999999999986      59.839999999999982      51.039999999999985
    34   1      3.5199999999999885      59.839999999999982      52.799999999999983
    35   1       5.279999999999986      59.839999999999982      54.559999999999981
    36   1       5.279999999999986      61.599999999999994      52.799999999999983
    37   1      3.5199999999999885      59.839999999999982      56.319999999999993
    38   1       5.279999999999986      59.839999999999982      58.079999999999984
    39   1       5.279999999999986      61.599999999999994      56.319999999999993
    40   1      3.5199999999999885      59.839999999999982      59.839999999999982
    41   1       5.279999999999986      59.839999999999982      61.599999999999994
    42   1       5.279999999999986      61.599999999999994      59.839999999999982
    43   1      8.7999999999999883      47.519999999999982      52.799999999999983
    44   1      8.7999999999999883      47.519999999999982      56.319999999999993
    45   1      8.7999999999999883      47.519999999999982      59.839999999999982
    46   1      7.0399999999999912      51.039999999999985      51.039999999999985
    47   1      8.7999999999999883       49.27999999999998      51.039999999999985
    48   1      8.7999999999999883      51.039999999999985       49.27999999999998
    49   1      7.0399999999999912       49.27999999999998      52.799999999999983
    50   1      7.0399999999999912      51.039999999999985      54.559999999999981
    51   1      8.7999999999999883       49.27999999999998      54.559999999999981
    52   1      8.7999999999999883      51.039999999999985      52.799999999999983
    53   1      7.0399999999999912       49.27999999999998      56.319999999999993
    54   1      7.0399999999999912      51.039999999999985      58.079999999999984
    55   1      8.7999999999999883       49.27999999999998      58.079999999999984
    56   1      8.7999999999999883      51.039999999999985      56.319999999999993
    57   1      7.0399999999999912       49.27999999999998      59.839999999999982
    58   1      7.0399999999999912      51.039999999999985      61.599999999999994
    59   1      8.7999999999999883       49.27999999999998      61.599999999999994
    60   1      8.7999999999999883      51.039999999999985      59.839999999999982
    61   1      8.7999999999999883      51.039999999999985      63.359999999999978
    62   1      8.7999999999999883      52.799999999999983      47.519999999999982
    63   1      7.0399999999999912      52.799999999999983       49.27999999999998
    64   1      7.0399999999999912      54.559999999999981      51.039999999999985
    65   1      8.7999999999999883      52.799999999999983      51.039999999999985
    66   1      8.7999999999999883      54.559999999999981       49.27999999999998
    67   1      7.0399999999999912      52.799999999999983      52.799999999999983
    68   1      7.0399999999999912      54.559999999999981      54.559999999999981
    69   1      8.7999999999999883      52.799999999999983      54.559999999999981
    70   1      8.7999999999999883      54.559999999999981      52.799999999999983
    71   1      7.0399999999999912      52.799999999999983      56.319999999999993
    72   1      7.0399999999999912      54.559999999999981      58.079999999999984
    73   1      8.7999999999999883      52.799999999999983      58.079999999999984
    74   1      8.7999999999999883      54.559999999999981      56.319999999999993
    75   1      7.0399999999999912      52.799999999999983      59.839999999999982
    76   1      7.0399999999999912      54.559999999999981      61.599999999999994
    77   1      8.7999999999999883      52.799999999999983      61.599999999999994
    78   1      8.7999999999999883      54.559999999999981      59.839999999999982
    79   1      7.0399999999999912      52.799999999999983      63.359999999999978
    80   1      8.7999999999999883      52.799999999999983       65.11999999999999
    81   1      8.7999999999999883      54.559999999999981      63.359999999999978
    82   1      8.7999999999999883      56.319999999999993      47.519999999999982
    83   1      7.0399999999999912      56.319999999999993       49.27999999999998
    84   1      7.0399999999999912      58.079999999999984      51.039999999999985
    85   1      8.7999999999999883      56.319999999999993      51.039999999999985
    86   1      8.7999999999999883      58.079999999999984       49.27999999999998
    87   1      7.0399999999999912      56.319999999999993      52.799999999999983
    88   1      7.0399999999999912      58.079999999999984      54.559999999999981
    89   1      8.7999999999999883      56.319999999999993      54.559999999999981
    90   1      8.7999999999999883      58.079999999999984      52.799999999999983
    91   1      7.0399999999999912      56.319999999999993      56.319999999999993
    92   1      7.0399999999999912      58.079999999999984      58.079999999999984
    93   1      8.7999999999999883      56.319999999999993      58.079999999999984
    94   1      8.7999999999999883      58.079999999999984      56.319999999999993
    95   1      7.0399999999999912      56.319999999999993      59.839999999999982
    96   1      7.0399999999999912      58.079999999999984      61.599999999999994
    97   1      8.7999999999999883      56.319999999999993      61.599999999999994
    98   1      8.7999999999999883      58.079999999999984      59.839999999999982
    99   1      7.0399999999999912      56.319999999999993      63.359999999999978
   100   1      8.7999999999999883      56.319999999999993       65.11999999999999
   101   1      8.7999999999999883      58.079999999999984      63.359999999999978
   102   1      8.7999999999999883      59.839999999999982      47.519999999999982
   103   1      7.0399999999999912      59.839999999999982       49.27999999999998
   104   1      7.0399999999999912      61.599999999999994      51.039999999999985
   105   1      8.7999999999999883      59.839999999999982      51.039999999999985
   106   1      8.7999999999999883      61.599999999999994       49.27999999999998
   107   1      7.0399999999999912      59.839999999999982      52.799999999999983
   108   1      7.0399999999999912      61.599999999999994      54.559999999999981
   109   1      8.7999999999999883      59.839999999999982      54.559999999999981
   110   1      8.7999999999999883      61.599999999999994      52.799999999999983
   111   1      7.0399999999999912      59.839999999999982      56.319999999999993
   112   1      7.0399999999999912      61.599999999999994      58.079999999999984
   113   1      8.7999999999999883      59.839999999999982      58.079999999999984
   114   1      8.7999999999999883      61.599999999999994      56.319999999999993
   115   1      7.0399999999999912      59.839999999999982      59.839999999999982
   116   1      7.0399999999999912      61.599999999999994      61.599999999999994
   117   1      8.7999999999999883      59.839999999999982      61.599999999999994
   118   1      8.7999999999999883      61.599999999999994      59.839999999999982
   119   1      7.0399999999999912      59.839999999999982      63.359999999999978
   120   1      8.7999999999999883      59.839999999999982       65.11999999999999
   121   1      8.7999999999999883      61.599999999999994      63.359999999999978
   122   1      8.7999999999999883      63.359999999999978      51.039999999999985
   123   1      7.0399999999999912      63.359999999999978      52.799999999999983
   124   1      8.7999999999999883      63.359999999999978      54.559999999999981
   125   1      8.7999999999999883       65.11999999999999      52.799999999999983
   126   1      7.0399999999999912      63.359999999999978      56.319999999999993
   127   1      8.7999999999999883      63.359999999999978      58.079999999999984
   128   1      8.7999999999999883       65.11999999999999      56.319999999999993
   129   1      7.0399999999999912      63.359999999999978      59.839999999999982
   130   1      8.7999999999999883      63.359999999999978      61.599999999999994
   131   1      8.7999999999999883       65.11999999999999      59.839999999999982
   132   1      12.319999999999993      43.999999999999979      52.799999999999983
   133   1      12.319999999999993      43.999999999999979      56.319999999999993
   134   1      12.319999999999993      43.999999999999979      59.839999999999982
   135   1      10.559999999999986      47.519999999999982      47.519999999999982
   136   1      12.319999999999993      45.759999999999991      47.519999999999982
   137   1      12.319999999999993      47.519999999999982      45.759999999999991
   138   1      10.559999999999986      47.519999999999982      51.039999999999985
   139   1      12.319999999999993      45.759999999999991      51.039999999999985
   140   1      12.319999999999993      47.519999999999982       49.27999999999998
   141   1      10.559999999999986      45.759999999999991      52.799999999999983
   142   1      10.559999999999986      47.519999999999982      54.559999999999981
   143   1      12.319999999999993      45.759999999999991      54.559999999999981
   144   1      12.319999999999993      47.519999999999982      52.799999999999983
   145   1      10.559999999999986      45.759999999999991      56.319999999999993
   146   1      10.559999999999986      47.519999999999982      58.079999999999984
   147   1      12.319999999999993      45.759999999999991      58.079999999999984
   148   1      12.319999999999993      47.519999999999982      56.319999999999993
   149   1      10.559999999999986      45.759999999999991      59.839999999999982
   150   1      10.559999999999986      47.519999999999982      61.599999999999994
   151   1      12.319999999999993      45.759999999999991      61.599999999999994
   152   1      12.319999999999993      47.519999999999982      59.839999999999982
   153   1      10.559999999999986      47.519999999999982       65.11999999999999
   154   1      12.319999999999993      45.759999999999991       65.11999999999999
   155   1      12.319999999999993      47.519999999999982      63.359999999999978
   156   1      12.319999999999993      47.519999999999982      66.879999999999995
   157   1      10.559999999999986      51.039999999999985      47.519999999999982
   158   1      12.319999999999993       49.27999999999998      47.519999999999982
   159   1      12.319999999999993      51.039999999999985      45.759999999999991
   160   1      10.559999999999986       49.27999999999998       49.27999999999998
   161   1      10.559999999999986      51.039999999999985      51.039999999999985
   162   1      12.319999999999993       49.27999999999998      51.039999999999985
   163   1      12.319999999999993      51.039999999999985       49.27999999999998
   164   1      10.559999999999986       49.27999999999998      52.799999999999983
   165   1      10.559999999999986      51.039999999999985      54.559999999999981
   166   1      12.319999999999993       49.27999999999998      54.559999999999981
   167   1      12.319999999999993      51.039999999999985      52.799999999999983
   168   1      10.559999999999986       49.27999999999998      56.319999999999993
   169   1      10.559999999999986      51.039999999999985      58.079999999999984
   170   1      12.319999999999993       49.27999999999998      58.079999999999984
   171   1      12.319999999999993      51.039999999999985      56.319999999999993
   172   1      10.559999999999986       49.27999999999998      59.839999999999982
   173   1      10.559999999999986      51.039999999999985      61.599999999999994
   174   1      12.319999999999993       49.27999999999998      61.599999999999994
   175   1      12.319999999999993      51.039999999999985      59.839999999999982
   176   1      10.559999999999986       49.27999999999998      63.359999999999978
   177   1      10.559999999999986      51.039999999999985       65.11999999999999
   178   1      12.319999999999993       49.27999999999998       65.11999999999999
   179   1      12.319999999999993      51.039999999999985      63.359999999999978
   180   1      12.319999999999993      51.039999999999985      66.879999999999995
   181   1      12.319999999999993      52.799999999999983      43.999999999999979
   182   1      10.559999999999986      52.799999999999983      45.759999999999991
   183   1      10.559999999999986      54.559999999999981      47.519999999999982
   184   1      12.319999999999993      52.799999999999983      47.519999999999982
   185   1      12.319999999999993      54.559999999999981      45.759999999999991
   186   1      10.559999999999986      52.799999999999983       49.27999999999998
   187   1      10.559999999999986      54.559999999999981      51.039999999999985
   188   1      12.319999999999993      52.799999999999983      51.039999999999985
   189   1      12.319999999999993      54.559999999999981       49.27999999999998
   190   1      10.559999999999986      52.799999999999983      52.799999999999983
   191   1      10.559999999999986      54.559999999999981      54.559999999999981
   192   1      12.319999999999993      52.799999999999983      54.559999999999981
   193   1      12.319999999999993      54.559999999999981      52.799999999999983
   194   1      10.559999999999986      52.799999999999983      56.319999999999993
   195   1      10.559999999999986      54.559999999999981      58.079999999999984
   196   1      12.319999999999993      52.799999999999983      58.079999999999984
   197   1      12.319999999999993      54.559999999999981      56.319999999999993
   198   1      10.559999999999986      52.799999999999983      59.839999999999982
   199   1      10.559999999999986      54.559999999999981      61.599999999999994
   200   1      12.319999999999993      52.799999999999983      61.599999999999994
   201   1      12.319999999999993      54.559999999999981      59.839999999999982
   202   1      10.559999999999986      52.799999999999983      63.359999999999978
   203   1      10.559999999999986      54.559999999999981       65.11999999999999
   204   1      12.319999999999993      52.799999999999983       65.11999999999999
   205   1      12.319999999999993      54.559999999999981      63.359999999999978
   206   1      10.559999999999986      52.799999999999983      66.879999999999995
   207   1      12.319999999999993      52.799999999999983      68.640000000000001
   208   1      12.319999999999993      54.559999999999981      66.879999999999995
   209   1      12.319999999999993      56.319999999999993      43.999999999999979
   210   1      10.559999999999986      56.319999999999993      45.759999999999991
   211   1      10.559999999999986      58.079999999999984      47.519999999999982
   212   1      12.319999999999993      56.319999999999993      47.519999999999982
   213   1      12.319999999999993      58.079999999999984      45.759999999999991
   214   1      10.559999999999986      56.319999999999993       49.27999999999998
   215   1      10.559999999999986      58.079999999999984      51.039999999999985
   216   1      12.319999999999993      56.319999999999993      51.039999999999985
   217   1      12.319999999999993      58.079999999999984       49.27999999999998
   218   1      10.559999999999986      56.319999999999993      52.799999999999983
   219   1      10.559999999999986      58.079999999999984      54.559999999999981
   220   1      12.319999999999993      56.319999999999993      54.559999999999981
   221   1      12.319999999999993      58.079999999999984      52.799999999999983
   222   1      10.559999999999986      56.319999999999993      56.319999999999993
   223   1      10.559999999999986      58.079999999999984      58.079999999999984
   224   1      12.319999999999993      56.319999999999993      58.079999999999984
   225   1      12.319999999999993      58.079999999999984      56.319999999999993
   226   1      10.559999999999986      56.319999999999993      59.839999999999982
   227   1      10.559999999999986      58.079999999999984      61.599999999999994
   228   1      12.319999999999993      56.319999999999993      61.599999999999994
   229   1      12.319999999999993      58.079999999999984      59.839999999999982
   230   1      10.559999999999986      56.319999999999993      63.359999999999978
   231   1      10.559999999999986      58.079999999999984       65.11999999999999
   232   1      12.319999999999993      56.319999999999993       65.11999999999999
   233   1      12.319999999999993      58.079999999999984      63.359999999999978
   234   1      10.559999999999986      56.319999999999993      66.879999999999995
   235   1      12.319999999999993      56.319999999999993      68.640000000000001
   236   1      12.319999999999993      58.079999999999984      66.879999999999995
   237   1      12.319999999999993      59.839999999999982      43.999999999999979
   238   1      10.559999999999986      59.839999999999982      45.759999999999991
   239   1      10.559999999999986      61.599999999999994      47.519999999999982
   240   1      12.319999999999993      59.839999999999982      47.519999999999982
   241   1      12.319999999999993      61.599999999999994      45.759999999999991
   242   1      10.559999999999986      59.839999999999982       49.27999999999998
   243   1      10.559999999999986      61.599999999999994      51.039999999999985
   244   1      12.319999999999993      59.839999999999982      51.039999999999985
   245   1      12.319999999999993      61.599999999999994       49.27999999999998
   246   1      10.559999999999986      59.839999999999982      52.799999999999983
   247   1      10.559999999999986      61.599999999999994      54.559999999999981
   248   1      12.319999999999993      59.839999999999982      54.559999999999981
   249   1      12.319999999999993      61.599999999999994      52.799999999999983
   250   1      10.559999999999986      59.839999999999982      56.319999999999993
   251   1      10.559999999999986      61.599999999999994      58.079999999999984
   252   1      12.319999999999993      59.839999999999982      58.079999999999984
   253   1      12.319999999999993      61.599999999999994      56.319999999999993
   254   1      10.559999999999986      59.839999999999982      59.839999999999982
   255   1      10.559999999999986      61.599999999999994      61.599999999999994
   256   1      12.319999999999993      59.839999999999982      61.599999999999994
   257   1      12.319999999999993      61.599999999999994      59.839999999999982
   258   1      10.559999999999986      59.839999999999982      63.359999999999978
   259   1      10.559999999999986      61.599999999999994       65.11999999999999
   260   1      12.319999999999993      59.839999999999982       65.11999999999999
   261   1      12.319999999999993      61.599999999999994      63.359999999999978
   262   1      10.559999999999986      59.839999999999982      66.879999999999995
   263   1      12.319999999999993      59.839999999999982      68.640000000000001
   264   1      12.319999999999993      61.599999999999994      66.879999999999995
   265   1      10.559999999999986       65.11999999999999      47.519999999999982
   266   1      12.319999999999993      63.359999999999978      47.519999999999982
   267   1      12.319999999999993       65.11999999999999      45.759999999999991
   268   1      10.559999999999986      63.359999999999978       49.27999999999998
   269   1      10.559999999999986       65.11999999999999      51.039999999999985
   270   1      12.319999999999993      63.359999999999978      51.039999999999985
   271   1      12.319999999999993       65.11999999999999       49.27999999999998
   272   1      10.559999999999986      63.359999999999978      52.799999999999983
   273   1      10.559999999999986       65.11999999999999      54.559999999999981
   274   1      12.319999999999993      63.359999999999978      54.559999999999981
   275   1      12.319999999999993       65.11999999999999      52.799999999999983
   276   1      10.559999999999986      63.359999999999978      56.319999999999993
   277   1      10.559999999999986       65.11999999999999      58.079999999999984
   278   1      12.319999999999993      63.359999999999978      58.079999999999984
   279   1      12.319999999999993       65.11999999999999      56.319999999999993
   280   1      10.559999999999986      63.359999999999978      59.839999999999982
   281   1      10.559999999999986       65.11999999999999      61.599999999999994
   282   1      12.319999999999993      63.359999999999978      61.599999999999994
   283   1      12.319999999999993       65.11999999999999      59.839999999999982
   284   1      10.559999999999986      63.359999999999978      63.359999999999978
   285   1      10.559999999999986       65.11999999999999       65.11999999999999
   286   1      12.319999999999993      63.359999999999978       65.11999999999999
   287   1      12.319999999999993       65.11999999999999      63.359999999999978
   288   1      12.319999999999993       65.11999999999999      66.879999999999995
   289   1      12.319999999999993      66.879999999999995      47.519999999999982
   290   1      12.319999999999993      66.879999999999995      51.039999999999985
   291   1      10.559999999999986      66.879999999999995      52.799999999999983
   292   1      12.319999999999993      66.879999999999995      54.559999999999981
   293   1      12.319999999999993      68.640000000000001      52.799999999999983
   294   1      10.559999999999986      66.879999999999995      56.319999999999993
   295   1      12.319999999999993      66.879999999999995      58.079999999999984
   296   1      12.319999999999993      68.640000000000001      56.319999999999993
   297   1      10.559999999999986      66.879999999999995      59.839999999999982
   298   1      12.319999999999993      66.879999999999995      61.599999999999994
   299   1      12.319999999999993      68.640000000000001      59.839999999999982
   300   1      12.319999999999993      66.879999999999995       65.11999999999999
   301   1      15.839999999999987       40.47999999999999      52.799999999999983
   302   1      15.839999999999987       40.47999999999999      56.319999999999993
   303   1      15.839999999999987       40.47999999999999      59.839999999999982
   304   1      14.079999999999991      43.999999999999979      47.519999999999982
   305   1      15.839999999999987      42.239999999999981      47.519999999999982
   306   1      15.839999999999987      43.999999999999979      45.759999999999991
   307   1      14.079999999999991      43.999999999999979      51.039999999999985
   308   1      15.839999999999987      42.239999999999981      51.039999999999985
   309   1      15.839999999999987      43.999999999999979       49.27999999999998
   310   1      14.079999999999991      42.239999999999981      52.799999999999983
   311   1      14.079999999999991      43.999999999999979      54.559999999999981
   312   1      15.839999999999987      42.239999999999981      54.559999999999981
   313   1      15.839999999999987      43.999999999999979      52.799999999999983
   314   1      14.079999999999991      42.239999999999981      56.319999999999993
   315   1      14.079999999999991      43.999999999999979      58.079999999999984
   316   1      15.839999999999987      42.239999999999981      58.079999999999984
   317   1      15.839999999999987      43.999999999999979      56.319999999999993
   318   1      14.079999999999991      42.239999999999981      59.839999999999982
   319   1      14.079999999999991      43.999999999999979      61.599999999999994
   320   1      15.839999999999987      42.239999999999981      61.599999999999994
   321   1      15.839999999999987      43.999999999999979      59.839999999999982
   322   1      14.079999999999991      43.999999999999979       65.11999999999999
   323   1      15.839999999999987      42.239999999999981       65.11999999999999
   324   1      15.839999999999987      43.999999999999979      63.359999999999978
   325   1      15.839999999999987      43.999999999999979      66.879999999999995
   326   1      14.079999999999991      47.519999999999982      43.999999999999979
   327   1      15.839999999999987      45.759999999999991      43.999999999999979
   328   1      15.839999999999987      47.519999999999982      42.239999999999981
   329   1      14.079999999999991      45.759999999999991      45.759999999999991
   330   1      14.079999999999991      47.519999999999982      47.519999999999982
   331   1      15.839999999999987      45.759999999999991      47.519999999999982
   332   1      15.839999999999987      47.519999999999982      45.759999999999991
   333   1      14.079999999999991      45.759999999999991       49.27999999999998
   334   1      14.079999999999991      47.519999999999982      51.039999999999985
   335   1      15.839999999999987      45.759999999999991      51.039999999999985
   336   1      15.839999999999987      47.519999999999982       49.27999999999998
   337   1      14.079999999999991      45.759999999999991      52.799999999999983
   338   1      14.079999999999991      47.519999999999982      54.559999999999981
   339   1      15.839999999999987      45.759999999999991      54.559999999999981
   340   1      15.839999999999987      47.519999999999982      52.799999999999983
   341   1      14.079999999999991      45.759999999999991      56.319999999999993
   342   1      14.079999999999991      47.519999999999982      58.079999999999984
   343   1      15.839999999999987      45.759999999999991      58.079999999999984
   344   1      15.839999999999987      47.519999999999982      56.319999999999993
   345   1      14.079999999999991      45.759999999999991      59.839999999999982
   346   1      14.079999999999991      47.519999999999982      61.599999999999994
   347   1      15.839999999999987      45.759999999999991      61.599999999999994
   348   1      15.839999999999987      47.519999999999982      59.839999999999982
   349   1      14.079999999999991      45.759999999999991      63.359999999999978
   350   1      14.079999999999991      47.519999999999982       65.11999999999999
   351   1      15.839999999999987      45.759999999999991       65.11999999999999
   352   1      15.839999999999987      47.519999999999982      63.359999999999978
   353   1      14.079999999999991      45.759999999999991      66.879999999999995
   354   1      14.079999999999991      47.519999999999982      68.640000000000001
   355   1      15.839999999999987      45.759999999999991      68.640000000000001
   356   1      15.839999999999987      47.519999999999982      66.879999999999995
   357   1      15.839999999999987      47.519999999999982      70.399999999999991
   358   1      14.079999999999991      51.039999999999985      43.999999999999979