model_files/Pd/Pd_30000/Pd_544/data.Pd_544_fcc_30001 (written by ASE) 

30001 	 atoms 
1  atom types
0.0                     124  xlo xhi
0.0                     124  ylo yhi
0.0                     124  zlo zhi


Atoms 

     1   1      1.9450000000000143      60.295000000000016      62.240000000000002
     2   1      1.9450000000000143      62.240000000000002      60.295000000000016
     3   1  1.4210854715202004e-14      62.240000000000002      62.240000000000002
     4   1      1.9450000000000143      62.240000000000002      64.185000000000002
     5   1      1.9450000000000143      64.185000000000002      62.240000000000002
     6   1      5.8350000000000151      56.405000000000015      62.240000000000002
     7   1      3.8900000000000148      60.295000000000016      60.295000000000016
     8   1      5.8350000000000151      58.350000000000016      60.295000000000016
     9   1      5.8350000000000151      60.295000000000016      58.350000000000016
    10   1      3.8900000000000148      58.350000000000016      62.240000000000002
    11   1      3.8900000000000148      60.295000000000016      64.185000000000002
    12   1      5.8350000000000151      58.350000000000016      64.185000000000002
    13   1      5.8350000000000151      60.295000000000016      62.240000000000002
    14   1      5.8350000000000151      60.295000000000016      66.129999999999995
    15   1      5.8350000000000151      62.240000000000002      56.405000000000015
    16   1      3.8900000000000148      62.240000000000002      58.350000000000016
    17   1      3.8900000000000148      64.185000000000002      60.295000000000016
    18   1      5.8350000000000151      62.240000000000002      60.295000000000016
    19   1      5.8350000000000151      64.185000000000002      58.350000000000016
    20   1      3.8900000000000148      62.240000000000002      62.240000000000002
    21   1      3.8900000000000148      64.185000000000002      64.185000000000002
    22   1      5.8350000000000151      62.240000000000002      64.185000000000002
    23   1      5.8350000000000151      64.185000000000002      62.240000000000002
    24   1      3.8900000000000148      62.240000000000002      66.129999999999995
    25   1      5.8350000000000151      62.240000000000002      68.074999999999989
    26   1      5.8350000000000151      64.185000000000002      66.129999999999995
    27   1      5.8350000000000151      66.129999999999995      60.295000000000016
    28   1      3.8900000000000148      66.129999999999995      62.240000000000002
    29   1      5.8350000000000151      66.129999999999995      64.185000000000002
    30   1      5.8350000000000151      68.074999999999989      62.240000000000002
    31   1      9.7250000000000156      48.625000000000014      62.240000000000002
    32   1      9.7250000000000156      50.570000000000014      60.295000000000016
    33   1      9.7250000000000156      52.515000000000015      58.350000000000016
    34   1      9.7250000000000156      50.570000000000014      64.185000000000002
    35   1      9.7250000000000156      52.515000000000015      62.240000000000002
    36   1      9.7250000000000156      52.515000000000015      66.129999999999995
    37   1      9.7250000000000156      54.460000000000015      56.405000000000015
    38   1      9.7250000000000156      56.405000000000015      54.460000000000015
    39   1      7.7800000000000153      56.405000000000015      60.295000000000016
    40   1      9.7250000000000156      54.460000000000015      60.295000000000016
    41   1      9.7250000000000156      56.405000000000015      58.350000000000016
    42   1      7.7800000000000153      54.460000000000015      62.240000000000002
    43   1      7.7800000000000153      56.405000000000015      64.185000000000002
    44   1      9.7250000000000156      54.460000000000015      64.185000000000002
    45   1      9.7250000000000156      56.405000000000015      62.240000000000002
    46   1      9.7250000000000156      54.460000000000015      68.074999999999989
    47   1      9.7250000000000156      56.405000000000015      66.129999999999995
    48   1      9.7250000000000156      56.405000000000015      70.019999999999996
    49   1      9.7250000000000156      58.350000000000016      52.515000000000015
    50   1      9.7250000000000156      60.295000000000016      50.570000000000014
    51   1      7.7800000000000153      60.295000000000016      56.405000000000015
    52   1      9.7250000000000156      58.350000000000016      56.405000000000015
    53   1      9.7250000000000156      60.295000000000016      54.460000000000015
    54   1      7.7800000000000153      58.350000000000016      58.350000000000016
    55   1      7.7800000000000153      60.295000000000016      60.295000000000016
    56   1      9.7250000000000156      58.350000000000016      60.295000000000016
    57   1      9.7250000000000156      60.295000000000016      58.350000000000016
    58   1      7.7800000000000153      58.350000000000016      62.240000000000002
    59   1      7.7800000000000153      60.295000000000016      64.185000000000002
    60   1      9.7250000000000156      58.350000000000016      64.185000000000002
    61   1      9.7250000000000156      60.295000000000016      62.240000000000002
    62   1      7.7800000000000153      58.350000000000016      66.129999999999995
    63   1      7.7800000000000153      60.295000000000016      68.074999999999989
    64   1      9.7250000000000156      58.350000000000016      68.074999999999989
    65   1      9.7250000000000156      60.295000000000016      66.129999999999995
    66   1      9.7250000000000156      58.350000000000016      71.964999999999989
    67   1      9.7250000000000156      60.295000000000016      70.019999999999996
    68   1      9.7250000000000156      60.295000000000016      73.909999999999997
    69   1      9.7250000000000156      62.240000000000002      48.625000000000014
    70   1      9.7250000000000156      62.240000000000002      52.515000000000015
    71   1      9.7250000000000156      64.185000000000002      50.570000000000014
    72   1      7.7800000000000153      62.240000000000002      54.460000000000015
    73   1      7.7800000000000153      64.185000000000002      56.405000000000015
    74   1      9.7250000000000156      62.240000000000002      56.405000000000015
    75   1      9.7250000000000156      64.185000000000002      54.460000000000015
    76   1      7.7800000000000153      62.240000000000002      58.350000000000016
    77   1      7.7800000000000153      64.185000000000002      60.295000000000016
    78   1      9.7250000000000156      62.240000000000002      60.295000000000016
    79   1      9.7250000000000156      64.185000000000002      58.350000000000016
    80   1      7.7800000000000153      62.240000000000002      62.240000000000002
    81   1      7.7800000000000153      64.185000000000002      64.185000000000002
    82   1      9.7250000000000156      62.240000000000002      64.185000000000002
    83   1      9.7250000000000156      64.185000000000002      62.240000000000002
    84   1      7.7800000000000153      62.240000000000002      66.129999999999995
    85   1      7.7800000000000153      64.185000000000002      68.074999999999989
    86   1      9.7250000000000156      62.240000000000002      68.074999999999989
    87   1      9.7250000000000156      64.185000000000002      66.129999999999995
    88   1      7.7800000000000153      62.240000000000002      70.019999999999996
    89   1      9.7250000000000156      62.240000000000002      71.964999999999989
    90   1      9.7250000000000156      64.185000000000002      70.019999999999996
    91   1      9.7250000000000156      62.240000000000002       75.85499999999999
    92   1      9.7250000000000156      64.185000000000002      73.909999999999997
    93   1      9.7250000000000156      66.129999999999995      52.515000000000015
    94   1      9.7250000000000156      66.129999999999995      56.405000000000015
    95   1      9.7250000000000156      68.074999999999989      54.460000000000015
    96   1      7.7800000000000153      66.129999999999995      58.350000000000016
    97   1      7.7800000000000153      68.074999999999989      60.295000000000016
    98   1      9.7250000000000156      66.129999999999995      60.295000000000016
    99   1      9.7250000000000156      68.074999999999989      58.350000000000016
   100   1      7.7800000000000153      66.129999999999995      62.240000000000002
   101   1      7.7800000000000153      68.074999999999989      64.185000000000002
   102   1      9.7250000000000156      66.129999999999995      64.185000000000002
   103   1      9.7250000000000156      68.074999999999989      62.240000000000002
   104   1      7.7800000000000153      66.129999999999995      66.129999999999995
   105   1      9.7250000000000156      66.129999999999995      68.074999999999989
   106   1      9.7250000000000156      68.074999999999989      66.129999999999995
   107   1      9.7250000000000156      66.129999999999995      71.964999999999989
   108   1      9.7250000000000156      68.074999999999989      70.019999999999996
   109   1      9.7250000000000156      70.019999999999996      56.405000000000015
   110   1      9.7250000000000156      70.019999999999996      60.295000000000016
   111   1      9.7250000000000156      71.964999999999989      58.350000000000016
   112   1      7.7800000000000153      70.019999999999996      62.240000000000002
   113   1      9.7250000000000156      70.019999999999996      64.185000000000002
   114   1      9.7250000000000156      71.964999999999989      62.240000000000002
   115   1      9.7250000000000156      70.019999999999996      68.074999999999989
   116   1      9.7250000000000156      71.964999999999989      66.129999999999995
   117   1      9.7250000000000156      73.909999999999997      60.295000000000016
   118   1      9.7250000000000156      73.909999999999997      64.185000000000002
   119   1      9.7250000000000156       75.85499999999999      62.240000000000002
   120   1      13.615000000000009      44.735000000000014      62.240000000000002
   121   1      11.670000000000016      48.625000000000014      60.295000000000016
   122   1      13.615000000000009      46.680000000000014      60.295000000000016
   123   1      13.615000000000009      48.625000000000014      58.350000000000016
   124   1      11.670000000000016      46.680000000000014      62.240000000000002
   125   1      11.670000000000016      48.625000000000014      64.185000000000002
   126   1      13.615000000000009      46.680000000000014      64.185000000000002
   127   1      13.615000000000009      48.625000000000014      62.240000000000002
   128   1      13.615000000000009      48.625000000000014      66.129999999999995
   129   1      11.670000000000016      52.515000000000015      56.405000000000015
   130   1      13.615000000000009      50.570000000000014      56.405000000000015
   131   1      13.615000000000009      52.515000000000015      54.460000000000015
   132   1      11.670000000000016      50.570000000000014      58.350000000000016
   133   1      11.670000000000016      52.515000000000015      60.295000000000016
   134   1      13.615000000000009      50.570000000000014      60.295000000000016
   135   1      13.615000000000009      52.515000000000015      58.350000000000016
   136   1      11.670000000000016      50.570000000000014      62.240000000000002
   137   1      11.670000000000016      52.515000000000015      64.185000000000002
   138   1      13.615000000000009      50.570000000000014      64.185000000000002
   139   1      13.615000000000009      52.515000000000015      62.240000000000002
   140   1      11.670000000000016      50.570000000000014      66.129999999999995
   141   1      11.670000000000016      52.515000000000015      68.074999999999989
   142   1      13.615000000000009      50.570000000000014      68.074999999999989
   143   1      13.615000000000009      52.515000000000015      66.129999999999995
   144   1      13.615000000000009      52.515000000000015      70.019999999999996
   145   1      11.670000000000016      56.405000000000015      52.515000000000015
   146   1      13.615000000000009      54.460000000000015      52.515000000000015
   147   1      13.615000000000009      56.405000000000015      50.570000000000014
   148   1      11.670000000000016      54.460000000000015      54.460000000000015
   149   1      11.670000000000016      56.405000000000015      56.405000000000015
   150   1      13.615000000000009      54.460000000000015      56.405000000000015
   151   1      13.615000000000009      56.405000000000015      54.460000000000015
   152   1      11.670000000000016      54.460000000000015      58.350000000000016
   153   1      11.670000000000016      56.405000000000015      60.295000000000016
   154   1      13.615000000000009      54.460000000000015      60.295000000000016
   155   1      13.615000000000009      56.405000000000015      58.350000000000016
   156   1      11.670000000000016      54.460000000000015      62.240000000000002
   157   1      11.670000000000016      56.405000000000015      64.185000000000002
   158   1      13.615000000000009      54.460000000000015      64.185000000000002
   159   1      13.615000000000009      56.405000000000015      62.240000000000002
   160   1      11.670000000000016      54.460000000000015      66.129999999999995
   161   1      11.670000000000016      56.405000000000015      68.074999999999989
   162   1      13.615000000000009      54.460000000000015      68.074999999999989
   163   1      13.615000000000009      56.405000000000015      66.129999999999995
   164   1      11.670000000000016      54.460000000000015      70.019999999999996
   165   1      11.670000000000016      56.405000000000015      71.964999999999989
   166   1      13.615000000000009      54.460000000000015      71.964999999999989
   167   1      13.615000000000009      56.405000000000015      70.019999999999996
   168   1      13.615000000000009      56.405000000000015      73.909999999999997
   169   1      11.670000000000016      60.295000000000016      48.625000000000014
   170   1      13.615000000000009      58.350000000000016      48.625000000000014
   171   1      13.615000000000009      60.295000000000016      46.680000000000014
   172   1      11.670000000000016      58.350000000000016      50.570000000000014
   173   1      11.670000000000016      60.295000000000016      52.515000000000015
   174   1      13.615000000000009      58.350000000000016      52.515000000000015
   175   1      13.615000000000009      60.295000000000016      50.570000000000014
   176   1      11.670000000000016      58.350000000000016      54.460000000000015
   177   1      11.670000000000016      60.295000000000016      56.405000000000015
   178   1      13.615000000000009      58.350000000000016      56.405000000000015
   179   1      13.615000000000009      60.295000000000016      54.460000000000015
   180   1      11.670000000000016      58.350000000000016      58.350000000000016
   181   1      11.670000000000016      60.295000000000016      60.295000000000016
   182   1      13.615000000000009      58.350000000000016      60.295000000000016
   183   1      13.615000000000009      60.295000000000016      58.350000000000016
   184   1      11.670000000000016      58.350000000000016      62.240000000000002
   185   1      11.670000000000016      60.295000000000016      64.185000000000002
   186   1      13.615000000000009      58.350000000000016      64.185000000000002
   187   1      13.615000000000009      60.295000000000016      62.240000000000002
   188   1      11.670000000000016      58.350000000000016      66.129999999999995
   189   1      11.670000000000016      60.295000000000016      68.074999999999989
   190   1      13.615000000000009      58.350000000000016      68.074999999999989
   191   1      13.615000000000009      60.295000000000016      66.129999999999995
   192   1      11.670000000000016      58.350000000000016      70.019999999999996
   193   1      11.670000000000016      60.295000000000016      71.964999999999989
   194   1      13.615000000000009      58.350000000000016      71.964999999999989
   195   1      13.615000000000009      60.295000000000016      70.019999999999996
   196   1      11.670000000000016      58.350000000000016      73.909999999999997
   197   1      11.670000000000016      60.295000000000016       75.85499999999999
   198   1      13.615000000000009      58.350000000000016       75.85499999999999
   199   1      13.615000000000009      60.295000000000016      73.909999999999997
   200   1      13.615000000000009      60.295000000000016      77.799999999999997
   201   1      13.615000000000009      62.240000000000002      44.735000000000014
   202   1      11.670000000000016      62.240000000000002      46.680000000000014
   203   1      11.670000000000016      64.185000000000002      48.625000000000014
   204   1      13.615000000000009      62.240000000000002      48.625000000000014
   205   1      13.615000000000009      64.185000000000002      46.680000000000014
   206   1      11.670000000000016      62.240000000000002      50.570000000000014
   207   1      11.670000000000016      64.185000000000002      52.515000000000015
   208   1      13.615000000000009      62.240000000000002      52.515000000000015
   209   1      13.615000000000009      64.185000000000002      50.570000000000014
   210   1      11.670000000000016      62.240000000000002      54.460000000000015
   211   1      11.670000000000016      64.185000000000002      56.405000000000015
   212   1      13.615000000000009      62.240000000000002      56.405000000000015
   213   1      13.615000000000009      64.185000000000002      54.460000000000015
   214   1      11.670000000000016      62.240000000000002      58.350000000000016
   215   1      11.670000000000016      64.185000000000002      60.295000000000016
   216   1      13.615000000000009      62.240000000000002      60.295000000000016
   217   1      13.615000000000009      64.185000000000002      58.350000000000016
   218   1      11.670000000000016      62.240000000000002      62.240000000000002
   219   1      11.670000000000016      64.185000000000002      64.185000000000002
   220   1      13.615000000000009      62.240000000000002      64.185000000000002
   221   1      13.615000000000009      64.185000000000002      62.240000000000002
   222   1      11.670000000000016      62.240000000000002      66.129999999999995
   223   1      11.670000000000016      64.185000000000002      68.074999999999989
   224   1      13.615000000000009      62.240000000000002      68.074999999999989
   225   1      13.615000000000009      64.185000000000002      66.129999999999995
   226   1      11.670000000000016      62.240000000000002      70.019999999999996
   227   1      11.670000000000016      64.185000000000002      71.964999999999989
   228   1      13.615000000000009      62.240000000000002      71.964999999999989
   229   1      13.615000000000009      64.185000000000002      70.019999999999996
   230   1      11.670000000000016      62.240000000000002      73.909999999999997
   231   1      11.670000000000016      64.185000000000002       75.85499999999999
   232   1      13.615000000000009      62.240000000000002       75.85499999999999
   233   1      13.615000000000009      64.185000000000002      73.909999999999997
   234   1      11.670000000000016      62.240000000000002      77.799999999999997
   235   1      13.615000000000009      62.240000000000002       79.74499999999999
   236   1      13.615000000000009      64.185000000000002      77.799999999999997
   237   1      13.615000000000009      66.129999999999995      48.625000000000014
   238   1      11.670000000000016      66.129999999999995      50.570000000000014
   239   1      11.670000000000016      68.074999999999989      52.515000000000015
   240   1      13.615000000000009      66.129999999999995      52.515000000000015
   241   1      13.615000000000009      68.074999999999989      50.570000000000014
   242   1      11.670000000000016      66.129999999999995      54.460000000000015
   243   1      11.670000000000016      68.074999999999989      56.405000000000015
   244   1      13.615000000000009      66.129999999999995      56.405000000000015
   245   1      13.615000000000009      68.074999999999989      54.460000000000015
   246   1      11.670000000000016      66.129999999999995      58.350000000000016
   247   1      11.670000000000016      68.074999999999989      60.295000000000016
   248   1      13.615000000000009      66.129999999999995      60.295000000000016
   249   1      13.615000000000009      68.074999999999989      58.350000000000016
   250   1      11.670000000000016      66.129999999999995      62.240000000000002
   251   1      11.670000000000016      68.074999999999989      64.185000000000002
   252   1      13.615000000000009      66.129999999999995      64.185000000000002
   253   1      13.615000000000009      68.074999999999989      62.240000000000002
   254   1      11.670000000000016      66.129999999999995      66.129999999999995
   255   1      11.670000000000016      68.074999999999989      68.074999999999989
   256   1      13.615000000000009      66.129999999999995      68.074999999999989
   257   1      13.615000000000009      68.074999999999989      66.129999999999995
   258   1      11.670000000000016      66.129999999999995      70.019999999999996
   259   1      11.670000000000016      68.074999999999989      71.964999999999989
   260   1      13.615000000000009      66.129999999999995      71.964999999999989
   261   1      13.615000000000009      68.074999999999989      70.019999999999996
   262   1      11.670000000000016      66.129999999999995      73.909999999999997
   263   1      13.615000000000009      66.129999999999995       75.85499999999999
   264   1      13.615000000000009      68.074999999999989      73.909999999999997
   265   1      13.615000000000009      70.019999999999996      52.515000000000015
   266   1      11.670000000000016      70.019999999999996      54.460000000000015
   267   1      11.670000000000016      71.964999999999989      56.405000000000015
   268   1      13.615000000000009      70.019999999999996      56.405000000000015
   269   1      13.615000000000009      71.964999999999989      54.460000000000015
   270   1      11.670000000000016      70.019999999999996      58.350000000000016
   271   1      11.670000000000016      71.964999999999989      60.295000000000016
   272   1      13.615000000000009      70.019999999999996      60.295000000000016
   273   1      13.615000000000009      71.964999999999989      58.350000000000016
   274   1      11.670000000000016      70.019999999999996      62.240000000000002
   275   1      11.670000000000016      71.964999999999989      64.185000000000002
   276   1      13.615000000000009      70.019999999999996      64.185000000000002
   277   1      13.615000000000009      71.964999999999989      62.240000000000002
   278   1      11.670000000000016      70.019999999999996      66.129999999999995
   279   1      11.670000000000016      71.964999999999989      68.074999999999989
   280   1      13.615000000000009      70.019999999999996      68.074999999999989
   281   1      13.615000000000009      71.964999999999989      66.129999999999995
   282   1      11.670000000000016      70.019999999999996      70.019999999999996
   283   1      13.615000000000009      70.019999999999996      71.964999999999989
   284   1      13.615000000000009      71.964999999999989      70.019999999999996
   285   1      13.615000000000009      73.909999999999997      56.405000000000015
   286   1      11.670000000000016      73.909999999999997      58.350000000000016
   287   1      11.670000000000016       75.85499999999999      60.295000000000016
   288   1      13.615000000000009      73.909999999999997      60.295000000000016
   289   1      13.615000000000009       75.85499999999999      58.350000000000016
   290   1      11.670000000000016      73.909999999999997      62.240000000000002
   291   1      11.670000000000016       75.85499999999999      64.185000000000002
   292   1      13.615000000000009      73.909999999999997      64.185000000000002
   293   1      13.615000000000009       75.85499999999999      62.240000000000002
   294   1      11.670000000000016      73.909999999999997      66.129999999999995
   295   1      13.615000000000009      73.909999999999997      68.074999999999989
   296   1      13.615000000000009       75.85499999999999      66.129999999999995
   297   1      13.615000000000009      77.799999999999997      60.295000000000016
   298   1      11.670000000000016      77.799999999999997      62.240000000000002
   299   1      13.615000000000009      77.799999999999997      64.185000000000002
   300   1      13.615000000000009       79.74499999999999      62.240000000000002
   301   1       17.50500000000001      40.845000000000013      62.240000000000002
   302   1      15.560000000000018      44.735000000000014      60.295000000000016
   303   1       17.50500000000001      42.790000000000013      60.295000000000016
   304   1       17.50500000000001      44.735000000000014      58.350000000000016
   305   1      15.560000000000018      42.790000000000013      62.240000000000002
   306   1      15.560000000000018      44.735000000000014      64.185000000000002
   307   1       17.50500000000001      42.790000000000013      64.185000000000002
   308   1       17.50500000000001      44.735000000000014      62.240000000000002
   309   1       17.50500000000001      44.735000000000014      66.129999999999995
   310   1      15.560000000000018      48.625000000000014      56.405000000000015
   311   1       17.50500000000001      46.680000000000014      56.405000000000015
   312   1       17.50500000000001      48.625000000000014      54.460000000000015
   313   1      15.560000000000018      46.680000000000014      58.350000000000016
   314   1      15.560000000000018      48.625000000000014      60.295000000000016
   315   1       17.50500000000001      46.680000000000014      60.295000000000016
   316   1       17.50500000000001      48.625000000000014      58.350000000000016
   317   1      15.560000000000018      46.680000000000014      62.240000000000002
   318   1      15.560000000000018      48.625000000000014      64.185000000000002
   319   1       17.50500000000001      46.680000000000014      64.185000000000002
   320   1       17.50500000000001      48.625000000000014      62.240000000000002
   321   1      15.560000000000018      46.680000000000014      66.129999999999995
   322   1      15.560000000000018      48.625000000000014      68.074999999999989
   323   1       17.50500000000001      46.680000000000014      68.074999999999989
   324   1       17.50500000000001      48.625000000000014      66.129999999999995
   325   1       17.50500000000001      48.625000000000014      70.019999999999996
   326   1      15.560000000000018      52.515000000000015      52.515000000000015
   327   1       17.50500000000001      50.570000000000014      52.515000000000015
   328   1       17.50500000000001      52.515000000000015      50.570000000000014
   329   1      15.560000000000018      50.570000000000014      54.460000000000015
   330   1      15.560000000000018      52.515000000000015      56.405000000000015
   331   1       17.50500000000001      50.570000000000014      56.405000000000015
   332   1       17.50500000000001      52.515000000000015      54.460000000000015
   333   1      15.560000000000018      50.570000000000014      58.350000000000016
   334   1      15.560000000000018      52.515000000000015      60.295000000000016
   335   1       17.50500000000001      50.570000000000014      60.295000000000016
   336   1       17.50500000000001      52.515000000000015      58.350000000000016
   337   1      15.560000000000018      50.570000000000014      62.240000000000002
   338   1      15.560000000000018      52.515000000000015      64.185000000000002
   339   1       17.50500000000001      50.570000000000014      64.185000000000002
   340   1       17.50500000000001      52.515000000000015      62.240000000000002
   341   1      15.560000000000018      50.570000000000014      66.129999999999995
   342   1      15.560000000000018      52.515000000000015      68.074999999999989
   343   1       17.50500000000001      50.570000000000014      68.074999999999989
   344   1       17.50500000000001      52.515000000000015      66.129999999999995
   345   1      15.560000000000018      50.570000000000014      70.019999999999996
   346   1      15.560000000000018      52.515000000000015      71.964999999999989
   347   1       17.50500000000001      50.570000000000014      71.964999999999989
   348   1       17.50500000000001      52.515000000000015      70.019999999999996
   349   1       17.50500000000001      52.515000000000015      73.909999999999997
   350   1      15.560000000000018      56.405000000000015      48.625000000000014
   351   1       17.50500000000001      54.460000000000015      48.625000000000014
   352   1       17.50500000000001      56.405000000000015      46.680000000000014
   353   1      15.560000000000018      54.460000000000015      50.570000000000014
   354   1      15.560000000000018      56.405000000000015      52.515000000000015
   355   1       17.50500000000001      54.460000000000015      52.515000000000015
   356   1       17.50500000000001      56.405000000000015      50.570000000000014
   357   1      15.560000000000018      54.460000000000015      54.460000000000015
   358   1      15.560000000000018      56.405000000000015      56.405000000000015