model_files/PtAu/PtAu_30000/PtAu_551/PtAu_551_fcc_30369_temp.data (written by ASE) 

30369 	 atoms 
2  atom types
0.0                     131  xlo xhi
0.0                     131  ylo yhi
0.0                     131  zlo zhi


Atoms 

     1   1      2.0214999999999961      62.666499999999992      64.688000000000002
     2   1      2.0214999999999961      64.688000000000002      62.666499999999992
     3   1                       0      64.688000000000002      64.688000000000002
     4   1      2.0214999999999961      64.688000000000002      66.709500000000006
     5   1      2.0214999999999961      66.709500000000006      64.688000000000002
     6   1      6.0644999999999953      58.623499999999993      64.688000000000002
     7   1      4.0429999999999922      62.666499999999992      62.666499999999992
     8   1      6.0644999999999953      60.644999999999989      62.666499999999992
     9   1      6.0644999999999953      62.666499999999992      60.644999999999989
    10   1      4.0429999999999922      60.644999999999989      64.688000000000002
    11   1      4.0429999999999922      62.666499999999992      66.709500000000006
    12   1      6.0644999999999953      60.644999999999989      66.709500000000006
    13   1      6.0644999999999953      62.666499999999992      64.688000000000002
    14   1      6.0644999999999953      62.666499999999992      68.730999999999995
    15   1      6.0644999999999953      64.688000000000002      58.623499999999993
    16   1      4.0429999999999922      64.688000000000002      60.644999999999989
    17   1      4.0429999999999922      66.709500000000006      62.666499999999992
    18   1      6.0644999999999953      64.688000000000002      62.666499999999992
    19   1      6.0644999999999953      66.709500000000006      60.644999999999989
    20   1      4.0429999999999922      64.688000000000002      64.688000000000002
    21   1      4.0429999999999922      66.709500000000006      66.709500000000006
    22   1      6.0644999999999953      64.688000000000002      66.709500000000006
    23   1      6.0644999999999953      66.709500000000006      64.688000000000002
    24   1      4.0429999999999922      64.688000000000002      68.730999999999995
    25   1      6.0644999999999953      64.688000000000002      70.752499999999998
    26   1      6.0644999999999953      66.709500000000006      68.730999999999995
    27   1      6.0644999999999953      68.730999999999995      62.666499999999992
    28   1      4.0429999999999922      68.730999999999995      64.688000000000002
    29   1      6.0644999999999953      68.730999999999995      66.709500000000006
    30   1      6.0644999999999953      70.752499999999998      64.688000000000002
    31   1      10.107499999999995      54.580499999999994      64.688000000000002
    32   1      8.0859999999999985      58.623499999999993      58.623499999999993
    33   1      10.107499999999995       56.60199999999999      58.623499999999993
    34   1      10.107499999999995      58.623499999999993       56.60199999999999
    35   1      8.0859999999999985      58.623499999999993      62.666499999999992
    36   1      10.107499999999995       56.60199999999999      62.666499999999992
    37   1      10.107499999999995      58.623499999999993      60.644999999999989
    38   1      8.0859999999999985       56.60199999999999      64.688000000000002
    39   1      8.0859999999999985      58.623499999999993      66.709500000000006
    40   1      10.107499999999995       56.60199999999999      66.709500000000006
    41   1      10.107499999999995      58.623499999999993      64.688000000000002
    42   1      8.0859999999999985      58.623499999999993      70.752499999999998
    43   1      10.107499999999995       56.60199999999999      70.752499999999998
    44   1      10.107499999999995      58.623499999999993      68.730999999999995
    45   1      10.107499999999995      58.623499999999993      72.774000000000001
    46   1      8.0859999999999985      62.666499999999992      58.623499999999993
    47   1      10.107499999999995      60.644999999999989      58.623499999999993
    48   1      10.107499999999995      62.666499999999992       56.60199999999999
    49   1      8.0859999999999985      60.644999999999989      60.644999999999989
    50   1      8.0859999999999985      62.666499999999992      62.666499999999992
    51   1      10.107499999999995      60.644999999999989      62.666499999999992
    52   1      10.107499999999995      62.666499999999992      60.644999999999989
    53   1      8.0859999999999985      60.644999999999989      64.688000000000002
    54   1      8.0859999999999985      62.666499999999992      66.709500000000006
    55   1      10.107499999999995      60.644999999999989      66.709500000000006
    56   1      10.107499999999995      62.666499999999992      64.688000000000002
    57   1      8.0859999999999985      60.644999999999989      68.730999999999995
    58   1      8.0859999999999985      62.666499999999992      70.752499999999998
    59   1      10.107499999999995      60.644999999999989      70.752499999999998
    60   1      10.107499999999995      62.666499999999992      68.730999999999995
    61   1      10.107499999999995      62.666499999999992      72.774000000000001
    62   1      10.107499999999995      64.688000000000002      54.580499999999994
    63   1      8.0859999999999985      64.688000000000002       56.60199999999999
    64   1      8.0859999999999985      66.709500000000006      58.623499999999993
    65   1      10.107499999999995      64.688000000000002      58.623499999999993
    66   1      10.107499999999995      66.709500000000006       56.60199999999999
    67   1      8.0859999999999985      64.688000000000002      60.644999999999989
    68   1      8.0859999999999985      66.709500000000006      62.666499999999992
    69   1      10.107499999999995      64.688000000000002      62.666499999999992
    70   1      10.107499999999995      66.709500000000006      60.644999999999989
    71   1      8.0859999999999985      64.688000000000002      64.688000000000002
    72   1      8.0859999999999985      66.709500000000006      66.709500000000006
    73   1      10.107499999999995      64.688000000000002      66.709500000000006
    74   1      10.107499999999995      66.709500000000006      64.688000000000002
    75   1      8.0859999999999985      64.688000000000002      68.730999999999995
    76   1      8.0859999999999985      66.709500000000006      70.752499999999998
    77   1      10.107499999999995      64.688000000000002      70.752499999999998
    78   1      10.107499999999995      66.709500000000006      68.730999999999995
    79   1      8.0859999999999985      64.688000000000002      72.774000000000001
    80   1      10.107499999999995      64.688000000000002      74.795500000000004
    81   1      10.107499999999995      66.709500000000006      72.774000000000001
    82   1      8.0859999999999985      70.752499999999998      58.623499999999993
    83   1      10.107499999999995      68.730999999999995      58.623499999999993
    84   1      10.107499999999995      70.752499999999998       56.60199999999999
    85   1      8.0859999999999985      68.730999999999995      60.644999999999989
    86   1      8.0859999999999985      70.752499999999998      62.666499999999992
    87   1      10.107499999999995      68.730999999999995      62.666499999999992
    88   1      10.107499999999995      70.752499999999998      60.644999999999989
    89   1      8.0859999999999985      68.730999999999995      64.688000000000002
    90   1      8.0859999999999985      70.752499999999998      66.709500000000006
    91   1      10.107499999999995      68.730999999999995      66.709500000000006
    92   1      10.107499999999995      70.752499999999998      64.688000000000002
    93   1      8.0859999999999985      68.730999999999995      68.730999999999995
    94   1      8.0859999999999985      70.752499999999998      70.752499999999998
    95   1      10.107499999999995      68.730999999999995      70.752499999999998
    96   1      10.107499999999995      70.752499999999998      68.730999999999995
    97   1      10.107499999999995      70.752499999999998      72.774000000000001
    98   1      10.107499999999995      72.774000000000001      58.623499999999993
    99   1      10.107499999999995      72.774000000000001      62.666499999999992
   100   1      8.0859999999999985      72.774000000000001      64.688000000000002
   101   1      10.107499999999995      72.774000000000001      66.709500000000006
   102   1      10.107499999999995      74.795500000000004      64.688000000000002
   103   1      10.107499999999995      72.774000000000001      70.752499999999998
   104   1      14.150499999999992      50.537500000000001      64.688000000000002
   105   1      12.128999999999991      54.580499999999994      54.580499999999994
   106   1      14.150499999999992      52.558999999999997      54.580499999999994
   107   1      14.150499999999992      54.580499999999994      52.558999999999997
   108   1      12.128999999999991      54.580499999999994      58.623499999999993
   109   1      14.150499999999992      52.558999999999997      58.623499999999993
   110   1      14.150499999999992      54.580499999999994       56.60199999999999
   111   1      12.128999999999991      54.580499999999994      62.666499999999992
   112   1      14.150499999999992      52.558999999999997      62.666499999999992
   113   1      14.150499999999992      54.580499999999994      60.644999999999989
   114   1      12.128999999999991      52.558999999999997      64.688000000000002
   115   1      12.128999999999991      54.580499999999994      66.709500000000006
   116   1      14.150499999999992      52.558999999999997      66.709500000000006
   117   1      14.150499999999992      54.580499999999994      64.688000000000002
   118   1      12.128999999999991      54.580499999999994      70.752499999999998
   119   1      14.150499999999992      52.558999999999997      70.752499999999998
   120   1      14.150499999999992      54.580499999999994      68.730999999999995
   121   1      12.128999999999991      54.580499999999994      74.795500000000004
   122   1      14.150499999999992      52.558999999999997      74.795500000000004
   123   1      14.150499999999992      54.580499999999994      72.774000000000001
   124   1      14.150499999999992      54.580499999999994      76.816999999999993
   125   1      12.128999999999991      58.623499999999993      54.580499999999994
   126   1      14.150499999999992       56.60199999999999      54.580499999999994
   127   1      14.150499999999992      58.623499999999993      52.558999999999997
   128   1      12.128999999999991       56.60199999999999       56.60199999999999
   129   1      12.128999999999991      58.623499999999993      58.623499999999993
   130   1      14.150499999999992       56.60199999999999      58.623499999999993
   131   1      14.150499999999992      58.623499999999993       56.60199999999999
   132   1      12.128999999999991       56.60199999999999      60.644999999999989
   133   1      12.128999999999991      58.623499999999993      62.666499999999992
   134   1      14.150499999999992       56.60199999999999      62.666499999999992
   135   1      14.150499999999992      58.623499999999993      60.644999999999989
   136   1      12.128999999999991       56.60199999999999      64.688000000000002
   137   1      12.128999999999991      58.623499999999993      66.709500000000006
   138   1      14.150499999999992       56.60199999999999      66.709500000000006
   139   1      14.150499999999992      58.623499999999993      64.688000000000002
   140   1      12.128999999999991       56.60199999999999      68.730999999999995
   141   1      12.128999999999991      58.623499999999993      70.752499999999998
   142   1      14.150499999999992       56.60199999999999      70.752499999999998
   143   1      14.150499999999992      58.623499999999993      68.730999999999995
   144   1      12.128999999999991       56.60199999999999      72.774000000000001
   145   1      12.128999999999991      58.623499999999993      74.795500000000004
   146   1      14.150499999999992       56.60199999999999      74.795500000000004
   147   1      14.150499999999992      58.623499999999993      72.774000000000001
   148   1      14.150499999999992      58.623499999999993      76.816999999999993
   149   1      12.128999999999991      62.666499999999992      54.580499999999994
   150   1      14.150499999999992      60.644999999999989      54.580499999999994
   151   1      14.150499999999992      62.666499999999992      52.558999999999997
   152   1      12.128999999999991      60.644999999999989       56.60199999999999
   153   1      12.128999999999991      62.666499999999992      58.623499999999993
   154   1      14.150499999999992      60.644999999999989      58.623499999999993
   155   1      14.150499999999992      62.666499999999992       56.60199999999999
   156   1      12.128999999999991      60.644999999999989      60.644999999999989
   157   1      12.128999999999991      62.666499999999992      62.666499999999992
   158   1      14.150499999999992      60.644999999999989      62.666499999999992
   159   1      14.150499999999992      62.666499999999992      60.644999999999989
   160   1      12.128999999999991      60.644999999999989      64.688000000000002
   161   1      12.128999999999991      62.666499999999992      66.709500000000006
   162   1      14.150499999999992      60.644999999999989      66.709500000000006
   163   1      14.150499999999992      62.666499999999992      64.688000000000002
   164   1      12.128999999999991      60.644999999999989      68.730999999999995
   165   1      12.128999999999991      62.666499999999992      70.752499999999998
   166   1      14.150499999999992      60.644999999999989      70.752499999999998
   167   1      14.150499999999992      62.666499999999992      68.730999999999995
   168   1      12.128999999999991      60.644999999999989      72.774000000000001
   169   1      12.128999999999991      62.666499999999992      74.795500000000004
   170   1      14.150499999999992      60.644999999999989      74.795500000000004
   171   1      14.150499999999992      62.666499999999992      72.774000000000001
   172   1      14.150499999999992      62.666499999999992      76.816999999999993
   173   1      14.150499999999992      64.688000000000002      50.537500000000001
   174   1      12.128999999999991      64.688000000000002      52.558999999999997
   175   1      12.128999999999991      66.709500000000006      54.580499999999994
   176   1      14.150499999999992      64.688000000000002      54.580499999999994
   177   1      14.150499999999992      66.709500000000006      52.558999999999997
   178   1      12.128999999999991      64.688000000000002       56.60199999999999
   179   1      12.128999999999991      66.709500000000006      58.623499999999993
   180   1      14.150499999999992      64.688000000000002      58.623499999999993
   181   1      14.150499999999992      66.709500000000006       56.60199999999999
   182   1      12.128999999999991      64.688000000000002      60.644999999999989
   183   1      12.128999999999991      66.709500000000006      62.666499999999992
   184   1      14.150499999999992      64.688000000000002      62.666499999999992
   185   1      14.150499999999992      66.709500000000006      60.644999999999989
   186   1      12.128999999999991      64.688000000000002      64.688000000000002
   187   1      12.128999999999991      66.709500000000006      66.709500000000006
   188   1      14.150499999999992      64.688000000000002      66.709500000000006
   189   1      14.150499999999992      66.709500000000006      64.688000000000002
   190   1      12.128999999999991      64.688000000000002      68.730999999999995
   191   1      12.128999999999991      66.709500000000006      70.752499999999998
   192   1      14.150499999999992      64.688000000000002      70.752499999999998
   193   1      14.150499999999992      66.709500000000006      68.730999999999995
   194   1      12.128999999999991      64.688000000000002      72.774000000000001
   195   1      12.128999999999991      66.709500000000006      74.795500000000004
   196   1      14.150499999999992      64.688000000000002      74.795500000000004
   197   1      14.150499999999992      66.709500000000006      72.774000000000001
   198   1      12.128999999999991      64.688000000000002      76.816999999999993
   199   1      14.150499999999992      64.688000000000002      78.838499999999996
   200   1      14.150499999999992      66.709500000000006      76.816999999999993
   201   1      12.128999999999991      70.752499999999998      54.580499999999994
   202   1      14.150499999999992      68.730999999999995      54.580499999999994
   203   1      14.150499999999992      70.752499999999998      52.558999999999997
   204   1      12.128999999999991      68.730999999999995       56.60199999999999
   205   1      12.128999999999991      70.752499999999998      58.623499999999993
   206   1      14.150499999999992      68.730999999999995      58.623499999999993
   207   1      14.150499999999992      70.752499999999998       56.60199999999999
   208   1      12.128999999999991      68.730999999999995      60.644999999999989
   209   1      12.128999999999991      70.752499999999998      62.666499999999992
   210   1      14.150499999999992      68.730999999999995      62.666499999999992
   211   1      14.150499999999992      70.752499999999998      60.644999999999989
   212   1      12.128999999999991      68.730999999999995      64.688000000000002
   213   1      12.128999999999991      70.752499999999998      66.709500000000006
   214   1      14.150499999999992      68.730999999999995      66.709500000000006
   215   1      14.150499999999992      70.752499999999998      64.688000000000002
   216   1      12.128999999999991      68.730999999999995      68.730999999999995
   217   1      12.128999999999991      70.752499999999998      70.752499999999998
   218   1      14.150499999999992      68.730999999999995      70.752499999999998
   219   1      14.150499999999992      70.752499999999998      68.730999999999995
   220   1      12.128999999999991      68.730999999999995      72.774000000000001
   221   1      12.128999999999991      70.752499999999998      74.795500000000004
   222   1      14.150499999999992      68.730999999999995      74.795500000000004
   223   1      14.150499999999992      70.752499999999998      72.774000000000001
   224   1      14.150499999999992      70.752499999999998      76.816999999999993
   225   1      12.128999999999991      74.795500000000004      54.580499999999994
   226   1      14.150499999999992      72.774000000000001      54.580499999999994
   227   1      14.150499999999992      74.795500000000004      52.558999999999997
   228   1      12.128999999999991      72.774000000000001       56.60199999999999
   229   1      12.128999999999991      74.795500000000004      58.623499999999993
   230   1      14.150499999999992      72.774000000000001      58.623499999999993
   231   1      14.150499999999992      74.795500000000004       56.60199999999999
   232   1      12.128999999999991      72.774000000000001      60.644999999999989
   233   1      12.128999999999991      74.795500000000004      62.666499999999992
   234   1      14.150499999999992      72.774000000000001      62.666499999999992
   235   1      14.150499999999992      74.795500000000004      60.644999999999989
   236   1      12.128999999999991      72.774000000000001      64.688000000000002
   237   1      12.128999999999991      74.795500000000004      66.709500000000006
   238   1      14.150499999999992      72.774000000000001      66.709500000000006
   239   1      14.150499999999992      74.795500000000004      64.688000000000002
   240   1      12.128999999999991      72.774000000000001      68.730999999999995
   241   1      12.128999999999991      74.795500000000004      70.752499999999998
   242   1      14.150499999999992      72.774000000000001      70.752499999999998
   243   1      14.150499999999992      74.795500000000004      68.730999999999995
   244   1      12.128999999999991      72.774000000000001      72.774000000000001
   245   1      12.128999999999991      74.795500000000004      74.795500000000004
   246   1      14.150499999999992      72.774000000000001      74.795500000000004
   247   1      14.150499999999992      74.795500000000004      72.774000000000001
   248   1      14.150499999999992      74.795500000000004      76.816999999999993
   249   1      14.150499999999992      76.816999999999993      54.580499999999994
   250   1      14.150499999999992      76.816999999999993      58.623499999999993
   251   1      14.150499999999992      76.816999999999993      62.666499999999992
   252   1      12.128999999999991      76.816999999999993      64.688000000000002
   253   1      14.150499999999992      76.816999999999993      66.709500000000006
   254   1      14.150499999999992      78.838499999999996      64.688000000000002
   255   1      14.150499999999992      76.816999999999993      70.752499999999998
   256   1      14.150499999999992      76.816999999999993      74.795500000000004
   257   1      18.193499999999993      46.494500000000002      64.688000000000002
   258   1      16.171999999999997      50.537500000000001      54.580499999999994
   259   1      18.193499999999993      48.515999999999998      54.580499999999994
   260   1      18.193499999999993      50.537500000000001      52.558999999999997
   261   1      16.171999999999997      50.537500000000001      58.623499999999993
   262   1      18.193499999999993      48.515999999999998      58.623499999999993
   263   1      18.193499999999993      50.537500000000001       56.60199999999999
   264   1      16.171999999999997      50.537500000000001      62.666499999999992
   265   1      18.193499999999993      48.515999999999998      62.666499999999992
   266   1      18.193499999999993      50.537500000000001      60.644999999999989
   267   1      16.171999999999997      48.515999999999998      64.688000000000002
   268   1      16.171999999999997      50.537500000000001      66.709500000000006
   269   1      18.193499999999993      48.515999999999998      66.709500000000006
   270   1      18.193499999999993      50.537500000000001      64.688000000000002
   271   1      16.171999999999997      50.537500000000001      70.752499999999998
   272   1      18.193499999999993      48.515999999999998      70.752499999999998
   273   1      18.193499999999993      50.537500000000001      68.730999999999995
   274   1      16.171999999999997      50.537500000000001      74.795500000000004
   275   1      18.193499999999993      48.515999999999998      74.795500000000004
   276   1      18.193499999999993      50.537500000000001      72.774000000000001
   277   1      18.193499999999993      50.537500000000001      76.816999999999993
   278   1      16.171999999999997      54.580499999999994      50.537500000000001
   279   1      18.193499999999993      52.558999999999997      50.537500000000001
   280   1      18.193499999999993      54.580499999999994      48.515999999999998
   281   1      16.171999999999997      52.558999999999997      52.558999999999997
   282   1      16.171999999999997      54.580499999999994      54.580499999999994
   283   1      18.193499999999993      52.558999999999997      54.580499999999994
   284   1      18.193499999999993      54.580499999999994      52.558999999999997
   285   1      16.171999999999997      52.558999999999997       56.60199999999999
   286   1      16.171999999999997      54.580499999999994      58.623499999999993
   287   1      18.193499999999993      52.558999999999997      58.623499999999993
   288   1      18.193499999999993      54.580499999999994       56.60199999999999
   289   1      16.171999999999997      52.558999999999997      60.644999999999989
   290   1      16.171999999999997      54.580499999999994      62.666499999999992
   291   1      18.193499999999993      52.558999999999997      62.666499999999992
   292   1      18.193499999999993      54.580499999999994      60.644999999999989
   293   1      16.171999999999997      52.558999999999997      64.688000000000002
   294   1      16.171999999999997      54.580499999999994      66.709500000000006
   295   1      18.193499999999993      52.558999999999997      66.709500000000006
   296   1      18.193499999999993      54.580499999999994      64.688000000000002
   297   1      16.171999999999997      52.558999999999997      68.730999999999995
   298   1      16.171999999999997      54.580499999999994      70.752499999999998
   299   1      18.193499999999993      52.558999999999997      70.752499999999998
   300   1      18.193499999999993      54.580499999999994      68.730999999999995
   301   1      16.171999999999997      52.558999999999997      72.774000000000001
   302   1      16.171999999999997      54.580499999999994      74.795500000000004
   303   1      18.193499999999993      52.558999999999997      74.795500000000004
   304   1      18.193499999999993      54.580499999999994      72.774000000000001
   305   1      16.171999999999997      52.558999999999997      76.816999999999993
   306   1      16.171999999999997      54.580499999999994      78.838499999999996
   307   1      18.193499999999993      52.558999999999997      78.838499999999996
   308   1      18.193499999999993      54.580499999999994      76.816999999999993
   309   1      18.193499999999993      54.580499999999994      80.859999999999999
   310   1      16.171999999999997      58.623499999999993      50.537500000000001
   311   1      18.193499999999993       56.60199999999999      50.537500000000001
   312   1      18.193499999999993      58.623499999999993      48.515999999999998
   313   1      16.171999999999997       56.60199999999999      52.558999999999997
   314   1      16.171999999999997      58.623499999999993      54.580499999999994
   315   1      18.193499999999993       56.60199999999999      54.580499999999994
   316   1      18.193499999999993      58.623499999999993      52.558999999999997
   317   1      16.171999999999997       56.60199999999999       56.60199999999999
   318   1      16.171999999999997      58.623499999999993      58.623499999999993
   319   1      18.193499999999993       56.60199999999999      58.623499999999993
   320   1      18.193499999999993      58.623499999999993       56.60199999999999
   321   1      16.171999999999997       56.60199999999999      60.644999999999989
   322   1      16.171999999999997      58.623499999999993      62.666499999999992
   323   1      18.193499999999993       56.60199999999999      62.666499999999992
   324   1      18.193499999999993      58.623499999999993      60.644999999999989
   325   1      16.171999999999997       56.60199999999999      64.688000000000002
   326   1      16.171999999999997      58.623499999999993      66.709500000000006
   327   1      18.193499999999993       56.60199999999999      66.709500000000006
   328   1      18.193499999999993      58.623499999999993      64.688000000000002
   329   1      16.171999999999997       56.60199999999999      68.730999999999995
   330   1      16.171999999999997      58.623499999999993      70.752499999999998
   331   1      18.193499999999993       56.60199999999999      70.752499999999998
   332   1      18.193499999999993      58.623499999999993      68.730999999999995
   333   1      16.171999999999997       56.60199999999999      72.774000000000001
   334   1      16.171999999999997      58.623499999999993      74.795500000000004
   335   1      18.193499999999993       56.60199999999999      74.795500000000004
   336   1      18.193499999999993      58.623499999999993      72.774000000000001
   337   1      16.171999999999997       56.60199999999999      76.816999999999993
   338   1      16.171999999999997      58.623499999999993      78.838499999999996
   339   1      18.193499999999993       56.60199999999999      78.838499999999996
   340   1      18.193499999999993      58.623499999999993      76.816999999999993
   341   1      18.193499999999993      58.623499999999993      80.859999999999999
   342   1      16.171999999999997      62.666499999999992      50.537500000000001
   343   1      18.193499999999993      60.644999999999989      50.537500000000001
   344   1      18.193499999999993      62.666499999999992      48.515999999999998
   345   1      16.171999999999997      60.644999999999989      52.558999999999997
   346   1      16.171999999999997      62.666499999999992      54.580499999999994
   347   1      18.193499999999993      60.644999999999989      54.580499999999994
   348   1      18.193499999999993      62.666499999999992      52.558999999999997
   349   1      16.171999999999997      60.644999999999989       56.60199999999999
   350   1      16.171999999999997      62.666499999999992      58.623499999999993
   351   1      18.193499999999993      60.644999999999989      58.623499999999993
   352   1      18.193499999999993      62.666499999999992       56.60199999999999
   353   1      16.171999999999997      60.644999999999989      60.644999999999989
   354   1      16.171999999999997      62.666499999999992      62.666499999999992
   355   1      18.193499999999993      60.644999999999989      62.666499999999992
   356   1      18.193499999999993      62.666499999999992      60.644999999999989
   357   1      16.171999999999997      60.644999999999989      64.688000000000002
   358   1      16.171999999999997      62.666499999999992      66.709500000000006