model_files/PtCu/PtCu_30000/PtCu_110/PtCu_110_fcc_31263_temp.data (written by ASE) 

31263 	 atoms 
2  atom types
0.0                     117  xlo xhi
0.0                     117  ylo yhi
0.0                     117  zlo zhi


Atoms 

     1   1  7.1054273576010019e-15       55.82500000000001       55.82500000000001
     2   1      1.9250000000000045      53.900000000000013       55.82500000000001
     3   1      1.9250000000000045       55.82500000000001      53.900000000000013
     4   1  7.1054273576010019e-15       55.82500000000001      59.675000000000011
     5   1      1.9250000000000045      53.900000000000013      59.675000000000011
     6   1      1.9250000000000045       55.82500000000001      57.750000000000014
     7   1      1.9250000000000045       55.82500000000001      61.600000000000016
     8   1  7.1054273576010019e-15      59.675000000000011       55.82500000000001
     9   1      1.9250000000000045      57.750000000000014       55.82500000000001
    10   1      1.9250000000000045      59.675000000000011      53.900000000000013
    11   1  7.1054273576010019e-15      57.750000000000014      57.750000000000014
    12   1  7.1054273576010019e-15      59.675000000000011      59.675000000000011
    13   1      1.9250000000000045      57.750000000000014      59.675000000000011
    14   1      1.9250000000000045      59.675000000000011      57.750000000000014
    15   1      1.9250000000000045      59.675000000000011      61.600000000000016
    16   1      1.9250000000000045      61.600000000000016       55.82500000000001
    17   1      1.9250000000000045      61.600000000000016      59.675000000000011
    18   1       3.850000000000009      51.975000000000001      51.975000000000001
    19   1      5.7750000000000066      50.050000000000011      51.975000000000001
    20   1      5.7750000000000066      51.975000000000001      50.050000000000011
    21   1       3.850000000000009      51.975000000000001       55.82500000000001
    22   1      5.7750000000000066      50.050000000000011       55.82500000000001
    23   1      5.7750000000000066      51.975000000000001      53.900000000000013
    24   1       3.850000000000009      51.975000000000001      59.675000000000011
    25   1      5.7750000000000066      50.050000000000011      59.675000000000011
    26   1      5.7750000000000066      51.975000000000001      57.750000000000014
    27   1       3.850000000000009      51.975000000000001      63.525000000000006
    28   1      5.7750000000000066      50.050000000000011      63.525000000000006
    29   1      5.7750000000000066      51.975000000000001      61.600000000000016
    30   1      5.7750000000000066      51.975000000000001      65.450000000000017
    31   1       3.850000000000009       55.82500000000001      51.975000000000001
    32   1      5.7750000000000066      53.900000000000013      51.975000000000001
    33   1      5.7750000000000066       55.82500000000001      50.050000000000011
    34   1       3.850000000000009      53.900000000000013      53.900000000000013
    35   1       3.850000000000009       55.82500000000001       55.82500000000001
    36   1      5.7750000000000066      53.900000000000013       55.82500000000001
    37   1      5.7750000000000066       55.82500000000001      53.900000000000013
    38   1       3.850000000000009      53.900000000000013      57.750000000000014
    39   1       3.850000000000009       55.82500000000001      59.675000000000011
    40   1      5.7750000000000066      53.900000000000013      59.675000000000011
    41   1      5.7750000000000066       55.82500000000001      57.750000000000014
    42   1       3.850000000000009      53.900000000000013      61.600000000000016
    43   1       3.850000000000009       55.82500000000001      63.525000000000006
    44   1      5.7750000000000066      53.900000000000013      63.525000000000006
    45   1      5.7750000000000066       55.82500000000001      61.600000000000016
    46   1      5.7750000000000066       55.82500000000001      65.450000000000017
    47   1       3.850000000000009      59.675000000000011      51.975000000000001
    48   1      5.7750000000000066      57.750000000000014      51.975000000000001
    49   1      5.7750000000000066      59.675000000000011      50.050000000000011
    50   1       3.850000000000009      57.750000000000014      53.900000000000013
    51   1       3.850000000000009      59.675000000000011       55.82500000000001
    52   1      5.7750000000000066      57.750000000000014       55.82500000000001
    53   1      5.7750000000000066      59.675000000000011      53.900000000000013
    54   1       3.850000000000009      57.750000000000014      57.750000000000014
    55   1       3.850000000000009      59.675000000000011      59.675000000000011
    56   1      5.7750000000000066      57.750000000000014      59.675000000000011
    57   1      5.7750000000000066      59.675000000000011      57.750000000000014
    58   1       3.850000000000009      57.750000000000014      61.600000000000016
    59   1       3.850000000000009      59.675000000000011      63.525000000000006
    60   1      5.7750000000000066      57.750000000000014      63.525000000000006
    61   1      5.7750000000000066      59.675000000000011      61.600000000000016
    62   1      5.7750000000000066      59.675000000000011      65.450000000000017
    63   1       3.850000000000009      63.525000000000006      51.975000000000001
    64   1      5.7750000000000066      61.600000000000016      51.975000000000001
    65   1      5.7750000000000066      63.525000000000006      50.050000000000011
    66   1       3.850000000000009      61.600000000000016      53.900000000000013
    67   1       3.850000000000009      63.525000000000006       55.82500000000001
    68   1      5.7750000000000066      61.600000000000016       55.82500000000001
    69   1      5.7750000000000066      63.525000000000006      53.900000000000013
    70   1       3.850000000000009      61.600000000000016      57.750000000000014
    71   1       3.850000000000009      63.525000000000006      59.675000000000011
    72   1      5.7750000000000066      61.600000000000016      59.675000000000011
    73   1      5.7750000000000066      63.525000000000006      57.750000000000014
    74   1       3.850000000000009      61.600000000000016      61.600000000000016
    75   1       3.850000000000009      63.525000000000006      63.525000000000006
    76   1      5.7750000000000066      61.600000000000016      63.525000000000006
    77   1      5.7750000000000066      63.525000000000006      61.600000000000016
    78   1      5.7750000000000066      63.525000000000006      65.450000000000017
    79   1      5.7750000000000066      65.450000000000017      51.975000000000001
    80   1      5.7750000000000066      65.450000000000017       55.82500000000001
    81   1      5.7750000000000066      65.450000000000017      59.675000000000011
    82   1      5.7750000000000066      65.450000000000017      63.525000000000006
    83   1      7.7000000000000099      48.125000000000014      48.125000000000014
    84   1      9.6250000000000089      46.200000000000017      48.125000000000014
    85   1      9.6250000000000089      48.125000000000014      46.200000000000017
    86   1      7.7000000000000099      48.125000000000014      51.975000000000001
    87   1      9.6250000000000089      46.200000000000017      51.975000000000001
    88   1      9.6250000000000089      48.125000000000014      50.050000000000011
    89   1      7.7000000000000099      48.125000000000014       55.82500000000001
    90   1      9.6250000000000089      46.200000000000017       55.82500000000001
    91   1      9.6250000000000089      48.125000000000014      53.900000000000013
    92   1      7.7000000000000099      48.125000000000014      59.675000000000011
    93   1      9.6250000000000089      46.200000000000017      59.675000000000011
    94   1      9.6250000000000089      48.125000000000014      57.750000000000014
    95   1      7.7000000000000099      48.125000000000014      63.525000000000006
    96   1      9.6250000000000089      46.200000000000017      63.525000000000006
    97   1      9.6250000000000089      48.125000000000014      61.600000000000016
    98   1      7.7000000000000099      48.125000000000014      67.375000000000014
    99   1      9.6250000000000089      46.200000000000017      67.375000000000014
   100   1      9.6250000000000089      48.125000000000014      65.450000000000017
   101   1      9.6250000000000089      48.125000000000014      69.300000000000011
   102   1      7.7000000000000099      51.975000000000001      48.125000000000014
   103   1      9.6250000000000089      50.050000000000011      48.125000000000014
   104   1      9.6250000000000089      51.975000000000001      46.200000000000017
   105   1      7.7000000000000099      50.050000000000011      50.050000000000011
   106   1      7.7000000000000099      51.975000000000001      51.975000000000001
   107   1      9.6250000000000089      50.050000000000011      51.975000000000001
   108   1      9.6250000000000089      51.975000000000001      50.050000000000011
   109   1      7.7000000000000099      50.050000000000011      53.900000000000013
   110   1      7.7000000000000099      51.975000000000001       55.82500000000001
   111   1      9.6250000000000089      50.050000000000011       55.82500000000001
   112   1      9.6250000000000089      51.975000000000001      53.900000000000013
   113   1      7.7000000000000099      50.050000000000011      57.750000000000014
   114   1      7.7000000000000099      51.975000000000001      59.675000000000011
   115   1      9.6250000000000089      50.050000000000011      59.675000000000011
   116   1      9.6250000000000089      51.975000000000001      57.750000000000014
   117   1      7.7000000000000099      50.050000000000011      61.600000000000016
   118   1      7.7000000000000099      51.975000000000001      63.525000000000006
   119   1      9.6250000000000089      50.050000000000011      63.525000000000006
   120   1      9.6250000000000089      51.975000000000001      61.600000000000016
   121   1      7.7000000000000099      50.050000000000011      65.450000000000017
   122   1      7.7000000000000099      51.975000000000001      67.375000000000014
   123   1      9.6250000000000089      50.050000000000011      67.375000000000014
   124   1      9.6250000000000089      51.975000000000001      65.450000000000017
   125   1      9.6250000000000089      51.975000000000001      69.300000000000011
   126   1      7.7000000000000099       55.82500000000001      48.125000000000014
   127   1      9.6250000000000089      53.900000000000013      48.125000000000014
   128   1      9.6250000000000089       55.82500000000001      46.200000000000017
   129   1      7.7000000000000099      53.900000000000013      50.050000000000011
   130   1      7.7000000000000099       55.82500000000001      51.975000000000001
   131   1      9.6250000000000089      53.900000000000013      51.975000000000001
   132   1      9.6250000000000089       55.82500000000001      50.050000000000011
   133   1      7.7000000000000099      53.900000000000013      53.900000000000013
   134   1      7.7000000000000099       55.82500000000001       55.82500000000001
   135   1      9.6250000000000089      53.900000000000013       55.82500000000001
   136   1      9.6250000000000089       55.82500000000001      53.900000000000013
   137   1      7.7000000000000099      53.900000000000013      57.750000000000014
   138   1      7.7000000000000099       55.82500000000001      59.675000000000011
   139   1      9.6250000000000089      53.900000000000013      59.675000000000011
   140   1      9.6250000000000089       55.82500000000001      57.750000000000014
   141   1      7.7000000000000099      53.900000000000013      61.600000000000016
   142   1      7.7000000000000099       55.82500000000001      63.525000000000006
   143   1      9.6250000000000089      53.900000000000013      63.525000000000006
   144   1      9.6250000000000089       55.82500000000001      61.600000000000016
   145   1      7.7000000000000099      53.900000000000013      65.450000000000017
   146   1      7.7000000000000099       55.82500000000001      67.375000000000014
   147   1      9.6250000000000089      53.900000000000013      67.375000000000014
   148   1      9.6250000000000089       55.82500000000001      65.450000000000017
   149   1      9.6250000000000089       55.82500000000001      69.300000000000011
   150   1      7.7000000000000099      59.675000000000011      48.125000000000014
   151   1      9.6250000000000089      57.750000000000014      48.125000000000014
   152   1      9.6250000000000089      59.675000000000011      46.200000000000017
   153   1      7.7000000000000099      57.750000000000014      50.050000000000011
   154   1      7.7000000000000099      59.675000000000011      51.975000000000001
   155   1      9.6250000000000089      57.750000000000014      51.975000000000001
   156   1      9.6250000000000089      59.675000000000011      50.050000000000011
   157   1      7.7000000000000099      57.750000000000014      53.900000000000013
   158   1      7.7000000000000099      59.675000000000011       55.82500000000001
   159   1      9.6250000000000089      57.750000000000014       55.82500000000001
   160   1      9.6250000000000089      59.675000000000011      53.900000000000013
   161   1      7.7000000000000099      57.750000000000014      57.750000000000014
   162   1      7.7000000000000099      59.675000000000011      59.675000000000011
   163   1      9.6250000000000089      57.750000000000014      59.675000000000011
   164   1      9.6250000000000089      59.675000000000011      57.750000000000014
   165   1      7.7000000000000099      57.750000000000014      61.600000000000016
   166   1      7.7000000000000099      59.675000000000011      63.525000000000006
   167   1      9.6250000000000089      57.750000000000014      63.525000000000006
   168   1      9.6250000000000089      59.675000000000011      61.600000000000016
   169   1      7.7000000000000099      57.750000000000014      65.450000000000017
   170   1      7.7000000000000099      59.675000000000011      67.375000000000014
   171   1      9.6250000000000089      57.750000000000014      67.375000000000014
   172   1      9.6250000000000089      59.675000000000011      65.450000000000017
   173   1      9.6250000000000089      59.675000000000011      69.300000000000011
   174   1      7.7000000000000099      63.525000000000006      48.125000000000014
   175   1      9.6250000000000089      61.600000000000016      48.125000000000014
   176   1      9.6250000000000089      63.525000000000006      46.200000000000017
   177   1      7.7000000000000099      61.600000000000016      50.050000000000011
   178   1      7.7000000000000099      63.525000000000006      51.975000000000001
   179   1      9.6250000000000089      61.600000000000016      51.975000000000001
   180   1      9.6250000000000089      63.525000000000006      50.050000000000011
   181   1      7.7000000000000099      61.600000000000016      53.900000000000013
   182   1      7.7000000000000099      63.525000000000006       55.82500000000001
   183   1      9.6250000000000089      61.600000000000016       55.82500000000001
   184   1      9.6250000000000089      63.525000000000006      53.900000000000013
   185   1      7.7000000000000099      61.600000000000016      57.750000000000014
   186   1      7.7000000000000099      63.525000000000006      59.675000000000011
   187   1      9.6250000000000089      61.600000000000016      59.675000000000011
   188   1      9.6250000000000089      63.525000000000006      57.750000000000014
   189   1      7.7000000000000099      61.600000000000016      61.600000000000016
   190   1      7.7000000000000099      63.525000000000006      63.525000000000006
   191   1      9.6250000000000089      61.600000000000016      63.525000000000006
   192   1      9.6250000000000089      63.525000000000006      61.600000000000016
   193   1      7.7000000000000099      61.600000000000016      65.450000000000017
   194   1      7.7000000000000099      63.525000000000006      67.375000000000014
   195   1      9.6250000000000089      61.600000000000016      67.375000000000014
   196   1      9.6250000000000089      63.525000000000006      65.450000000000017
   197   1      9.6250000000000089      63.525000000000006      69.300000000000011
   198   1      7.7000000000000099      67.375000000000014      48.125000000000014
   199   1      9.6250000000000089      65.450000000000017      48.125000000000014
   200   1      9.6250000000000089      67.375000000000014      46.200000000000017
   201   1      7.7000000000000099      65.450000000000017      50.050000000000011
   202   1      7.7000000000000099      67.375000000000014      51.975000000000001
   203   1      9.6250000000000089      65.450000000000017      51.975000000000001
   204   1      9.6250000000000089      67.375000000000014      50.050000000000011
   205   1      7.7000000000000099      65.450000000000017      53.900000000000013
   206   1      7.7000000000000099      67.375000000000014       55.82500000000001
   207   1      9.6250000000000089      65.450000000000017       55.82500000000001
   208   1      9.6250000000000089      67.375000000000014      53.900000000000013
   209   1      7.7000000000000099      65.450000000000017      57.750000000000014
   210   1      7.7000000000000099      67.375000000000014      59.675000000000011
   211   1      9.6250000000000089      65.450000000000017      59.675000000000011
   212   1      9.6250000000000089      67.375000000000014      57.750000000000014
   213   1      7.7000000000000099      65.450000000000017      61.600000000000016
   214   1      7.7000000000000099      67.375000000000014      63.525000000000006
   215   1      9.6250000000000089      65.450000000000017      63.525000000000006
   216   1      9.6250000000000089      67.375000000000014      61.600000000000016
   217   1      7.7000000000000099      65.450000000000017      65.450000000000017
   218   1      7.7000000000000099      67.375000000000014      67.375000000000014
   219   1      9.6250000000000089      65.450000000000017      67.375000000000014
   220   1      9.6250000000000089      67.375000000000014      65.450000000000017
   221   1      9.6250000000000089      67.375000000000014      69.300000000000011
   222   1      9.6250000000000089      69.300000000000011      48.125000000000014
   223   1      9.6250000000000089      69.300000000000011      51.975000000000001
   224   1      9.6250000000000089      69.300000000000011       55.82500000000001
   225   1      9.6250000000000089      69.300000000000011      59.675000000000011
   226   1      9.6250000000000089      69.300000000000011      63.525000000000006
   227   1      9.6250000000000089      69.300000000000011      67.375000000000014
   228   1      11.550000000000006      44.275000000000013      44.275000000000013
   229   1      13.475000000000003      42.350000000000009      44.275000000000013
   230   1      13.475000000000003      44.275000000000013      42.350000000000009
   231   1      11.550000000000006      44.275000000000013      48.125000000000014
   232   1      13.475000000000003      42.350000000000009      48.125000000000014
   233   1      13.475000000000003      44.275000000000013      46.200000000000017
   234   1      11.550000000000006      44.275000000000013      51.975000000000001
   235   1      13.475000000000003      42.350000000000009      51.975000000000001
   236   1      13.475000000000003      44.275000000000013      50.050000000000011
   237   1      11.550000000000006      44.275000000000013       55.82500000000001
   238   1      13.475000000000003      42.350000000000009       55.82500000000001
   239   1      13.475000000000003      44.275000000000013      53.900000000000013
   240   1      11.550000000000006      44.275000000000013      59.675000000000011
   241   1      13.475000000000003      42.350000000000009      59.675000000000011
   242   1      13.475000000000003      44.275000000000013      57.750000000000014
   243   1      11.550000000000006      44.275000000000013      63.525000000000006
   244   1      13.475000000000003      42.350000000000009      63.525000000000006
   245   1      13.475000000000003      44.275000000000013      61.600000000000016
   246   1      11.550000000000006      44.275000000000013      67.375000000000014
   247   1      13.475000000000003      42.350000000000009      67.375000000000014
   248   1      13.475000000000003      44.275000000000013      65.450000000000017
   249   1      11.550000000000006      44.275000000000013      71.225000000000023
   250   1      13.475000000000003      42.350000000000009      71.225000000000023
   251   1      13.475000000000003      44.275000000000013      69.300000000000011
   252   1      13.475000000000003      44.275000000000013       73.15000000000002
   253   1      11.550000000000006      48.125000000000014      44.275000000000013
   254   1      13.475000000000003      46.200000000000017      44.275000000000013
   255   1      13.475000000000003      48.125000000000014      42.350000000000009
   256   1      11.550000000000006      46.200000000000017      46.200000000000017
   257   1      11.550000000000006      48.125000000000014      48.125000000000014
   258   1      13.475000000000003      46.200000000000017      48.125000000000014
   259   1      13.475000000000003      48.125000000000014      46.200000000000017
   260   1      11.550000000000006      46.200000000000017      50.050000000000011
   261   1      11.550000000000006      48.125000000000014      51.975000000000001
   262   1      13.475000000000003      46.200000000000017      51.975000000000001
   263   1      13.475000000000003      48.125000000000014      50.050000000000011
   264   1      11.550000000000006      46.200000000000017      53.900000000000013
   265   1      11.550000000000006      48.125000000000014       55.82500000000001
   266   1      13.475000000000003      46.200000000000017       55.82500000000001
   267   1      13.475000000000003      48.125000000000014      53.900000000000013
   268   1      11.550000000000006      46.200000000000017      57.750000000000014
   269   1      11.550000000000006      48.125000000000014      59.675000000000011
   270   1      13.475000000000003      46.200000000000017      59.675000000000011
   271   1      13.475000000000003      48.125000000000014      57.750000000000014
   272   1      11.550000000000006      46.200000000000017      61.600000000000016
   273   1      11.550000000000006      48.125000000000014      63.525000000000006
   274   1      13.475000000000003      46.200000000000017      63.525000000000006
   275   1      13.475000000000003      48.125000000000014      61.600000000000016
   276   1      11.550000000000006      46.200000000000017      65.450000000000017
   277   1      11.550000000000006      48.125000000000014      67.375000000000014
   278   1      13.475000000000003      46.200000000000017      67.375000000000014
   279   1      13.475000000000003      48.125000000000014      65.450000000000017
   280   1      11.550000000000006      46.200000000000017      69.300000000000011
   281   1      11.550000000000006      48.125000000000014      71.225000000000023
   282   1      13.475000000000003      46.200000000000017      71.225000000000023
   283   1      13.475000000000003      48.125000000000014      69.300000000000011
   284   1      13.475000000000003      48.125000000000014       73.15000000000002
   285   1      11.550000000000006      51.975000000000001      44.275000000000013
   286   1      13.475000000000003      50.050000000000011      44.275000000000013
   287   1      13.475000000000003      51.975000000000001      42.350000000000009
   288   1      11.550000000000006      50.050000000000011      46.200000000000017
   289   1      11.550000000000006      51.975000000000001      48.125000000000014
   290   1      13.475000000000003      50.050000000000011      48.125000000000014
   291   1      13.475000000000003      51.975000000000001      46.200000000000017
   292   1      11.550000000000006      50.050000000000011      50.050000000000011
   293   1      11.550000000000006      51.975000000000001      51.975000000000001
   294   1      13.475000000000003      50.050000000000011      51.975000000000001
   295   1      13.475000000000003      51.975000000000001      50.050000000000011
   296   1      11.550000000000006      50.050000000000011      53.900000000000013
   297   1      11.550000000000006      51.975000000000001       55.82500000000001
   298   1      13.475000000000003      50.050000000000011       55.82500000000001
   299   1      13.475000000000003      51.975000000000001      53.900000000000013
   300   1      11.550000000000006      50.050000000000011      57.750000000000014
   301   1      11.550000000000006      51.975000000000001      59.675000000000011
   302   1      13.475000000000003      50.050000000000011      59.675000000000011
   303   1      13.475000000000003      51.975000000000001      57.750000000000014
   304   1      11.550000000000006      50.050000000000011      61.600000000000016
   305   1      11.550000000000006      51.975000000000001      63.525000000000006
   306   1      13.475000000000003      50.050000000000011      63.525000000000006
   307   1      13.475000000000003      51.975000000000001      61.600000000000016
   308   1      11.550000000000006      50.050000000000011      65.450000000000017
   309   1      11.550000000000006      51.975000000000001      67.375000000000014
   310   1      13.475000000000003      50.050000000000011      67.375000000000014
   311   1      13.475000000000003      51.975000000000001      65.450000000000017
   312   1      11.550000000000006      50.050000000000011      69.300000000000011
   313   1      11.550000000000006      51.975000000000001      71.225000000000023
   314   1      13.475000000000003      50.050000000000011      71.225000000000023
   315   1      13.475000000000003      51.975000000000001      69.300000000000011
   316   1      13.475000000000003      51.975000000000001       73.15000000000002
   317   1      11.550000000000006       55.82500000000001      44.275000000000013
   318   1      13.475000000000003      53.900000000000013      44.275000000000013
   319   1      13.475000000000003       55.82500000000001      42.350000000000009
   320   1      11.550000000000006      53.900000000000013      46.200000000000017
   321   1      11.550000000000006       55.82500000000001      48.125000000000014
   322   1      13.475000000000003      53.900000000000013      48.125000000000014
   323   1      13.475000000000003       55.82500000000001      46.200000000000017
   324   1      11.550000000000006      53.900000000000013      50.050000000000011
   325   1      11.550000000000006       55.82500000000001      51.975000000000001
   326   1      13.475000000000003      53.900000000000013      51.975000000000001
   327   1      13.475000000000003       55.82500000000001      50.050000000000011
   328   1      11.550000000000006      53.900000000000013      53.900000000000013
   329   1      11.550000000000006       55.82500000000001       55.82500000000001
   330   1      13.475000000000003      53.900000000000013       55.82500000000001
   331   1      13.475000000000003       55.82500000000001      53.900000000000013
   332   1      11.550000000000006      53.900000000000013      57.750000000000014
   333   1      11.550000000000006       55.82500000000001      59.675000000000011
   334   1      13.475000000000003      53.900000000000013      59.675000000000011
   335   1      13.475000000000003       55.82500000000001      57.750000000000014
   336   1      11.550000000000006      53.900000000000013      61.600000000000016
   337   1      11.550000000000006       55.82500000000001      63.525000000000006
   338   1      13.475000000000003      53.900000000000013      63.525000000000006
   339   1      13.475000000000003       55.82500000000001      61.600000000000016
   340   1      11.550000000000006      53.900000000000013      65.450000000000017
   341   1      11.550000000000006       55.82500000000001      67.375000000000014
   342   1      13.475000000000003      53.900000000000013      67.375000000000014
   343   1      13.475000000000003       55.82500000000001      65.450000000000017
   344   1      11.550000000000006      53.900000000000013      69.300000000000011
   345   1      11.550000000000006       55.82500000000001      71.225000000000023
   346   1      13.475000000000003      53.900000000000013      71.225000000000023
   347   1      13.475000000000003       55.82500000000001      69.300000000000011
   348   1      13.475000000000003       55.82500000000001       73.15000000000002
   349   1      11.550000000000006      59.675000000000011      44.275000000000013
   350   1      13.475000000000003      57.750000000000014      44.275000000000013
   351   1      13.475000000000003      59.675000000000011      42.350000000000009
   352   1      11.550000000000006      57.750000000000014      46.200000000000017
   353   1      11.550000000000006      59.675000000000011      48.125000000000014
   354   1      13.475000000000003      57.750000000000014      48.125000000000014
   355   1      13.475000000000003      59.675000000000011      46.200000000000017
   356   1      11.550000000000006      57.750000000000014      50.050000000000011
   357   1      11.550000000000006      59.675000000000011      51.975000000000001
   358   1      13.475000000000003      57.750000000000014      51.975000000000001