model_files/CuAu/CuAu_30000/CuAu_321/CuAu_321_fcc_29817_temp.data (written by ASE) 

29817 	 atoms 
2  atom types
0.0                     104  xlo xhi
0.0                     104  ylo yhi
0.0                     104  zlo zhi


Atoms 

     1   1      1.8700000000000048      46.750000000000007      52.360000000000007
     2   1  7.1054273576010019e-15      50.490000000000002      50.490000000000002
     3   1      1.8700000000000048      48.620000000000012      50.490000000000002
     4   1      1.8700000000000048      50.490000000000002      48.620000000000012
     5   1  7.1054273576010019e-15      50.490000000000002      54.230000000000004
     6   1      1.8700000000000048      48.620000000000012      54.230000000000004
     7   1      1.8700000000000048      50.490000000000002      52.360000000000007
     8   1      1.8700000000000048      50.490000000000002      56.100000000000009
     9   1      1.8700000000000048      52.360000000000007      46.750000000000007
    10   1  7.1054273576010019e-15      54.230000000000004      50.490000000000002
    11   1      1.8700000000000048      52.360000000000007      50.490000000000002
    12   1      1.8700000000000048      54.230000000000004      48.620000000000012
    13   1  7.1054273576010019e-15      52.360000000000007      52.360000000000007
    14   1  7.1054273576010019e-15      54.230000000000004      54.230000000000004
    15   1      1.8700000000000048      52.360000000000007      54.230000000000004
    16   1      1.8700000000000048      54.230000000000004      52.360000000000007
    17   1      1.8700000000000048      52.360000000000007      57.970000000000006
    18   1      1.8700000000000048      54.230000000000004      56.100000000000009
    19   1      1.8700000000000048      56.100000000000009      50.490000000000002
    20   1      1.8700000000000048      56.100000000000009      54.230000000000004
    21   1      1.8700000000000048      57.970000000000006      52.360000000000007
    22   1      5.6100000000000074      43.010000000000012      48.620000000000012
    23   1      5.6100000000000074      43.010000000000012      52.360000000000007
    24   1      5.6100000000000074      43.010000000000012      56.100000000000009
    25   1       3.740000000000002      46.750000000000007      46.750000000000007
    26   1      5.6100000000000074       44.88000000000001      46.750000000000007
    27   1      5.6100000000000074      46.750000000000007       44.88000000000001
    28   1       3.740000000000002      46.750000000000007      50.490000000000002
    29   1      5.6100000000000074       44.88000000000001      50.490000000000002
    30   1      5.6100000000000074      46.750000000000007      48.620000000000012
    31   1       3.740000000000002       44.88000000000001      52.360000000000007
    32   1       3.740000000000002      46.750000000000007      54.230000000000004
    33   1      5.6100000000000074       44.88000000000001      54.230000000000004
    34   1      5.6100000000000074      46.750000000000007      52.360000000000007
    35   1       3.740000000000002      46.750000000000007      57.970000000000006
    36   1      5.6100000000000074       44.88000000000001      57.970000000000006
    37   1      5.6100000000000074      46.750000000000007      56.100000000000009
    38   1      5.6100000000000074      46.750000000000007      59.840000000000011
    39   1      5.6100000000000074      48.620000000000012      43.010000000000012
    40   1       3.740000000000002      50.490000000000002      46.750000000000007
    41   1      5.6100000000000074      48.620000000000012      46.750000000000007
    42   1      5.6100000000000074      50.490000000000002       44.88000000000001
    43   1       3.740000000000002      48.620000000000012      48.620000000000012
    44   1       3.740000000000002      50.490000000000002      50.490000000000002
    45   1      5.6100000000000074      48.620000000000012      50.490000000000002
    46   1      5.6100000000000074      50.490000000000002      48.620000000000012
    47   1       3.740000000000002      48.620000000000012      52.360000000000007
    48   1       3.740000000000002      50.490000000000002      54.230000000000004
    49   1      5.6100000000000074      48.620000000000012      54.230000000000004
    50   1      5.6100000000000074      50.490000000000002      52.360000000000007
    51   1       3.740000000000002      48.620000000000012      56.100000000000009
    52   1       3.740000000000002      50.490000000000002      57.970000000000006
    53   1      5.6100000000000074      48.620000000000012      57.970000000000006
    54   1      5.6100000000000074      50.490000000000002      56.100000000000009
    55   1      5.6100000000000074      48.620000000000012      61.710000000000008
    56   1      5.6100000000000074      50.490000000000002      59.840000000000011
    57   1      5.6100000000000074      52.360000000000007      43.010000000000012
    58   1       3.740000000000002      52.360000000000007       44.88000000000001
    59   1       3.740000000000002      54.230000000000004      46.750000000000007
    60   1      5.6100000000000074      52.360000000000007      46.750000000000007
    61   1      5.6100000000000074      54.230000000000004       44.88000000000001
    62   1       3.740000000000002      52.360000000000007      48.620000000000012
    63   1       3.740000000000002      54.230000000000004      50.490000000000002
    64   1      5.6100000000000074      52.360000000000007      50.490000000000002
    65   1      5.6100000000000074      54.230000000000004      48.620000000000012
    66   1       3.740000000000002      52.360000000000007      52.360000000000007
    67   1       3.740000000000002      54.230000000000004      54.230000000000004
    68   1      5.6100000000000074      52.360000000000007      54.230000000000004
    69   1      5.6100000000000074      54.230000000000004      52.360000000000007
    70   1       3.740000000000002      52.360000000000007      56.100000000000009
    71   1       3.740000000000002      54.230000000000004      57.970000000000006
    72   1      5.6100000000000074      52.360000000000007      57.970000000000006
    73   1      5.6100000000000074      54.230000000000004      56.100000000000009
    74   1       3.740000000000002      52.360000000000007      59.840000000000011
    75   1      5.6100000000000074      52.360000000000007      61.710000000000008
    76   1      5.6100000000000074      54.230000000000004      59.840000000000011
    77   1      5.6100000000000074      56.100000000000009      43.010000000000012
    78   1       3.740000000000002      57.970000000000006      46.750000000000007
    79   1      5.6100000000000074      56.100000000000009      46.750000000000007
    80   1      5.6100000000000074      57.970000000000006       44.88000000000001
    81   1       3.740000000000002      56.100000000000009      48.620000000000012
    82   1       3.740000000000002      57.970000000000006      50.490000000000002
    83   1      5.6100000000000074      56.100000000000009      50.490000000000002
    84   1      5.6100000000000074      57.970000000000006      48.620000000000012
    85   1       3.740000000000002      56.100000000000009      52.360000000000007
    86   1       3.740000000000002      57.970000000000006      54.230000000000004
    87   1      5.6100000000000074      56.100000000000009      54.230000000000004
    88   1      5.6100000000000074      57.970000000000006      52.360000000000007
    89   1       3.740000000000002      56.100000000000009      56.100000000000009
    90   1       3.740000000000002      57.970000000000006      57.970000000000006
    91   1      5.6100000000000074      56.100000000000009      57.970000000000006
    92   1      5.6100000000000074      57.970000000000006      56.100000000000009
    93   1      5.6100000000000074      56.100000000000009      61.710000000000008
    94   1      5.6100000000000074      57.970000000000006      59.840000000000011
    95   1      5.6100000000000074      59.840000000000011      46.750000000000007
    96   1      5.6100000000000074      59.840000000000011      50.490000000000002
    97   1      5.6100000000000074      61.710000000000008      48.620000000000012
    98   1       3.740000000000002      59.840000000000011      52.360000000000007
    99   1      5.6100000000000074      59.840000000000011      54.230000000000004
   100   1      5.6100000000000074      61.710000000000008      52.360000000000007
   101   1      5.6100000000000074      59.840000000000011      57.970000000000006
   102   1      5.6100000000000074      61.710000000000008      56.100000000000009
   103   1      9.3500000000000014      35.530000000000008      52.360000000000007
   104   1      9.3500000000000014       39.27000000000001       44.88000000000001
   105   1       7.480000000000004       39.27000000000001      50.490000000000002
   106   1      9.3500000000000014      37.400000000000006      50.490000000000002
   107   1      9.3500000000000014       39.27000000000001      48.620000000000012
   108   1       7.480000000000004       39.27000000000001      54.230000000000004
   109   1      9.3500000000000014      37.400000000000006      54.230000000000004
   110   1      9.3500000000000014       39.27000000000001      52.360000000000007
   111   1      9.3500000000000014       39.27000000000001      56.100000000000009
   112   1      9.3500000000000014       39.27000000000001      59.840000000000011
   113   1       7.480000000000004      43.010000000000012      43.010000000000012
   114   1      9.3500000000000014      41.140000000000008      43.010000000000012
   115   1      9.3500000000000014      43.010000000000012      41.140000000000008
   116   1       7.480000000000004      43.010000000000012      46.750000000000007
   117   1      9.3500000000000014      41.140000000000008      46.750000000000007
   118   1      9.3500000000000014      43.010000000000012       44.88000000000001
   119   1       7.480000000000004      41.140000000000008      48.620000000000012
   120   1       7.480000000000004      43.010000000000012      50.490000000000002
   121   1      9.3500000000000014      41.140000000000008      50.490000000000002
   122   1      9.3500000000000014      43.010000000000012      48.620000000000012
   123   1       7.480000000000004      41.140000000000008      52.360000000000007
   124   1       7.480000000000004      43.010000000000012      54.230000000000004
   125   1      9.3500000000000014      41.140000000000008      54.230000000000004
   126   1      9.3500000000000014      43.010000000000012      52.360000000000007
   127   1       7.480000000000004      41.140000000000008      56.100000000000009
   128   1       7.480000000000004      43.010000000000012      57.970000000000006
   129   1      9.3500000000000014      41.140000000000008      57.970000000000006
   130   1      9.3500000000000014      43.010000000000012      56.100000000000009
   131   1       7.480000000000004      43.010000000000012      61.710000000000008
   132   1      9.3500000000000014      41.140000000000008      61.710000000000008
   133   1      9.3500000000000014      43.010000000000012      59.840000000000011
   134   1      9.3500000000000014      43.010000000000012      63.580000000000013
   135   1      9.3500000000000014       44.88000000000001       39.27000000000001
   136   1       7.480000000000004      46.750000000000007      43.010000000000012
   137   1      9.3500000000000014       44.88000000000001      43.010000000000012
   138   1      9.3500000000000014      46.750000000000007      41.140000000000008
   139   1       7.480000000000004       44.88000000000001       44.88000000000001
   140   1       7.480000000000004      46.750000000000007      46.750000000000007
   141   1      9.3500000000000014       44.88000000000001      46.750000000000007
   142   1      9.3500000000000014      46.750000000000007       44.88000000000001
   143   1       7.480000000000004       44.88000000000001      48.620000000000012
   144   1       7.480000000000004      46.750000000000007      50.490000000000002
   145   1      9.3500000000000014       44.88000000000001      50.490000000000002
   146   1      9.3500000000000014      46.750000000000007      48.620000000000012
   147   1       7.480000000000004       44.88000000000001      52.360000000000007
   148   1       7.480000000000004      46.750000000000007      54.230000000000004
   149   1      9.3500000000000014       44.88000000000001      54.230000000000004
   150   1      9.3500000000000014      46.750000000000007      52.360000000000007
   151   1       7.480000000000004       44.88000000000001      56.100000000000009
   152   1       7.480000000000004      46.750000000000007      57.970000000000006
   153   1      9.3500000000000014       44.88000000000001      57.970000000000006
   154   1      9.3500000000000014      46.750000000000007      56.100000000000009
   155   1       7.480000000000004       44.88000000000001      59.840000000000011
   156   1       7.480000000000004      46.750000000000007      61.710000000000008
   157   1      9.3500000000000014       44.88000000000001      61.710000000000008
   158   1      9.3500000000000014      46.750000000000007      59.840000000000011
   159   1      9.3500000000000014       44.88000000000001      65.450000000000017
   160   1      9.3500000000000014      46.750000000000007      63.580000000000013
   161   1       7.480000000000004      50.490000000000002       39.27000000000001
   162   1      9.3500000000000014      48.620000000000012       39.27000000000001
   163   1      9.3500000000000014      50.490000000000002      37.400000000000006
   164   1       7.480000000000004      48.620000000000012      41.140000000000008
   165   1       7.480000000000004      50.490000000000002      43.010000000000012
   166   1      9.3500000000000014      48.620000000000012      43.010000000000012
   167   1      9.3500000000000014      50.490000000000002      41.140000000000008
   168   1       7.480000000000004      48.620000000000012       44.88000000000001
   169   1       7.480000000000004      50.490000000000002      46.750000000000007
   170   1      9.3500000000000014      48.620000000000012      46.750000000000007
   171   1      9.3500000000000014      50.490000000000002       44.88000000000001
   172   1       7.480000000000004      48.620000000000012      48.620000000000012
   173   1       7.480000000000004      50.490000000000002      50.490000000000002
   174   1      9.3500000000000014      48.620000000000012      50.490000000000002
   175   1      9.3500000000000014      50.490000000000002      48.620000000000012
   176   1       7.480000000000004      48.620000000000012      52.360000000000007
   177   1       7.480000000000004      50.490000000000002      54.230000000000004
   178   1      9.3500000000000014      48.620000000000012      54.230000000000004
   179   1      9.3500000000000014      50.490000000000002      52.360000000000007
   180   1       7.480000000000004      48.620000000000012      56.100000000000009
   181   1       7.480000000000004      50.490000000000002      57.970000000000006
   182   1      9.3500000000000014      48.620000000000012      57.970000000000006
   183   1      9.3500000000000014      50.490000000000002      56.100000000000009
   184   1       7.480000000000004      48.620000000000012      59.840000000000011
   185   1       7.480000000000004      50.490000000000002      61.710000000000008
   186   1      9.3500000000000014      48.620000000000012      61.710000000000008
   187   1      9.3500000000000014      50.490000000000002      59.840000000000011
   188   1       7.480000000000004      48.620000000000012      63.580000000000013
   189   1       7.480000000000004      50.490000000000002      65.450000000000017
   190   1      9.3500000000000014      48.620000000000012      65.450000000000017
   191   1      9.3500000000000014      50.490000000000002      63.580000000000013
   192   1      9.3500000000000014      50.490000000000002      67.320000000000007
   193   1      9.3500000000000014      52.360000000000007      35.530000000000008
   194   1       7.480000000000004      54.230000000000004       39.27000000000001
   195   1      9.3500000000000014      52.360000000000007       39.27000000000001
   196   1      9.3500000000000014      54.230000000000004      37.400000000000006
   197   1       7.480000000000004      52.360000000000007      41.140000000000008
   198   1       7.480000000000004      54.230000000000004      43.010000000000012
   199   1      9.3500000000000014      52.360000000000007      43.010000000000012
   200   1      9.3500000000000014      54.230000000000004      41.140000000000008
   201   1       7.480000000000004      52.360000000000007       44.88000000000001
   202   1       7.480000000000004      54.230000000000004      46.750000000000007
   203   1      9.3500000000000014      52.360000000000007      46.750000000000007
   204   1      9.3500000000000014      54.230000000000004       44.88000000000001
   205   1       7.480000000000004      52.360000000000007      48.620000000000012
   206   1       7.480000000000004      54.230000000000004      50.490000000000002
   207   1      9.3500000000000014      52.360000000000007      50.490000000000002
   208   1      9.3500000000000014      54.230000000000004      48.620000000000012
   209   1       7.480000000000004      52.360000000000007      52.360000000000007
   210   1       7.480000000000004      54.230000000000004      54.230000000000004
   211   1      9.3500000000000014      52.360000000000007      54.230000000000004
   212   1      9.3500000000000014      54.230000000000004      52.360000000000007
   213   1       7.480000000000004      52.360000000000007      56.100000000000009
   214   1       7.480000000000004      54.230000000000004      57.970000000000006
   215   1      9.3500000000000014      52.360000000000007      57.970000000000006
   216   1      9.3500000000000014      54.230000000000004      56.100000000000009
   217   1       7.480000000000004      52.360000000000007      59.840000000000011
   218   1       7.480000000000004      54.230000000000004      61.710000000000008
   219   1      9.3500000000000014      52.360000000000007      61.710000000000008
   220   1      9.3500000000000014      54.230000000000004      59.840000000000011
   221   1       7.480000000000004      52.360000000000007      63.580000000000013
   222   1       7.480000000000004      54.230000000000004      65.450000000000017
   223   1      9.3500000000000014      52.360000000000007      65.450000000000017
   224   1      9.3500000000000014      54.230000000000004      63.580000000000013
   225   1      9.3500000000000014      52.360000000000007      69.190000000000012
   226   1      9.3500000000000014      54.230000000000004      67.320000000000007
   227   1      9.3500000000000014      56.100000000000009       39.27000000000001
   228   1       7.480000000000004      56.100000000000009      41.140000000000008
   229   1       7.480000000000004      57.970000000000006      43.010000000000012
   230   1      9.3500000000000014      56.100000000000009      43.010000000000012
   231   1      9.3500000000000014      57.970000000000006      41.140000000000008
   232   1       7.480000000000004      56.100000000000009       44.88000000000001
   233   1       7.480000000000004      57.970000000000006      46.750000000000007
   234   1      9.3500000000000014      56.100000000000009      46.750000000000007
   235   1      9.3500000000000014      57.970000000000006       44.88000000000001
   236   1       7.480000000000004      56.100000000000009      48.620000000000012
   237   1       7.480000000000004      57.970000000000006      50.490000000000002
   238   1      9.3500000000000014      56.100000000000009      50.490000000000002
   239   1      9.3500000000000014      57.970000000000006      48.620000000000012
   240   1       7.480000000000004      56.100000000000009      52.360000000000007
   241   1       7.480000000000004      57.970000000000006      54.230000000000004
   242   1      9.3500000000000014      56.100000000000009      54.230000000000004
   243   1      9.3500000000000014      57.970000000000006      52.360000000000007
   244   1       7.480000000000004      56.100000000000009      56.100000000000009
   245   1       7.480000000000004      57.970000000000006      57.970000000000006
   246   1      9.3500000000000014      56.100000000000009      57.970000000000006
   247   1      9.3500000000000014      57.970000000000006      56.100000000000009
   248   1       7.480000000000004      56.100000000000009      59.840000000000011
   249   1       7.480000000000004      57.970000000000006      61.710000000000008
   250   1      9.3500000000000014      56.100000000000009      61.710000000000008
   251   1      9.3500000000000014      57.970000000000006      59.840000000000011
   252   1       7.480000000000004      56.100000000000009      63.580000000000013
   253   1      9.3500000000000014      56.100000000000009      65.450000000000017
   254   1      9.3500000000000014      57.970000000000006      63.580000000000013
   255   1      9.3500000000000014      59.840000000000011       39.27000000000001
   256   1       7.480000000000004      61.710000000000008      43.010000000000012
   257   1      9.3500000000000014      59.840000000000011      43.010000000000012
   258   1      9.3500000000000014      61.710000000000008      41.140000000000008
   259   1       7.480000000000004      59.840000000000011       44.88000000000001
   260   1       7.480000000000004      61.710000000000008      46.750000000000007
   261   1      9.3500000000000014      59.840000000000011      46.750000000000007
   262   1      9.3500000000000014      61.710000000000008       44.88000000000001
   263   1       7.480000000000004      59.840000000000011      48.620000000000012
   264   1       7.480000000000004      61.710000000000008      50.490000000000002
   265   1      9.3500000000000014      59.840000000000011      50.490000000000002
   266   1      9.3500000000000014      61.710000000000008      48.620000000000012
   267   1       7.480000000000004      59.840000000000011      52.360000000000007
   268   1       7.480000000000004      61.710000000000008      54.230000000000004
   269   1      9.3500000000000014      59.840000000000011      54.230000000000004
   270   1      9.3500000000000014      61.710000000000008      52.360000000000007
   271   1       7.480000000000004      59.840000000000011      56.100000000000009
   272   1       7.480000000000004      61.710000000000008      57.970000000000006
   273   1      9.3500000000000014      59.840000000000011      57.970000000000006
   274   1      9.3500000000000014      61.710000000000008      56.100000000000009
   275   1       7.480000000000004      59.840000000000011      59.840000000000011
   276   1       7.480000000000004      61.710000000000008      61.710000000000008
   277   1      9.3500000000000014      59.840000000000011      61.710000000000008
   278   1      9.3500000000000014      61.710000000000008      59.840000000000011
   279   1      9.3500000000000014      59.840000000000011      65.450000000000017
   280   1      9.3500000000000014      61.710000000000008      63.580000000000013
   281   1      9.3500000000000014      63.580000000000013      43.010000000000012
   282   1      9.3500000000000014      63.580000000000013      46.750000000000007
   283   1      9.3500000000000014      65.450000000000017       44.88000000000001
   284   1       7.480000000000004      63.580000000000013      48.620000000000012
   285   1       7.480000000000004      65.450000000000017      50.490000000000002
   286   1      9.3500000000000014      63.580000000000013      50.490000000000002
   287   1      9.3500000000000014      65.450000000000017      48.620000000000012
   288   1       7.480000000000004      63.580000000000013      52.360000000000007
   289   1       7.480000000000004      65.450000000000017      54.230000000000004
   290   1      9.3500000000000014      63.580000000000013      54.230000000000004
   291   1      9.3500000000000014      65.450000000000017      52.360000000000007
   292   1       7.480000000000004      63.580000000000013      56.100000000000009
   293   1      9.3500000000000014      63.580000000000013      57.970000000000006
   294   1      9.3500000000000014      65.450000000000017      56.100000000000009
   295   1      9.3500000000000014      63.580000000000013      61.710000000000008
   296   1      9.3500000000000014      65.450000000000017      59.840000000000011
   297   1      9.3500000000000014      67.320000000000007      50.490000000000002
   298   1      9.3500000000000014      67.320000000000007      54.230000000000004
   299   1      9.3500000000000014      69.190000000000012      52.360000000000007
   300   1      13.090000000000011      31.790000000000006      48.620000000000012
   301   1      13.090000000000011      31.790000000000006      52.360000000000007
   302   1      13.090000000000011      31.790000000000006      56.100000000000009
   303   1      13.090000000000011      35.530000000000008      41.140000000000008
   304   1      11.220000000000008      35.530000000000008      46.750000000000007
   305   1      13.090000000000011      33.660000000000011      46.750000000000007
   306   1      13.090000000000011      35.530000000000008       44.88000000000001
   307   1      11.220000000000008      35.530000000000008      50.490000000000002
   308   1      13.090000000000011      33.660000000000011      50.490000000000002
   309   1      13.090000000000011      35.530000000000008      48.620000000000012
   310   1      11.220000000000008      33.660000000000011      52.360000000000007
   311   1      11.220000000000008      35.530000000000008      54.230000000000004
   312   1      13.090000000000011      33.660000000000011      54.230000000000004
   313   1      13.090000000000011      35.530000000000008      52.360000000000007
   314   1      11.220000000000008      35.530000000000008      57.970000000000006
   315   1      13.090000000000011      33.660000000000011      57.970000000000006
   316   1      13.090000000000011      35.530000000000008      56.100000000000009
   317   1      13.090000000000011      35.530000000000008      59.840000000000011
   318   1      13.090000000000011      35.530000000000008      63.580000000000013
   319   1      11.220000000000008       39.27000000000001       39.27000000000001
   320   1      13.090000000000011      37.400000000000006       39.27000000000001
   321   1      13.090000000000011       39.27000000000001      37.400000000000006
   322   1      11.220000000000008       39.27000000000001      43.010000000000012
   323   1      13.090000000000011      37.400000000000006      43.010000000000012
   324   1      13.090000000000011       39.27000000000001      41.140000000000008
   325   1      11.220000000000008      37.400000000000006       44.88000000000001
   326   1      11.220000000000008       39.27000000000001      46.750000000000007
   327   1      13.090000000000011      37.400000000000006      46.750000000000007
   328   1      13.090000000000011       39.27000000000001       44.88000000000001
   329   1      11.220000000000008      37.400000000000006      48.620000000000012
   330   1      11.220000000000008       39.27000000000001      50.490000000000002
   331   1      13.090000000000011      37.400000000000006      50.490000000000002
   332   1      13.090000000000011       39.27000000000001      48.620000000000012
   333   1      11.220000000000008      37.400000000000006      52.360000000000007
   334   1      11.220000000000008       39.27000000000001      54.230000000000004
   335   1      13.090000000000011      37.400000000000006      54.230000000000004
   336   1      13.090000000000011       39.27000000000001      52.360000000000007
   337   1      11.220000000000008      37.400000000000006      56.100000000000009
   338   1      11.220000000000008       39.27000000000001      57.970000000000006
   339   1      13.090000000000011      37.400000000000006      57.970000000000006
   340   1      13.090000000000011       39.27000000000001      56.100000000000009
   341   1      11.220000000000008      37.400000000000006      59.840000000000011
   342   1      11.220000000000008       39.27000000000001      61.710000000000008
   343   1      13.090000000000011      37.400000000000006      61.710000000000008
   344   1      13.090000000000011       39.27000000000001      59.840000000000011
   345   1      11.220000000000008       39.27000000000001      65.450000000000017
   346   1      13.090000000000011      37.400000000000006      65.450000000000017
   347   1      13.090000000000011       39.27000000000001      63.580000000000013
   348   1      13.090000000000011       39.27000000000001      67.320000000000007
   349   1      13.090000000000011      41.140000000000008      35.530000000000008
   350   1      11.220000000000008      43.010000000000012       39.27000000000001
   351   1      13.090000000000011      41.140000000000008       39.27000000000001
   352   1      13.090000000000011      43.010000000000012      37.400000000000006
   353   1      11.220000000000008      41.140000000000008      41.140000000000008
   354   1      11.220000000000008      43.010000000000012      43.010000000000012
   355   1      13.090000000000011      41.140000000000008      43.010000000000012
   356   1      13.090000000000011      43.010000000000012      41.140000000000008
   357   1      11.220000000000008      41.140000000000008       44.88000000000001
   358   1      11.220000000000008      43.010000000000012      46.750000000000007