model_files/PtFe/PtFe_30000/PtFe_432/PtFe_432_fcc_29911_temp.data (written by ASE) 

29911 	 atoms 
2  atom types
0.0                     112  xlo xhi
0.0                     112  ylo yhi
0.0                     112  zlo zhi


Atoms 

     1   1      1.8799999999999955      54.519999999999989      56.399999999999984
     2   1      1.8799999999999955      56.399999999999984      54.519999999999989
     3   1      111.99999999999999      56.399999999999984      56.399999999999984
     4   1      1.8799999999999955      56.399999999999984      58.279999999999987
     5   1      1.8799999999999955      58.279999999999987      56.399999999999984
     6   1      5.6399999999999935      46.999999999999986      56.399999999999984
     7   1      3.7599999999999909      50.759999999999998      54.519999999999989
     8   1      5.6399999999999935      48.879999999999995      54.519999999999989
     9   1      5.6399999999999935      50.759999999999998      52.639999999999993
    10   1      3.7599999999999909      50.759999999999998      58.279999999999987
    11   1      5.6399999999999935      48.879999999999995      58.279999999999987
    12   1      5.6399999999999935      50.759999999999998      56.399999999999984
    13   1      5.6399999999999935      50.759999999999998      60.159999999999989
    14   1      3.7599999999999909      54.519999999999989      50.759999999999998
    15   1      5.6399999999999935      52.639999999999993      50.759999999999998
    16   1      5.6399999999999935      54.519999999999989      48.879999999999995
    17   1      3.7599999999999909      52.639999999999993      52.639999999999993
    18   1      3.7599999999999909      54.519999999999989      54.519999999999989
    19   1      5.6399999999999935      52.639999999999993      54.519999999999989
    20   1      5.6399999999999935      54.519999999999989      52.639999999999993
    21   1      3.7599999999999909      52.639999999999993      56.399999999999984
    22   1      3.7599999999999909      54.519999999999989      58.279999999999987
    23   1      5.6399999999999935      52.639999999999993      58.279999999999987
    24   1      5.6399999999999935      54.519999999999989      56.399999999999984
    25   1      3.7599999999999909      52.639999999999993      60.159999999999989
    26   1      3.7599999999999909      54.519999999999989      62.039999999999992
    27   1      5.6399999999999935      52.639999999999993      62.039999999999992
    28   1      5.6399999999999935      54.519999999999989      60.159999999999989
    29   1      5.6399999999999935      54.519999999999989      63.919999999999987
    30   1      5.6399999999999935      56.399999999999984      46.999999999999986
    31   1      3.7599999999999909      58.279999999999987      50.759999999999998
    32   1      5.6399999999999935      56.399999999999984      50.759999999999998
    33   1      5.6399999999999935      58.279999999999987      48.879999999999995
    34   1      3.7599999999999909      56.399999999999984      52.639999999999993
    35   1      3.7599999999999909      58.279999999999987      54.519999999999989
    36   1      5.6399999999999935      56.399999999999984      54.519999999999989
    37   1      5.6399999999999935      58.279999999999987      52.639999999999993
    38   1      3.7599999999999909      56.399999999999984      56.399999999999984
    39   1      3.7599999999999909      58.279999999999987      58.279999999999987
    40   1      5.6399999999999935      56.399999999999984      58.279999999999987
    41   1      5.6399999999999935      58.279999999999987      56.399999999999984
    42   1      3.7599999999999909      56.399999999999984      60.159999999999989
    43   1      3.7599999999999909      58.279999999999987      62.039999999999992
    44   1      5.6399999999999935      56.399999999999984      62.039999999999992
    45   1      5.6399999999999935      58.279999999999987      60.159999999999989
    46   1      5.6399999999999935      56.399999999999984      65.799999999999983
    47   1      5.6399999999999935      58.279999999999987      63.919999999999987
    48   1      5.6399999999999935      60.159999999999989      50.759999999999998
    49   1      3.7599999999999909      60.159999999999989      52.639999999999993
    50   1      3.7599999999999909      62.039999999999992      54.519999999999989
    51   1      5.6399999999999935      60.159999999999989      54.519999999999989
    52   1      5.6399999999999935      62.039999999999992      52.639999999999993
    53   1      3.7599999999999909      60.159999999999989      56.399999999999984
    54   1      3.7599999999999909      62.039999999999992      58.279999999999987
    55   1      5.6399999999999935      60.159999999999989      58.279999999999987
    56   1      5.6399999999999935      62.039999999999992      56.399999999999984
    57   1      3.7599999999999909      60.159999999999989      60.159999999999989
    58   1      5.6399999999999935      60.159999999999989      62.039999999999992
    59   1      5.6399999999999935      62.039999999999992      60.159999999999989
    60   1      5.6399999999999935      63.919999999999987      54.519999999999989
    61   1      5.6399999999999935      63.919999999999987      58.279999999999987
    62   1      5.6399999999999935      65.799999999999983      56.399999999999984
    63   1      9.3999999999999915      43.239999999999995      56.399999999999984
    64   1      9.3999999999999915      46.999999999999986      48.879999999999995
    65   1      7.5199999999999951      46.999999999999986      54.519999999999989
    66   1      9.3999999999999915       45.11999999999999      54.519999999999989
    67   1      9.3999999999999915      46.999999999999986      52.639999999999993
    68   1      7.5199999999999951       45.11999999999999      56.399999999999984
    69   1      7.5199999999999951      46.999999999999986      58.279999999999987
    70   1      9.3999999999999915       45.11999999999999      58.279999999999987
    71   1      9.3999999999999915      46.999999999999986      56.399999999999984
    72   1      9.3999999999999915      46.999999999999986      60.159999999999989
    73   1      9.3999999999999915      46.999999999999986      63.919999999999987
    74   1      9.3999999999999915      48.879999999999995      46.999999999999986
    75   1      7.5199999999999951      50.759999999999998      50.759999999999998
    76   1      9.3999999999999915      48.879999999999995      50.759999999999998
    77   1      9.3999999999999915      50.759999999999998      48.879999999999995
    78   1      7.5199999999999951      48.879999999999995      52.639999999999993
    79   1      7.5199999999999951      50.759999999999998      54.519999999999989
    80   1      9.3999999999999915      48.879999999999995      54.519999999999989
    81   1      9.3999999999999915      50.759999999999998      52.639999999999993
    82   1      7.5199999999999951      48.879999999999995      56.399999999999984
    83   1      7.5199999999999951      50.759999999999998      58.279999999999987
    84   1      9.3999999999999915      48.879999999999995      58.279999999999987
    85   1      9.3999999999999915      50.759999999999998      56.399999999999984
    86   1      7.5199999999999951      48.879999999999995      60.159999999999989
    87   1      7.5199999999999951      50.759999999999998      62.039999999999992
    88   1      9.3999999999999915      48.879999999999995      62.039999999999992
    89   1      9.3999999999999915      50.759999999999998      60.159999999999989
    90   1      9.3999999999999915      48.879999999999995      65.799999999999983
    91   1      9.3999999999999915      50.759999999999998      63.919999999999987
    92   1      7.5199999999999951      54.519999999999989      46.999999999999986
    93   1      9.3999999999999915      52.639999999999993      46.999999999999986
    94   1      9.3999999999999915      54.519999999999989       45.11999999999999
    95   1      7.5199999999999951      52.639999999999993      48.879999999999995
    96   1      7.5199999999999951      54.519999999999989      50.759999999999998
    97   1      9.3999999999999915      52.639999999999993      50.759999999999998
    98   1      9.3999999999999915      54.519999999999989      48.879999999999995
    99   1      7.5199999999999951      52.639999999999993      52.639999999999993
   100   1      7.5199999999999951      54.519999999999989      54.519999999999989
   101   1      9.3999999999999915      52.639999999999993      54.519999999999989
   102   1      9.3999999999999915      54.519999999999989      52.639999999999993
   103   1      7.5199999999999951      52.639999999999993      56.399999999999984
   104   1      7.5199999999999951      54.519999999999989      58.279999999999987
   105   1      9.3999999999999915      52.639999999999993      58.279999999999987
   106   1      9.3999999999999915      54.519999999999989      56.399999999999984
   107   1      7.5199999999999951      52.639999999999993      60.159999999999989
   108   1      7.5199999999999951      54.519999999999989      62.039999999999992
   109   1      9.3999999999999915      52.639999999999993      62.039999999999992
   110   1      9.3999999999999915      54.519999999999989      60.159999999999989
   111   1      7.5199999999999951      52.639999999999993      63.919999999999987
   112   1      7.5199999999999951      54.519999999999989      65.799999999999983
   113   1      9.3999999999999915      52.639999999999993      65.799999999999983
   114   1      9.3999999999999915      54.519999999999989      63.919999999999987
   115   1      9.3999999999999915      54.519999999999989      67.679999999999993
   116   1      9.3999999999999915      56.399999999999984      43.239999999999995
   117   1      7.5199999999999951      56.399999999999984       45.11999999999999
   118   1      7.5199999999999951      58.279999999999987      46.999999999999986
   119   1      9.3999999999999915      56.399999999999984      46.999999999999986
   120   1      9.3999999999999915      58.279999999999987       45.11999999999999
   121   1      7.5199999999999951      56.399999999999984      48.879999999999995
   122   1      7.5199999999999951      58.279999999999987      50.759999999999998
   123   1      9.3999999999999915      56.399999999999984      50.759999999999998
   124   1      9.3999999999999915      58.279999999999987      48.879999999999995
   125   1      7.5199999999999951      56.399999999999984      52.639999999999993
   126   1      7.5199999999999951      58.279999999999987      54.519999999999989
   127   1      9.3999999999999915      56.399999999999984      54.519999999999989
   128   1      9.3999999999999915      58.279999999999987      52.639999999999993
   129   1      7.5199999999999951      56.399999999999984      56.399999999999984
   130   1      7.5199999999999951      58.279999999999987      58.279999999999987
   131   1      9.3999999999999915      56.399999999999984      58.279999999999987
   132   1      9.3999999999999915      58.279999999999987      56.399999999999984
   133   1      7.5199999999999951      56.399999999999984      60.159999999999989
   134   1      7.5199999999999951      58.279999999999987      62.039999999999992
   135   1      9.3999999999999915      56.399999999999984      62.039999999999992
   136   1      9.3999999999999915      58.279999999999987      60.159999999999989
   137   1      7.5199999999999951      56.399999999999984      63.919999999999987
   138   1      7.5199999999999951      58.279999999999987      65.799999999999983
   139   1      9.3999999999999915      56.399999999999984      65.799999999999983
   140   1      9.3999999999999915      58.279999999999987      63.919999999999987
   141   1      7.5199999999999951      56.399999999999984      67.679999999999993
   142   1      9.3999999999999915      56.399999999999984      69.559999999999974
   143   1      9.3999999999999915      58.279999999999987      67.679999999999993
   144   1      9.3999999999999915      60.159999999999989      46.999999999999986
   145   1      7.5199999999999951      60.159999999999989      48.879999999999995
   146   1      7.5199999999999951      62.039999999999992      50.759999999999998
   147   1      9.3999999999999915      60.159999999999989      50.759999999999998
   148   1      9.3999999999999915      62.039999999999992      48.879999999999995
   149   1      7.5199999999999951      60.159999999999989      52.639999999999993
   150   1      7.5199999999999951      62.039999999999992      54.519999999999989
   151   1      9.3999999999999915      60.159999999999989      54.519999999999989
   152   1      9.3999999999999915      62.039999999999992      52.639999999999993
   153   1      7.5199999999999951      60.159999999999989      56.399999999999984
   154   1      7.5199999999999951      62.039999999999992      58.279999999999987
   155   1      9.3999999999999915      60.159999999999989      58.279999999999987
   156   1      9.3999999999999915      62.039999999999992      56.399999999999984
   157   1      7.5199999999999951      60.159999999999989      60.159999999999989
   158   1      7.5199999999999951      62.039999999999992      62.039999999999992
   159   1      9.3999999999999915      60.159999999999989      62.039999999999992
   160   1      9.3999999999999915      62.039999999999992      60.159999999999989
   161   1      7.5199999999999951      60.159999999999989      63.919999999999987
   162   1      9.3999999999999915      60.159999999999989      65.799999999999983
   163   1      9.3999999999999915      62.039999999999992      63.919999999999987
   164   1      9.3999999999999915      63.919999999999987      46.999999999999986
   165   1      9.3999999999999915      63.919999999999987      50.759999999999998
   166   1      9.3999999999999915      65.799999999999983      48.879999999999995
   167   1      7.5199999999999951      63.919999999999987      52.639999999999993
   168   1      7.5199999999999951      65.799999999999983      54.519999999999989
   169   1      9.3999999999999915      63.919999999999987      54.519999999999989
   170   1      9.3999999999999915      65.799999999999983      52.639999999999993
   171   1      7.5199999999999951      63.919999999999987      56.399999999999984
   172   1      7.5199999999999951      65.799999999999983      58.279999999999987
   173   1      9.3999999999999915      63.919999999999987      58.279999999999987
   174   1      9.3999999999999915      65.799999999999983      56.399999999999984
   175   1      7.5199999999999951      63.919999999999987      60.159999999999989
   176   1      9.3999999999999915      63.919999999999987      62.039999999999992
   177   1      9.3999999999999915      65.799999999999983      60.159999999999989
   178   1      9.3999999999999915      63.919999999999987      65.799999999999983
   179   1      9.3999999999999915      65.799999999999983      63.919999999999987
   180   1      9.3999999999999915      67.679999999999993      54.519999999999989
   181   1      7.5199999999999951      67.679999999999993      56.399999999999984
   182   1      9.3999999999999915      67.679999999999993      58.279999999999987
   183   1      9.3999999999999915      69.559999999999974      56.399999999999984
   184   1      13.159999999999997      39.479999999999997      52.639999999999993
   185   1      13.159999999999997      39.479999999999997      56.399999999999984
   186   1      13.159999999999997      39.479999999999997      60.159999999999989
   187   1      11.279999999999994      43.239999999999995      50.759999999999998
   188   1      13.159999999999997      41.359999999999992      50.759999999999998
   189   1      13.159999999999997      43.239999999999995      48.879999999999995
   190   1      11.279999999999994      43.239999999999995      54.519999999999989
   191   1      13.159999999999997      41.359999999999992      54.519999999999989
   192   1      13.159999999999997      43.239999999999995      52.639999999999993
   193   1      11.279999999999994      41.359999999999992      56.399999999999984
   194   1      11.279999999999994      43.239999999999995      58.279999999999987
   195   1      13.159999999999997      41.359999999999992      58.279999999999987
   196   1      13.159999999999997      43.239999999999995      56.399999999999984
   197   1      11.279999999999994      43.239999999999995      62.039999999999992
   198   1      13.159999999999997      41.359999999999992      62.039999999999992
   199   1      13.159999999999997      43.239999999999995      60.159999999999989
   200   1      13.159999999999997      43.239999999999995      63.919999999999987
   201   1      11.279999999999994      46.999999999999986      46.999999999999986
   202   1      13.159999999999997       45.11999999999999      46.999999999999986
   203   1      13.159999999999997      46.999999999999986       45.11999999999999
   204   1      11.279999999999994       45.11999999999999      48.879999999999995
   205   1      11.279999999999994      46.999999999999986      50.759999999999998
   206   1      13.159999999999997       45.11999999999999      50.759999999999998
   207   1      13.159999999999997      46.999999999999986      48.879999999999995
   208   1      11.279999999999994       45.11999999999999      52.639999999999993
   209   1      11.279999999999994      46.999999999999986      54.519999999999989
   210   1      13.159999999999997       45.11999999999999      54.519999999999989
   211   1      13.159999999999997      46.999999999999986      52.639999999999993
   212   1      11.279999999999994       45.11999999999999      56.399999999999984
   213   1      11.279999999999994      46.999999999999986      58.279999999999987
   214   1      13.159999999999997       45.11999999999999      58.279999999999987
   215   1      13.159999999999997      46.999999999999986      56.399999999999984
   216   1      11.279999999999994       45.11999999999999      60.159999999999989
   217   1      11.279999999999994      46.999999999999986      62.039999999999992
   218   1      13.159999999999997       45.11999999999999      62.039999999999992
   219   1      13.159999999999997      46.999999999999986      60.159999999999989
   220   1      11.279999999999994       45.11999999999999      63.919999999999987
   221   1      11.279999999999994      46.999999999999986      65.799999999999983
   222   1      13.159999999999997       45.11999999999999      65.799999999999983
   223   1      13.159999999999997      46.999999999999986      63.919999999999987
   224   1      13.159999999999997      46.999999999999986      67.679999999999993
   225   1      11.279999999999994      50.759999999999998      43.239999999999995
   226   1      13.159999999999997      48.879999999999995      43.239999999999995
   227   1      13.159999999999997      50.759999999999998      41.359999999999992
   228   1      11.279999999999994      48.879999999999995       45.11999999999999
   229   1      11.279999999999994      50.759999999999998      46.999999999999986
   230   1      13.159999999999997      48.879999999999995      46.999999999999986
   231   1      13.159999999999997      50.759999999999998       45.11999999999999
   232   1      11.279999999999994      48.879999999999995      48.879999999999995
   233   1      11.279999999999994      50.759999999999998      50.759999999999998
   234   1      13.159999999999997      48.879999999999995      50.759999999999998
   235   1      13.159999999999997      50.759999999999998      48.879999999999995
   236   1      11.279999999999994      48.879999999999995      52.639999999999993
   237   1      11.279999999999994      50.759999999999998      54.519999999999989
   238   1      13.159999999999997      48.879999999999995      54.519999999999989
   239   1      13.159999999999997      50.759999999999998      52.639999999999993
   240   1      11.279999999999994      48.879999999999995      56.399999999999984
   241   1      11.279999999999994      50.759999999999998      58.279999999999987
   242   1      13.159999999999997      48.879999999999995      58.279999999999987
   243   1      13.159999999999997      50.759999999999998      56.399999999999984
   244   1      11.279999999999994      48.879999999999995      60.159999999999989
   245   1      11.279999999999994      50.759999999999998      62.039999999999992
   246   1      13.159999999999997      48.879999999999995      62.039999999999992
   247   1      13.159999999999997      50.759999999999998      60.159999999999989
   248   1      11.279999999999994      48.879999999999995      63.919999999999987
   249   1      11.279999999999994      50.759999999999998      65.799999999999983
   250   1      13.159999999999997      48.879999999999995      65.799999999999983
   251   1      13.159999999999997      50.759999999999998      63.919999999999987
   252   1      11.279999999999994      48.879999999999995      67.679999999999993
   253   1      11.279999999999994      50.759999999999998      69.559999999999974
   254   1      13.159999999999997      48.879999999999995      69.559999999999974
   255   1      13.159999999999997      50.759999999999998      67.679999999999993
   256   1      13.159999999999997      50.759999999999998      71.439999999999984
   257   1      13.159999999999997      52.639999999999993      39.479999999999997
   258   1      11.279999999999994      54.519999999999989      43.239999999999995
   259   1      13.159999999999997      52.639999999999993      43.239999999999995
   260   1      13.159999999999997      54.519999999999989      41.359999999999992
   261   1      11.279999999999994      52.639999999999993       45.11999999999999
   262   1      11.279999999999994      54.519999999999989      46.999999999999986
   263   1      13.159999999999997      52.639999999999993      46.999999999999986
   264   1      13.159999999999997      54.519999999999989       45.11999999999999
   265   1      11.279999999999994      52.639999999999993      48.879999999999995
   266   1      11.279999999999994      54.519999999999989      50.759999999999998
   267   1      13.159999999999997      52.639999999999993      50.759999999999998
   268   1      13.159999999999997      54.519999999999989      48.879999999999995
   269   1      11.279999999999994      52.639999999999993      52.639999999999993
   270   1      11.279999999999994      54.519999999999989      54.519999999999989
   271   1      13.159999999999997      52.639999999999993      54.519999999999989
   272   1      13.159999999999997      54.519999999999989      52.639999999999993
   273   1      11.279999999999994      52.639999999999993      56.399999999999984
   274   1      11.279999999999994      54.519999999999989      58.279999999999987
   275   1      13.159999999999997      52.639999999999993      58.279999999999987
   276   1      13.159999999999997      54.519999999999989      56.399999999999984
   277   1      11.279999999999994      52.639999999999993      60.159999999999989
   278   1      11.279999999999994      54.519999999999989      62.039999999999992
   279   1      13.159999999999997      52.639999999999993      62.039999999999992
   280   1      13.159999999999997      54.519999999999989      60.159999999999989
   281   1      11.279999999999994      52.639999999999993      63.919999999999987
   282   1      11.279999999999994      54.519999999999989      65.799999999999983
   283   1      13.159999999999997      52.639999999999993      65.799999999999983
   284   1      13.159999999999997      54.519999999999989      63.919999999999987
   285   1      11.279999999999994      52.639999999999993      67.679999999999993
   286   1      11.279999999999994      54.519999999999989      69.559999999999974
   287   1      13.159999999999997      52.639999999999993      69.559999999999974
   288   1      13.159999999999997      54.519999999999989      67.679999999999993
   289   1      13.159999999999997      52.639999999999993      73.319999999999979
   290   1      13.159999999999997      54.519999999999989      71.439999999999984
   291   1      13.159999999999997      56.399999999999984      39.479999999999997
   292   1      11.279999999999994      56.399999999999984      41.359999999999992
   293   1      11.279999999999994      58.279999999999987      43.239999999999995
   294   1      13.159999999999997      56.399999999999984      43.239999999999995
   295   1      13.159999999999997      58.279999999999987      41.359999999999992
   296   1      11.279999999999994      56.399999999999984       45.11999999999999
   297   1      11.279999999999994      58.279999999999987      46.999999999999986
   298   1      13.159999999999997      56.399999999999984      46.999999999999986
   299   1      13.159999999999997      58.279999999999987       45.11999999999999
   300   1      11.279999999999994      56.399999999999984      48.879999999999995
   301   1      11.279999999999994      58.279999999999987      50.759999999999998
   302   1      13.159999999999997      56.399999999999984      50.759999999999998
   303   1      13.159999999999997      58.279999999999987      48.879999999999995
   304   1      11.279999999999994      56.399999999999984      52.639999999999993
   305   1      11.279999999999994      58.279999999999987      54.519999999999989
   306   1      13.159999999999997      56.399999999999984      54.519999999999989
   307   1      13.159999999999997      58.279999999999987      52.639999999999993
   308   1      11.279999999999994      56.399999999999984      56.399999999999984
   309   1      11.279999999999994      58.279999999999987      58.279999999999987
   310   1      13.159999999999997      56.399999999999984      58.279999999999987
   311   1      13.159999999999997      58.279999999999987      56.399999999999984
   312   1      11.279999999999994      56.399999999999984      60.159999999999989
   313   1      11.279999999999994      58.279999999999987      62.039999999999992
   314   1      13.159999999999997      56.399999999999984      62.039999999999992
   315   1      13.159999999999997      58.279999999999987      60.159999999999989
   316   1      11.279999999999994      56.399999999999984      63.919999999999987
   317   1      11.279999999999994      58.279999999999987      65.799999999999983
   318   1      13.159999999999997      56.399999999999984      65.799999999999983
   319   1      13.159999999999997      58.279999999999987      63.919999999999987
   320   1      11.279999999999994      56.399999999999984      67.679999999999993
   321   1      11.279999999999994      58.279999999999987      69.559999999999974
   322   1      13.159999999999997      56.399999999999984      69.559999999999974
   323   1      13.159999999999997      58.279999999999987      67.679999999999993
   324   1      11.279999999999994      56.399999999999984      71.439999999999984
   325   1      13.159999999999997      56.399999999999984      73.319999999999979
   326   1      13.159999999999997      58.279999999999987      71.439999999999984
   327   1      13.159999999999997      60.159999999999989      39.479999999999997
   328   1      11.279999999999994      62.039999999999992      43.239999999999995
   329   1      13.159999999999997      60.159999999999989      43.239999999999995
   330   1      13.159999999999997      62.039999999999992      41.359999999999992
   331   1      11.279999999999994      60.159999999999989       45.11999999999999
   332   1      11.279999999999994      62.039999999999992      46.999999999999986
   333   1      13.159999999999997      60.159999999999989      46.999999999999986
   334   1      13.159999999999997      62.039999999999992       45.11999999999999
   335   1      11.279999999999994      60.159999999999989      48.879999999999995
   336   1      11.279999999999994      62.039999999999992      50.759999999999998
   337   1      13.159999999999997      60.159999999999989      50.759999999999998
   338   1      13.159999999999997      62.039999999999992      48.879999999999995
   339   1      11.279999999999994      60.159999999999989      52.639999999999993
   340   1      11.279999999999994      62.039999999999992      54.519999999999989
   341   1      13.159999999999997      60.159999999999989      54.519999999999989
   342   1      13.159999999999997      62.039999999999992      52.639999999999993
   343   1      11.279999999999994      60.159999999999989      56.399999999999984
   344   1      11.279999999999994      62.039999999999992      58.279999999999987
   345   1      13.159999999999997      60.159999999999989      58.279999999999987
   346   1      13.159999999999997      62.039999999999992      56.399999999999984
   347   1      11.279999999999994      60.159999999999989      60.159999999999989
   348   1      11.279999999999994      62.039999999999992      62.039999999999992
   349   1      13.159999999999997      60.159999999999989      62.039999999999992
   350   1      13.159999999999997      62.039999999999992      60.159999999999989
   351   1      11.279999999999994      60.159999999999989      63.919999999999987
   352   1      11.279999999999994      62.039999999999992      65.799999999999983
   353   1      13.159999999999997      60.159999999999989      65.799999999999983
   354   1      13.159999999999997      62.039999999999992      63.919999999999987
   355   1      11.279999999999994      60.159999999999989      67.679999999999993
   356   1      11.279999999999994      62.039999999999992      69.559999999999974
   357   1      13.159999999999997      60.159999999999989      69.559999999999974
   358   1      13.159999999999997      62.039999999999992      67.679999999999993