model_files/CuFeNi/CuFeNi_30000/CuFeNi_310/CuFeNi_310_fcc_30527_temp.data (written by ASE) 

30527 	 atoms 
3  atom types
0.0                      89  xlo xhi
0.0                      89  ylo yhi
0.0                      89  zlo zhi


Atoms 

     1   1  7.1054273576010019e-15      39.899999999999999      41.799999999999997
     2   1  7.1054273576010019e-15      41.799999999999997      39.899999999999999
     3   1  7.1054273576010019e-15      39.899999999999999      45.599999999999994
     4   1  7.1054273576010019e-15      41.799999999999997      43.700000000000003
     5   1  7.1054273576010019e-15      41.799999999999997                    47.5
     6   1  7.1054273576010019e-15      43.700000000000003      41.799999999999997
     7   1  7.1054273576010019e-15      45.599999999999994      39.899999999999999
     8   1  7.1054273576010019e-15      43.700000000000003      45.599999999999994
     9   1  7.1054273576010019e-15      45.599999999999994      43.700000000000003
    10   1  7.1054273576010019e-15      45.599999999999994                    47.5
    11   1  7.1054273576010019e-15                    47.5      41.799999999999997
    12   1  7.1054273576010019e-15                    47.5      45.599999999999994
    13   1      3.8000000000000114                    28.5      30.400000000000006
    14   1      3.8000000000000114      30.400000000000006                    28.5
    15   1      3.8000000000000114                    28.5      34.200000000000003
    16   1      3.8000000000000114      30.400000000000006      32.300000000000004
    17   1      3.8000000000000114                    28.5                      38
    18   1      3.8000000000000114      30.400000000000006      36.100000000000001
    19   1      3.8000000000000114                    28.5      41.799999999999997
    20   1      3.8000000000000114      30.400000000000006      39.899999999999999
    21   1      3.8000000000000114                    28.5      45.599999999999994
    22   1      3.8000000000000114      30.400000000000006      43.700000000000003
    23   1      3.8000000000000114                    28.5      49.399999999999999
    24   1      3.8000000000000114      30.400000000000006                    47.5
    25   1      3.8000000000000114                    28.5      53.199999999999989
    26   1      3.8000000000000114      30.400000000000006      51.299999999999997
    27   1      3.8000000000000114                    28.5                      57
    28   1      3.8000000000000114      30.400000000000006      55.100000000000001
    29   1      3.8000000000000114      30.400000000000006      58.899999999999999
    30   1      3.8000000000000114      32.300000000000004      30.400000000000006
    31   1      3.8000000000000114      34.200000000000003                    28.5
    32   1      1.9000000000000057      34.200000000000003      34.200000000000003
    33   1      3.8000000000000114      32.300000000000004      34.200000000000003
    34   1      3.8000000000000114      34.200000000000003      32.300000000000004
    35   1      1.9000000000000057      34.200000000000003                      38
    36   1      3.8000000000000114      32.300000000000004                      38
    37   1      3.8000000000000114      34.200000000000003      36.100000000000001
    38   1      1.9000000000000057      34.200000000000003      41.799999999999997
    39   1      3.8000000000000114      32.300000000000004      41.799999999999997
    40   1      3.8000000000000114      34.200000000000003      39.899999999999999
    41   1      1.9000000000000057      34.200000000000003      45.599999999999994
    42   1      3.8000000000000114      32.300000000000004      45.599999999999994
    43   1      3.8000000000000114      34.200000000000003      43.700000000000003
    44   1      1.9000000000000057      34.200000000000003      49.399999999999999
    45   1      3.8000000000000114      32.300000000000004      49.399999999999999
    46   1      3.8000000000000114      34.200000000000003                    47.5
    47   1      1.9000000000000057      34.200000000000003      53.199999999999989
    48   1      3.8000000000000114      32.300000000000004      53.199999999999989
    49   1      3.8000000000000114      34.200000000000003      51.299999999999997
    50   1      3.8000000000000114      32.300000000000004                      57
    51   1      3.8000000000000114      34.200000000000003      55.100000000000001
    52   1      3.8000000000000114      34.200000000000003      58.899999999999999
    53   1      3.8000000000000114      36.100000000000001      30.400000000000006
    54   1      3.8000000000000114                      38                    28.5
    55   1      1.9000000000000057                      38      34.200000000000003
    56   1      3.8000000000000114      36.100000000000001      34.200000000000003
    57   1      3.8000000000000114                      38      32.300000000000004
    58   1      1.9000000000000057      36.100000000000001      36.100000000000001
    59   1      1.9000000000000057                      38                      38
    60   1      3.8000000000000114      36.100000000000001                      38
    61   1      3.8000000000000114                      38      36.100000000000001
    62   1      1.9000000000000057      36.100000000000001      39.899999999999999
    63   1      1.9000000000000057                      38      41.799999999999997
    64   1      3.8000000000000114      36.100000000000001      41.799999999999997
    65   1      3.8000000000000114                      38      39.899999999999999
    66   1      1.9000000000000057      36.100000000000001      43.700000000000003
    67   1      1.9000000000000057                      38      45.599999999999994
    68   1      3.8000000000000114      36.100000000000001      45.599999999999994
    69   1      3.8000000000000114                      38      43.700000000000003
    70   1      1.9000000000000057      36.100000000000001                    47.5
    71   1      1.9000000000000057                      38      49.399999999999999
    72   1      3.8000000000000114      36.100000000000001      49.399999999999999
    73   1      3.8000000000000114                      38                    47.5
    74   1      1.9000000000000057      36.100000000000001      51.299999999999997
    75   1      1.9000000000000057                      38      53.199999999999989
    76   1      3.8000000000000114      36.100000000000001      53.199999999999989
    77   1      3.8000000000000114                      38      51.299999999999997
    78   1      3.8000000000000114      36.100000000000001                      57
    79   1      3.8000000000000114                      38      55.100000000000001
    80   1      3.8000000000000114                      38      58.899999999999999
    81   1      3.8000000000000114      39.899999999999999      30.400000000000006
    82   1      3.8000000000000114      41.799999999999997                    28.5
    83   1      1.9000000000000057      41.799999999999997      34.200000000000003
    84   1      3.8000000000000114      39.899999999999999      34.200000000000003
    85   1      3.8000000000000114      41.799999999999997      32.300000000000004
    86   1      1.9000000000000057      39.899999999999999      36.100000000000001
    87   1      1.9000000000000057      41.799999999999997                      38
    88   1      3.8000000000000114      39.899999999999999                      38
    89   1      3.8000000000000114      41.799999999999997      36.100000000000001
    90   1      1.9000000000000057      39.899999999999999      39.899999999999999
    91   1      1.9000000000000057      41.799999999999997      41.799999999999997
    92   1      3.8000000000000114      39.899999999999999      41.799999999999997
    93   1      3.8000000000000114      41.799999999999997      39.899999999999999
    94   1      1.9000000000000057      39.899999999999999      43.700000000000003
    95   1      1.9000000000000057      41.799999999999997      45.599999999999994
    96   1      3.8000000000000114      39.899999999999999      45.599999999999994
    97   1      3.8000000000000114      41.799999999999997      43.700000000000003
    98   1      1.9000000000000057      39.899999999999999                    47.5
    99   1      1.9000000000000057      41.799999999999997      49.399999999999999
   100   1      3.8000000000000114      39.899999999999999      49.399999999999999
   101   1      3.8000000000000114      41.799999999999997                    47.5
   102   1      1.9000000000000057      39.899999999999999      51.299999999999997
   103   1      1.9000000000000057      41.799999999999997      53.199999999999989
   104   1      3.8000000000000114      39.899999999999999      53.199999999999989
   105   1      3.8000000000000114      41.799999999999997      51.299999999999997
   106   1      3.8000000000000114      39.899999999999999                      57
   107   1      3.8000000000000114      41.799999999999997      55.100000000000001
   108   1      3.8000000000000114      41.799999999999997      58.899999999999999
   109   1      3.8000000000000114      43.700000000000003      30.400000000000006
   110   1      3.8000000000000114      45.599999999999994                    28.5
   111   1      1.9000000000000057      45.599999999999994      34.200000000000003
   112   1      3.8000000000000114      43.700000000000003      34.200000000000003
   113   1      3.8000000000000114      45.599999999999994      32.300000000000004
   114   1      1.9000000000000057      43.700000000000003      36.100000000000001
   115   1      1.9000000000000057      45.599999999999994                      38
   116   1      3.8000000000000114      43.700000000000003                      38
   117   1      3.8000000000000114      45.599999999999994      36.100000000000001
   118   1      1.9000000000000057      43.700000000000003      39.899999999999999
   119   1      1.9000000000000057      45.599999999999994      41.799999999999997
   120   1      3.8000000000000114      43.700000000000003      41.799999999999997
   121   1      3.8000000000000114      45.599999999999994      39.899999999999999
   122   1      1.9000000000000057      43.700000000000003      43.700000000000003
   123   1      1.9000000000000057      45.599999999999994      45.599999999999994
   124   1      3.8000000000000114      43.700000000000003      45.599999999999994
   125   1      3.8000000000000114      45.599999999999994      43.700000000000003
   126   1      1.9000000000000057      43.700000000000003                    47.5
   127   1      1.9000000000000057      45.599999999999994      49.399999999999999
   128   1      3.8000000000000114      43.700000000000003      49.399999999999999
   129   1      3.8000000000000114      45.599999999999994                    47.5
   130   1      1.9000000000000057      43.700000000000003      51.299999999999997
   131   1      1.9000000000000057      45.599999999999994      53.199999999999989
   132   1      3.8000000000000114      43.700000000000003      53.199999999999989
   133   1      3.8000000000000114      45.599999999999994      51.299999999999997
   134   1      3.8000000000000114      43.700000000000003                      57
   135   1      3.8000000000000114      45.599999999999994      55.100000000000001
   136   1      3.8000000000000114      45.599999999999994      58.899999999999999
   137   1      3.8000000000000114                    47.5      30.400000000000006
   138   1      3.8000000000000114      49.399999999999999                    28.5
   139   1      1.9000000000000057      49.399999999999999      34.200000000000003
   140   1      3.8000000000000114                    47.5      34.200000000000003
   141   1      3.8000000000000114      49.399999999999999      32.300000000000004
   142   1      1.9000000000000057                    47.5      36.100000000000001
   143   1      1.9000000000000057      49.399999999999999                      38
   144   1      3.8000000000000114                    47.5                      38
   145   1      3.8000000000000114      49.399999999999999      36.100000000000001
   146   1      1.9000000000000057                    47.5      39.899999999999999
   147   1      1.9000000000000057      49.399999999999999      41.799999999999997
   148   1      3.8000000000000114                    47.5      41.799999999999997
   149   1      3.8000000000000114      49.399999999999999      39.899999999999999
   150   1      1.9000000000000057                    47.5      43.700000000000003
   151   1      1.9000000000000057      49.399999999999999      45.599999999999994
   152   1      3.8000000000000114                    47.5      45.599999999999994
   153   1      3.8000000000000114      49.399999999999999      43.700000000000003
   154   1      1.9000000000000057                    47.5                    47.5
   155   1      1.9000000000000057      49.399999999999999      49.399999999999999
   156   1      3.8000000000000114                    47.5      49.399999999999999
   157   1      3.8000000000000114      49.399999999999999                    47.5
   158   1      1.9000000000000057                    47.5      51.299999999999997
   159   1      1.9000000000000057      49.399999999999999      53.199999999999989
   160   1      3.8000000000000114                    47.5      53.199999999999989
   161   1      3.8000000000000114      49.399999999999999      51.299999999999997
   162   1      3.8000000000000114                    47.5                      57
   163   1      3.8000000000000114      49.399999999999999      55.100000000000001
   164   1      3.8000000000000114      49.399999999999999      58.899999999999999
   165   1      3.8000000000000114      51.299999999999997      30.400000000000006
   166   1      3.8000000000000114      53.199999999999989                    28.5
   167   1      1.9000000000000057      53.199999999999989      34.200000000000003
   168   1      3.8000000000000114      51.299999999999997      34.200000000000003
   169   1      3.8000000000000114      53.199999999999989      32.300000000000004
   170   1      1.9000000000000057      51.299999999999997      36.100000000000001
   171   1      1.9000000000000057      53.199999999999989                      38
   172   1      3.8000000000000114      51.299999999999997                      38
   173   1      3.8000000000000114      53.199999999999989      36.100000000000001
   174   1      1.9000000000000057      51.299999999999997      39.899999999999999
   175   1      1.9000000000000057      53.199999999999989      41.799999999999997
   176   1      3.8000000000000114      51.299999999999997      41.799999999999997
   177   1      3.8000000000000114      53.199999999999989      39.899999999999999
   178   1      1.9000000000000057      51.299999999999997      43.700000000000003
   179   1      1.9000000000000057      53.199999999999989      45.599999999999994
   180   1      3.8000000000000114      51.299999999999997      45.599999999999994
   181   1      3.8000000000000114      53.199999999999989      43.700000000000003
   182   1      1.9000000000000057      51.299999999999997                    47.5
   183   1      1.9000000000000057      53.199999999999989      49.399999999999999
   184   1      3.8000000000000114      51.299999999999997      49.399999999999999
   185   1      3.8000000000000114      53.199999999999989                    47.5
   186   1      1.9000000000000057      51.299999999999997      51.299999999999997
   187   1      1.9000000000000057      53.199999999999989      53.199999999999989
   188   1      3.8000000000000114      51.299999999999997      53.199999999999989
   189   1      3.8000000000000114      53.199999999999989      51.299999999999997
   190   1      3.8000000000000114      51.299999999999997                      57
   191   1      3.8000000000000114      53.199999999999989      55.100000000000001
   192   1      3.8000000000000114      53.199999999999989      58.899999999999999
   193   1      3.8000000000000114      55.100000000000001      30.400000000000006
   194   1      3.8000000000000114                      57                    28.5
   195   1      3.8000000000000114      55.100000000000001      34.200000000000003
   196   1      3.8000000000000114                      57      32.300000000000004
   197   1      3.8000000000000114      55.100000000000001                      38
   198   1      3.8000000000000114                      57      36.100000000000001
   199   1      3.8000000000000114      55.100000000000001      41.799999999999997
   200   1      3.8000000000000114                      57      39.899999999999999
   201   1      3.8000000000000114      55.100000000000001      45.599999999999994
   202   1      3.8000000000000114                      57      43.700000000000003
   203   1      3.8000000000000114      55.100000000000001      49.399999999999999
   204   1      3.8000000000000114                      57                    47.5
   205   1      3.8000000000000114      55.100000000000001      53.199999999999989
   206   1      3.8000000000000114                      57      51.299999999999997
   207   1      3.8000000000000114      55.100000000000001                      57
   208   1      3.8000000000000114                      57      55.100000000000001
   209   1      3.8000000000000114                      57      58.899999999999999
   210   1      3.8000000000000114      58.899999999999999      30.400000000000006
   211   1      3.8000000000000114      58.899999999999999      34.200000000000003
   212   1      3.8000000000000114      58.899999999999999                      38
   213   1      3.8000000000000114      58.899999999999999      41.799999999999997
   214   1      3.8000000000000114      58.899999999999999      45.599999999999994
   215   1      3.8000000000000114      58.899999999999999      49.399999999999999
   216   1      3.8000000000000114      58.899999999999999      53.199999999999989
   217   1      3.8000000000000114      58.899999999999999                      57
   218   1      7.6000000000000085      17.100000000000005      19.000000000000004
   219   1      7.6000000000000085      19.000000000000004      17.100000000000005
   220   1      7.6000000000000085      17.100000000000005      22.800000000000004
   221   1      7.6000000000000085      19.000000000000004      20.900000000000006
   222   1      7.6000000000000085      17.100000000000005      26.600000000000001
   223   1      7.6000000000000085      19.000000000000004      24.700000000000003
   224   1      7.6000000000000085      17.100000000000005      30.400000000000006
   225   1      7.6000000000000085      19.000000000000004                    28.5
   226   1      7.6000000000000085      17.100000000000005      34.200000000000003
   227   1      7.6000000000000085      19.000000000000004      32.300000000000004
   228   1      7.6000000000000085      17.100000000000005                      38
   229   1      7.6000000000000085      19.000000000000004      36.100000000000001
   230   1      7.6000000000000085      17.100000000000005      41.799999999999997
   231   1      7.6000000000000085      19.000000000000004      39.899999999999999
   232   1      7.6000000000000085      17.100000000000005      45.599999999999994
   233   1      7.6000000000000085      19.000000000000004      43.700000000000003
   234   1      7.6000000000000085      17.100000000000005      49.399999999999999
   235   1      7.6000000000000085      19.000000000000004                    47.5
   236   1      7.6000000000000085      17.100000000000005      53.199999999999989
   237   1      7.6000000000000085      19.000000000000004      51.299999999999997
   238   1      7.6000000000000085      17.100000000000005                      57
   239   1      7.6000000000000085      19.000000000000004      55.100000000000001
   240   1      7.6000000000000085      17.100000000000005       60.79999999999999
   241   1      7.6000000000000085      19.000000000000004      58.899999999999999
   242   1      7.6000000000000085      17.100000000000005      64.600000000000009
   243   1      7.6000000000000085      19.000000000000004      62.700000000000003
   244   1      7.6000000000000085      17.100000000000005      68.400000000000006
   245   1      7.6000000000000085      19.000000000000004                    66.5
   246   1      7.6000000000000085      19.000000000000004      70.299999999999997
   247   1      7.6000000000000085      20.900000000000006      19.000000000000004
   248   1      7.6000000000000085      22.800000000000004      17.100000000000005
   249   1      5.7000000000000091      22.800000000000004      22.800000000000004
   250   1      7.6000000000000085      20.900000000000006      22.800000000000004
   251   1      7.6000000000000085      22.800000000000004      20.900000000000006
   252   1      5.7000000000000091      22.800000000000004      26.600000000000001
   253   1      7.6000000000000085      20.900000000000006      26.600000000000001
   254   1      7.6000000000000085      22.800000000000004      24.700000000000003
   255   1      5.7000000000000091      22.800000000000004      30.400000000000006
   256   1      7.6000000000000085      20.900000000000006      30.400000000000006
   257   1      7.6000000000000085      22.800000000000004                    28.5
   258   1      5.7000000000000091      22.800000000000004      34.200000000000003
   259   1      7.6000000000000085      20.900000000000006      34.200000000000003
   260   1      7.6000000000000085      22.800000000000004      32.300000000000004
   261   1      5.7000000000000091      22.800000000000004                      38
   262   1      7.6000000000000085      20.900000000000006                      38
   263   1      7.6000000000000085      22.800000000000004      36.100000000000001
   264   1      5.7000000000000091      22.800000000000004      41.799999999999997
   265   1      7.6000000000000085      20.900000000000006      41.799999999999997
   266   1      7.6000000000000085      22.800000000000004      39.899999999999999
   267   1      5.7000000000000091      22.800000000000004      45.599999999999994
   268   1      7.6000000000000085      20.900000000000006      45.599999999999994
   269   1      7.6000000000000085      22.800000000000004      43.700000000000003
   270   1      5.7000000000000091      22.800000000000004      49.399999999999999
   271   1      7.6000000000000085      20.900000000000006      49.399999999999999
   272   1      7.6000000000000085      22.800000000000004                    47.5
   273   1      5.7000000000000091      22.800000000000004      53.199999999999989
   274   1      7.6000000000000085      20.900000000000006      53.199999999999989
   275   1      7.6000000000000085      22.800000000000004      51.299999999999997
   276   1      5.7000000000000091      22.800000000000004                      57
   277   1      7.6000000000000085      20.900000000000006                      57
   278   1      7.6000000000000085      22.800000000000004      55.100000000000001
   279   1      5.7000000000000091      22.800000000000004       60.79999999999999
   280   1      7.6000000000000085      20.900000000000006       60.79999999999999
   281   1      7.6000000000000085      22.800000000000004      58.899999999999999
   282   1      5.7000000000000091      22.800000000000004      64.600000000000009
   283   1      7.6000000000000085      20.900000000000006      64.600000000000009
   284   1      7.6000000000000085      22.800000000000004      62.700000000000003
   285   1      7.6000000000000085      20.900000000000006      68.400000000000006
   286   1      7.6000000000000085      22.800000000000004                    66.5
   287   1      7.6000000000000085      22.800000000000004      70.299999999999997
   288   1      7.6000000000000085      24.700000000000003      19.000000000000004
   289   1      7.6000000000000085      26.600000000000001      17.100000000000005
   290   1      5.7000000000000091      26.600000000000001      22.800000000000004
   291   1      7.6000000000000085      24.700000000000003      22.800000000000004
   292   1      7.6000000000000085      26.600000000000001      20.900000000000006
   293   1      5.7000000000000091      24.700000000000003      24.700000000000003
   294   1      5.7000000000000091      26.600000000000001      26.600000000000001
   295   1      7.6000000000000085      24.700000000000003      26.600000000000001
   296   1      7.6000000000000085      26.600000000000001      24.700000000000003
   297   1      5.7000000000000091      24.700000000000003                    28.5
   298   1      5.7000000000000091      26.600000000000001      30.400000000000006
   299   1      7.6000000000000085      24.700000000000003      30.400000000000006
   300   1      7.6000000000000085      26.600000000000001                    28.5
   301   1      5.7000000000000091      24.700000000000003      32.300000000000004
   302   1      5.7000000000000091      26.600000000000001      34.200000000000003
   303   1      7.6000000000000085      24.700000000000003      34.200000000000003
   304   1      7.6000000000000085      26.600000000000001      32.300000000000004
   305   1      5.7000000000000091      24.700000000000003      36.100000000000001
   306   1      5.7000000000000091      26.600000000000001                      38
   307   1      7.6000000000000085      24.700000000000003                      38
   308   1      7.6000000000000085      26.600000000000001      36.100000000000001
   309   1      5.7000000000000091      24.700000000000003      39.899999999999999
   310   1      5.7000000000000091      26.600000000000001      41.799999999999997
   311   1      7.6000000000000085      24.700000000000003      41.799999999999997
   312   1      7.6000000000000085      26.600000000000001      39.899999999999999
   313   1      5.7000000000000091      24.700000000000003      43.700000000000003
   314   1      5.7000000000000091      26.600000000000001      45.599999999999994
   315   1      7.6000000000000085      24.700000000000003      45.599999999999994
   316   1      7.6000000000000085      26.600000000000001      43.700000000000003
   317   1      5.7000000000000091      24.700000000000003                    47.5
   318   1      5.7000000000000091      26.600000000000001      49.399999999999999
   319   1      7.6000000000000085      24.700000000000003      49.399999999999999
   320   1      7.6000000000000085      26.600000000000001                    47.5
   321   1      5.7000000000000091      24.700000000000003      51.299999999999997
   322   1      5.7000000000000091      26.600000000000001      53.199999999999989
   323   1      7.6000000000000085      24.700000000000003      53.199999999999989
   324   1      7.6000000000000085      26.600000000000001      51.299999999999997
   325   1      5.7000000000000091      24.700000000000003      55.100000000000001
   326   1      5.7000000000000091      26.600000000000001                      57
   327   1      7.6000000000000085      24.700000000000003                      57
   328   1      7.6000000000000085      26.600000000000001      55.100000000000001
   329   1      5.7000000000000091      24.700000000000003      58.899999999999999
   330   1      5.7000000000000091      26.600000000000001       60.79999999999999
   331   1      7.6000000000000085      24.700000000000003       60.79999999999999
   332   1      7.6000000000000085      26.600000000000001      58.899999999999999
   333   1      5.7000000000000091      24.700000000000003      62.700000000000003
   334   1      5.7000000000000091      26.600000000000001      64.600000000000009
   335   1      7.6000000000000085      24.700000000000003      64.600000000000009
   336   1      7.6000000000000085      26.600000000000001      62.700000000000003
   337   1      7.6000000000000085      24.700000000000003      68.400000000000006
   338   1      7.6000000000000085      26.600000000000001                    66.5
   339   1      7.6000000000000085      26.600000000000001      70.299999999999997
   340   1      7.6000000000000085                    28.5      19.000000000000004
   341   1      7.6000000000000085      30.400000000000006      17.100000000000005
   342   1      5.7000000000000091      30.400000000000006      22.800000000000004
   343   1      7.6000000000000085                    28.5      22.800000000000004
   344   1      7.6000000000000085      30.400000000000006      20.900000000000006
   345   1      5.7000000000000091                    28.5      24.700000000000003
   346   1      5.7000000000000091      30.400000000000006      26.600000000000001
   347   1      7.6000000000000085                    28.5      26.600000000000001
   348   1      7.6000000000000085      30.400000000000006      24.700000000000003
   349   1      5.7000000000000091                    28.5                    28.5
   350   1      5.7000000000000091      30.400000000000006      30.400000000000006
   351   1      7.6000000000000085                    28.5      30.400000000000006
   352   1      7.6000000000000085      30.400000000000006                    28.5
   353   1      5.7000000000000091                    28.5      32.300000000000004
   354   1      5.7000000000000091      30.400000000000006      34.200000000000003
   355   1      7.6000000000000085                    28.5      34.200000000000003
   356   1      7.6000000000000085      30.400000000000006      32.300000000000004
   357   1      5.7000000000000091                    28.5      36.100000000000001
   358   1      5.7000000000000091      30.400000000000006                      38