model_files/CuFeNi/CuFeNi_30000/CuFeNi_410/CuFeNi_410_fcc_29755_temp.data (written by ASE) 

29755 	 atoms 
3  atom types
0.0                      85  xlo xhi
0.0                      85  ylo yhi
0.0                      85  zlo zhi


Atoms 

     1   1      1.9000000000000057      30.399999999999995      32.299999999999997
     2   1      1.9000000000000057      32.299999999999997      30.399999999999995
     3   1      1.9000000000000057      30.399999999999995      36.099999999999994
     4   1      1.9000000000000057      32.299999999999997      34.199999999999996
     5   1      1.9000000000000057      30.399999999999995      39.899999999999991
     6   1      1.9000000000000057      32.299999999999997      37.999999999999993
     7   1      1.9000000000000057      30.399999999999995      43.699999999999996
     8   1      1.9000000000000057      32.299999999999997      41.799999999999997
     9   1      1.9000000000000057      30.399999999999995      47.499999999999993
    10   1      1.9000000000000057      32.299999999999997      45.599999999999994
    11   1      1.9000000000000057      30.399999999999995       51.29999999999999
    12   1      1.9000000000000057      32.299999999999997      49.399999999999991
    13   1      1.9000000000000057      32.299999999999997      53.199999999999996
    14   1      1.9000000000000057      34.199999999999996      32.299999999999997
    15   1      1.9000000000000057      36.099999999999994      30.399999999999995
    16   1      1.9000000000000057      34.199999999999996      36.099999999999994
    17   1      1.9000000000000057      36.099999999999994      34.199999999999996
    18   1      1.9000000000000057      34.199999999999996      39.899999999999991
    19   1      1.9000000000000057      36.099999999999994      37.999999999999993
    20   1      1.9000000000000057      34.199999999999996      43.699999999999996
    21   1      1.9000000000000057      36.099999999999994      41.799999999999997
    22   1      1.9000000000000057      34.199999999999996      47.499999999999993
    23   1      1.9000000000000057      36.099999999999994      45.599999999999994
    24   1      1.9000000000000057      34.199999999999996       51.29999999999999
    25   1      1.9000000000000057      36.099999999999994      49.399999999999991
    26   1      1.9000000000000057      36.099999999999994      53.199999999999996
    27   1      1.9000000000000057      37.999999999999993      32.299999999999997
    28   1      1.9000000000000057      39.899999999999991      30.399999999999995
    29   1      1.9000000000000057      37.999999999999993      36.099999999999994
    30   1      1.9000000000000057      39.899999999999991      34.199999999999996
    31   1                       0      37.999999999999993      37.999999999999993
    32   1                       0      39.899999999999991      39.899999999999991
    33   1      1.9000000000000057      37.999999999999993      39.899999999999991
    34   1      1.9000000000000057      39.899999999999991      37.999999999999993
    35   1                       0      37.999999999999993      41.799999999999997
    36   1                       0      39.899999999999991      43.699999999999996
    37   1      1.9000000000000057      37.999999999999993      43.699999999999996
    38   1      1.9000000000000057      39.899999999999991      41.799999999999997
    39   1                       0      37.999999999999993      45.599999999999994
    40   1      1.9000000000000057      37.999999999999993      47.499999999999993
    41   1      1.9000000000000057      39.899999999999991      45.599999999999994
    42   1      1.9000000000000057      37.999999999999993       51.29999999999999
    43   1      1.9000000000000057      39.899999999999991      49.399999999999991
    44   1      1.9000000000000057      39.899999999999991      53.199999999999996
    45   1      1.9000000000000057      41.799999999999997      32.299999999999997
    46   1      1.9000000000000057      43.699999999999996      30.399999999999995
    47   1      1.9000000000000057      41.799999999999997      36.099999999999994
    48   1      1.9000000000000057      43.699999999999996      34.199999999999996
    49   1                       0      41.799999999999997      37.999999999999993
    50   1                       0      43.699999999999996      39.899999999999991
    51   1      1.9000000000000057      41.799999999999997      39.899999999999991
    52   1      1.9000000000000057      43.699999999999996      37.999999999999993
    53   1                       0      41.799999999999997      41.799999999999997
    54   1                       0      43.699999999999996      43.699999999999996
    55   1      1.9000000000000057      41.799999999999997      43.699999999999996
    56   1      1.9000000000000057      43.699999999999996      41.799999999999997
    57   1                       0      41.799999999999997      45.599999999999994
    58   1      1.9000000000000057      41.799999999999997      47.499999999999993
    59   1      1.9000000000000057      43.699999999999996      45.599999999999994
    60   1      1.9000000000000057      41.799999999999997       51.29999999999999
    61   1      1.9000000000000057      43.699999999999996      49.399999999999991
    62   1      1.9000000000000057      43.699999999999996      53.199999999999996
    63   1      1.9000000000000057      45.599999999999994      32.299999999999997
    64   1      1.9000000000000057      47.499999999999993      30.399999999999995
    65   1      1.9000000000000057      45.599999999999994      36.099999999999994
    66   1      1.9000000000000057      47.499999999999993      34.199999999999996
    67   1                       0      45.599999999999994      37.999999999999993
    68   1      1.9000000000000057      45.599999999999994      39.899999999999991
    69   1      1.9000000000000057      47.499999999999993      37.999999999999993
    70   1                       0      45.599999999999994      41.799999999999997
    71   1      1.9000000000000057      45.599999999999994      43.699999999999996
    72   1      1.9000000000000057      47.499999999999993      41.799999999999997
    73   1                       0      45.599999999999994      45.599999999999994
    74   1      1.9000000000000057      45.599999999999994      47.499999999999993
    75   1      1.9000000000000057      47.499999999999993      45.599999999999994
    76   1      1.9000000000000057      45.599999999999994       51.29999999999999
    77   1      1.9000000000000057      47.499999999999993      49.399999999999991
    78   1      1.9000000000000057      47.499999999999993      53.199999999999996
    79   1      1.9000000000000057      49.399999999999991      32.299999999999997
    80   1      1.9000000000000057       51.29999999999999      30.399999999999995
    81   1      1.9000000000000057      49.399999999999991      36.099999999999994
    82   1      1.9000000000000057       51.29999999999999      34.199999999999996
    83   1      1.9000000000000057      49.399999999999991      39.899999999999991
    84   1      1.9000000000000057       51.29999999999999      37.999999999999993
    85   1      1.9000000000000057      49.399999999999991      43.699999999999996
    86   1      1.9000000000000057       51.29999999999999      41.799999999999997
    87   1      1.9000000000000057      49.399999999999991      47.499999999999993
    88   1      1.9000000000000057       51.29999999999999      45.599999999999994
    89   1      1.9000000000000057      49.399999999999991       51.29999999999999
    90   1      1.9000000000000057       51.29999999999999      49.399999999999991
    91   1      1.9000000000000057       51.29999999999999      53.199999999999996
    92   1      1.9000000000000057      53.199999999999996      32.299999999999997
    93   1      1.9000000000000057      53.199999999999996      36.099999999999994
    94   1      1.9000000000000057      53.199999999999996      39.899999999999991
    95   1      1.9000000000000057      53.199999999999996      43.699999999999996
    96   1      1.9000000000000057      53.199999999999996      47.499999999999993
    97   1      1.9000000000000057      53.199999999999996       51.29999999999999
    98   1      5.7000000000000028      15.199999999999998      17.099999999999998
    99   1      5.7000000000000028      17.099999999999998      15.199999999999998
   100   1      5.7000000000000028      15.199999999999998      20.899999999999999
   101   1      5.7000000000000028      17.099999999999998                      19
   102   1      5.7000000000000028      15.199999999999998      24.699999999999996
   103   1      5.7000000000000028      17.099999999999998      22.799999999999997
   104   1      5.7000000000000028      15.199999999999998      28.499999999999996
   105   1      5.7000000000000028      17.099999999999998      26.599999999999998
   106   1      5.7000000000000028      15.199999999999998      32.299999999999997
   107   1      5.7000000000000028      17.099999999999998      30.399999999999995
   108   1      5.7000000000000028      15.199999999999998      36.099999999999994
   109   1      5.7000000000000028      17.099999999999998      34.199999999999996
   110   1      5.7000000000000028      15.199999999999998      39.899999999999991
   111   1      5.7000000000000028      17.099999999999998      37.999999999999993
   112   1      5.7000000000000028      15.199999999999998      43.699999999999996
   113   1      5.7000000000000028      17.099999999999998      41.799999999999997
   114   1      5.7000000000000028      15.199999999999998      47.499999999999993
   115   1      5.7000000000000028      17.099999999999998      45.599999999999994
   116   1      5.7000000000000028      15.199999999999998       51.29999999999999
   117   1      5.7000000000000028      17.099999999999998      49.399999999999991
   118   1      5.7000000000000028      15.199999999999998      55.099999999999994
   119   1      5.7000000000000028      17.099999999999998      53.199999999999996
   120   1      5.7000000000000028      15.199999999999998      58.899999999999991
   121   1      5.7000000000000028      17.099999999999998      56.999999999999993
   122   1      5.7000000000000028      15.199999999999998      62.700000000000003
   123   1      5.7000000000000028      17.099999999999998       60.79999999999999
   124   1      5.7000000000000028      15.199999999999998                    66.5
   125   1      5.7000000000000028      17.099999999999998      64.599999999999994
   126   1      5.7000000000000028      17.099999999999998      68.399999999999991
   127   1      5.7000000000000028                      19      17.099999999999998
   128   1      5.7000000000000028      20.899999999999999      15.199999999999998
   129   1      5.7000000000000028                      19      20.899999999999999
   130   1      5.7000000000000028      20.899999999999999                      19
   131   1      5.7000000000000028                      19      24.699999999999996
   132   1      5.7000000000000028      20.899999999999999      22.799999999999997
   133   1      5.7000000000000028                      19      28.499999999999996
   134   1      5.7000000000000028      20.899999999999999      26.599999999999998
   135   1      5.7000000000000028                      19      32.299999999999997
   136   1      5.7000000000000028      20.899999999999999      30.399999999999995
   137   1      5.7000000000000028                      19      36.099999999999994
   138   1      5.7000000000000028      20.899999999999999      34.199999999999996
   139   1      5.7000000000000028                      19      39.899999999999991
   140   1      5.7000000000000028      20.899999999999999      37.999999999999993
   141   1      5.7000000000000028                      19      43.699999999999996
   142   1      5.7000000000000028      20.899999999999999      41.799999999999997
   143   1      5.7000000000000028                      19      47.499999999999993
   144   1      5.7000000000000028      20.899999999999999      45.599999999999994
   145   1      5.7000000000000028                      19       51.29999999999999
   146   1      5.7000000000000028      20.899999999999999      49.399999999999991
   147   1      5.7000000000000028                      19      55.099999999999994
   148   1      5.7000000000000028      20.899999999999999      53.199999999999996
   149   1      5.7000000000000028                      19      58.899999999999991
   150   1      5.7000000000000028      20.899999999999999      56.999999999999993
   151   1      5.7000000000000028                      19      62.700000000000003
   152   1      5.7000000000000028      20.899999999999999       60.79999999999999
   153   1      5.7000000000000028                      19                    66.5
   154   1      5.7000000000000028      20.899999999999999      64.599999999999994
   155   1      5.7000000000000028      20.899999999999999      68.399999999999991
   156   1      5.7000000000000028      22.799999999999997      17.099999999999998
   157   1      5.7000000000000028      24.699999999999996      15.199999999999998
   158   1      5.7000000000000028      22.799999999999997      20.899999999999999
   159   1      5.7000000000000028      24.699999999999996                      19
   160   1      3.8000000000000043      22.799999999999997      22.799999999999997
   161   1      3.8000000000000043      24.699999999999996      24.699999999999996
   162   1      5.7000000000000028      22.799999999999997      24.699999999999996
   163   1      5.7000000000000028      24.699999999999996      22.799999999999997
   164   1      3.8000000000000043      22.799999999999997      26.599999999999998
   165   1      3.8000000000000043      24.699999999999996      28.499999999999996
   166   1      5.7000000000000028      22.799999999999997      28.499999999999996
   167   1      5.7000000000000028      24.699999999999996      26.599999999999998
   168   1      3.8000000000000043      22.799999999999997      30.399999999999995
   169   1      3.8000000000000043      24.699999999999996      32.299999999999997
   170   1      5.7000000000000028      22.799999999999997      32.299999999999997
   171   1      5.7000000000000028      24.699999999999996      30.399999999999995
   172   1      3.8000000000000043      22.799999999999997      34.199999999999996
   173   1      3.8000000000000043      24.699999999999996      36.099999999999994
   174   1      5.7000000000000028      22.799999999999997      36.099999999999994
   175   1      5.7000000000000028      24.699999999999996      34.199999999999996
   176   1      3.8000000000000043      22.799999999999997      37.999999999999993
   177   1      3.8000000000000043      24.699999999999996      39.899999999999991
   178   1      5.7000000000000028      22.799999999999997      39.899999999999991
   179   1      5.7000000000000028      24.699999999999996      37.999999999999993
   180   1      3.8000000000000043      22.799999999999997      41.799999999999997
   181   1      3.8000000000000043      24.699999999999996      43.699999999999996
   182   1      5.7000000000000028      22.799999999999997      43.699999999999996
   183   1      5.7000000000000028      24.699999999999996      41.799999999999997
   184   1      3.8000000000000043      22.799999999999997      45.599999999999994
   185   1      3.8000000000000043      24.699999999999996      47.499999999999993
   186   1      5.7000000000000028      22.799999999999997      47.499999999999993
   187   1      5.7000000000000028      24.699999999999996      45.599999999999994
   188   1      3.8000000000000043      22.799999999999997      49.399999999999991
   189   1      3.8000000000000043      24.699999999999996       51.29999999999999
   190   1      5.7000000000000028      22.799999999999997       51.29999999999999
   191   1      5.7000000000000028      24.699999999999996      49.399999999999991
   192   1      3.8000000000000043      22.799999999999997      53.199999999999996
   193   1      3.8000000000000043      24.699999999999996      55.099999999999994
   194   1      5.7000000000000028      22.799999999999997      55.099999999999994
   195   1      5.7000000000000028      24.699999999999996      53.199999999999996
   196   1      3.8000000000000043      22.799999999999997      56.999999999999993
   197   1      3.8000000000000043      24.699999999999996      58.899999999999991
   198   1      5.7000000000000028      22.799999999999997      58.899999999999991
   199   1      5.7000000000000028      24.699999999999996      56.999999999999993
   200   1      3.8000000000000043      22.799999999999997       60.79999999999999
   201   1      5.7000000000000028      22.799999999999997      62.700000000000003
   202   1      5.7000000000000028      24.699999999999996       60.79999999999999
   203   1      5.7000000000000028      22.799999999999997                    66.5
   204   1      5.7000000000000028      24.699999999999996      64.599999999999994
   205   1      5.7000000000000028      24.699999999999996      68.399999999999991
   206   1      5.7000000000000028      26.599999999999998      17.099999999999998
   207   1      5.7000000000000028      28.499999999999996      15.199999999999998
   208   1      5.7000000000000028      26.599999999999998      20.899999999999999
   209   1      5.7000000000000028      28.499999999999996                      19
   210   1      3.8000000000000043      26.599999999999998      22.799999999999997
   211   1      3.8000000000000043      28.499999999999996      24.699999999999996
   212   1      5.7000000000000028      26.599999999999998      24.699999999999996
   213   1      5.7000000000000028      28.499999999999996      22.799999999999997
   214   1      3.8000000000000043      26.599999999999998      26.599999999999998
   215   1      3.8000000000000043      28.499999999999996      28.499999999999996
   216   1      5.7000000000000028      26.599999999999998      28.499999999999996
   217   1      5.7000000000000028      28.499999999999996      26.599999999999998
   218   1      3.8000000000000043      26.599999999999998      30.399999999999995
   219   1      3.8000000000000043      28.499999999999996      32.299999999999997
   220   1      5.7000000000000028      26.599999999999998      32.299999999999997
   221   1      5.7000000000000028      28.499999999999996      30.399999999999995
   222   1      3.8000000000000043      26.599999999999998      34.199999999999996
   223   1      3.8000000000000043      28.499999999999996      36.099999999999994
   224   1      5.7000000000000028      26.599999999999998      36.099999999999994
   225   1      5.7000000000000028      28.499999999999996      34.199999999999996
   226   1      3.8000000000000043      26.599999999999998      37.999999999999993
   227   1      3.8000000000000043      28.499999999999996      39.899999999999991
   228   1      5.7000000000000028      26.599999999999998      39.899999999999991
   229   1      5.7000000000000028      28.499999999999996      37.999999999999993
   230   1      3.8000000000000043      26.599999999999998      41.799999999999997
   231   1      3.8000000000000043      28.499999999999996      43.699999999999996
   232   1      5.7000000000000028      26.599999999999998      43.699999999999996
   233   1      5.7000000000000028      28.499999999999996      41.799999999999997
   234   1      3.8000000000000043      26.599999999999998      45.599999999999994
   235   1      3.8000000000000043      28.499999999999996      47.499999999999993
   236   1      5.7000000000000028      26.599999999999998      47.499999999999993
   237   1      5.7000000000000028      28.499999999999996      45.599999999999994
   238   1      3.8000000000000043      26.599999999999998      49.399999999999991
   239   1      3.8000000000000043      28.499999999999996       51.29999999999999
   240   1      5.7000000000000028      26.599999999999998       51.29999999999999
   241   1      5.7000000000000028      28.499999999999996      49.399999999999991
   242   1      3.8000000000000043      26.599999999999998      53.199999999999996
   243   1      3.8000000000000043      28.499999999999996      55.099999999999994
   244   1      5.7000000000000028      26.599999999999998      55.099999999999994
   245   1      5.7000000000000028      28.499999999999996      53.199999999999996
   246   1      3.8000000000000043      26.599999999999998      56.999999999999993
   247   1      3.8000000000000043      28.499999999999996      58.899999999999991
   248   1      5.7000000000000028      26.599999999999998      58.899999999999991
   249   1      5.7000000000000028      28.499999999999996      56.999999999999993
   250   1      3.8000000000000043      26.599999999999998       60.79999999999999
   251   1      5.7000000000000028      26.599999999999998      62.700000000000003
   252   1      5.7000000000000028      28.499999999999996       60.79999999999999
   253   1      5.7000000000000028      26.599999999999998                    66.5
   254   1      5.7000000000000028      28.499999999999996      64.599999999999994
   255   1      5.7000000000000028      28.499999999999996      68.399999999999991
   256   1      5.7000000000000028      30.399999999999995      17.099999999999998
   257   1      5.7000000000000028      32.299999999999997      15.199999999999998
   258   1      5.7000000000000028      30.399999999999995      20.899999999999999
   259   1      5.7000000000000028      32.299999999999997                      19
   260   1      3.8000000000000043      30.399999999999995      22.799999999999997
   261   1      3.8000000000000043      32.299999999999997      24.699999999999996
   262   1      5.7000000000000028      30.399999999999995      24.699999999999996
   263   1      5.7000000000000028      32.299999999999997      22.799999999999997
   264   1      3.8000000000000043      30.399999999999995      26.599999999999998
   265   1      3.8000000000000043      32.299999999999997      28.499999999999996
   266   1      5.7000000000000028      30.399999999999995      28.499999999999996
   267   1      5.7000000000000028      32.299999999999997      26.599999999999998
   268   1      3.8000000000000043      30.399999999999995      30.399999999999995
   269   1      3.8000000000000043      32.299999999999997      32.299999999999997
   270   1      5.7000000000000028      30.399999999999995      32.299999999999997
   271   1      5.7000000000000028      32.299999999999997      30.399999999999995
   272   1      3.8000000000000043      30.399999999999995      34.199999999999996
   273   1      3.8000000000000043      32.299999999999997      36.099999999999994
   274   1      5.7000000000000028      30.399999999999995      36.099999999999994
   275   1      5.7000000000000028      32.299999999999997      34.199999999999996
   276   1      3.8000000000000043      30.399999999999995      37.999999999999993
   277   1      3.8000000000000043      32.299999999999997      39.899999999999991
   278   1      5.7000000000000028      30.399999999999995      39.899999999999991
   279   1      5.7000000000000028      32.299999999999997      37.999999999999993
   280   1      3.8000000000000043      30.399999999999995      41.799999999999997
   281   1      3.8000000000000043      32.299999999999997      43.699999999999996
   282   1      5.7000000000000028      30.399999999999995      43.699999999999996
   283   1      5.7000000000000028      32.299999999999997      41.799999999999997
   284   1      3.8000000000000043      30.399999999999995      45.599999999999994
   285   1      3.8000000000000043      32.299999999999997      47.499999999999993
   286   1      5.7000000000000028      30.399999999999995      47.499999999999993
   287   1      5.7000000000000028      32.299999999999997      45.599999999999994
   288   1      3.8000000000000043      30.399999999999995      49.399999999999991
   289   1      3.8000000000000043      32.299999999999997       51.29999999999999
   290   1      5.7000000000000028      30.399999999999995       51.29999999999999
   291   1      5.7000000000000028      32.299999999999997      49.399999999999991
   292   1      3.8000000000000043      30.399999999999995      53.199999999999996
   293   1      3.8000000000000043      32.299999999999997      55.099999999999994
   294   1      5.7000000000000028      30.399999999999995      55.099999999999994
   295   1      5.7000000000000028      32.299999999999997      53.199999999999996
   296   1      3.8000000000000043      30.399999999999995      56.999999999999993
   297   1      3.8000000000000043      32.299999999999997      58.899999999999991
   298   1      5.7000000000000028      30.399999999999995      58.899999999999991
   299   1      5.7000000000000028      32.299999999999997      56.999999999999993
   300   1      3.8000000000000043      30.399999999999995       60.79999999999999
   301   1      5.7000000000000028      30.399999999999995      62.700000000000003
   302   1      5.7000000000000028      32.299999999999997       60.79999999999999
   303   1      5.7000000000000028      30.399999999999995                    66.5
   304   1      5.7000000000000028      32.299999999999997      64.599999999999994
   305   1      5.7000000000000028      32.299999999999997      68.399999999999991
   306   1      5.7000000000000028      34.199999999999996      17.099999999999998
   307   1      5.7000000000000028      36.099999999999994      15.199999999999998
   308   1      5.7000000000000028      34.199999999999996      20.899999999999999
   309   1      5.7000000000000028      36.099999999999994                      19
   310   1      3.8000000000000043      34.199999999999996      22.799999999999997
   311   1      3.8000000000000043      36.099999999999994      24.699999999999996
   312   1      5.7000000000000028      34.199999999999996      24.699999999999996
   313   1      5.7000000000000028      36.099999999999994      22.799999999999997
   314   1      3.8000000000000043      34.199999999999996      26.599999999999998
   315   1      3.8000000000000043      36.099999999999994      28.499999999999996
   316   1      5.7000000000000028      34.199999999999996      28.499999999999996
   317   1      5.7000000000000028      36.099999999999994      26.599999999999998
   318   1      3.8000000000000043      34.199999999999996      30.399999999999995
   319   1      3.8000000000000043      36.099999999999994      32.299999999999997
   320   1      5.7000000000000028      34.199999999999996      32.299999999999997
   321   1      5.7000000000000028      36.099999999999994      30.399999999999995
   322   1      3.8000000000000043      34.199999999999996      34.199999999999996
   323   1      3.8000000000000043      36.099999999999994      36.099999999999994
   324   1      5.7000000000000028      34.199999999999996      36.099999999999994
   325   1      5.7000000000000028      36.099999999999994      34.199999999999996
   326   1      3.8000000000000043      34.199999999999996      37.999999999999993
   327   1      3.8000000000000043      36.099999999999994      39.899999999999991
   328   1      5.7000000000000028      34.199999999999996      39.899999999999991
   329   1      5.7000000000000028      36.099999999999994      37.999999999999993
   330   1      3.8000000000000043      34.199999999999996      41.799999999999997
   331   1      3.8000000000000043      36.099999999999994      43.699999999999996
   332   1      5.7000000000000028      34.199999999999996      43.699999999999996
   333   1      5.7000000000000028      36.099999999999994      41.799999999999997
   334   1      3.8000000000000043      34.199999999999996      45.599999999999994
   335   1      3.8000000000000043      36.099999999999994      47.499999999999993
   336   1      5.7000000000000028      34.199999999999996      47.499999999999993
   337   1      5.7000000000000028      36.099999999999994      45.599999999999994
   338   1      3.8000000000000043      34.199999999999996      49.399999999999991
   339   1      3.8000000000000043      36.099999999999994       51.29999999999999
   340   1      5.7000000000000028      34.199999999999996       51.29999999999999
   341   1      5.7000000000000028      36.099999999999994      49.399999999999991
   342   1      3.8000000000000043      34.199999999999996      53.199999999999996
   343   1      3.8000000000000043      36.099999999999994      55.099999999999994
   344   1      5.7000000000000028      34.199999999999996      55.099999999999994
   345   1      5.7000000000000028      36.099999999999994      53.199999999999996
   346   1      3.8000000000000043      34.199999999999996      56.999999999999993
   347   1      3.8000000000000043      36.099999999999994      58.899999999999991
   348   1      5.7000000000000028      34.199999999999996      58.899999999999991
   349   1      5.7000000000000028      36.099999999999994      56.999999999999993
   350   1      3.8000000000000043      34.199999999999996       60.79999999999999
   351   1      5.7000000000000028      34.199999999999996      62.700000000000003
   352   1      5.7000000000000028      36.099999999999994       60.79999999999999
   353   1      5.7000000000000028      34.199999999999996                    66.5
   354   1      5.7000000000000028      36.099999999999994      64.599999999999994
   355   1      5.7000000000000028      36.099999999999994      68.399999999999991
   356   1      5.7000000000000028      37.999999999999993      17.099999999999998
   357   1      5.7000000000000028      39.899999999999991      15.199999999999998
   358   1      5.7000000000000028      37.999999999999993      20.899999999999999