model_files/Pt/Pt_30000/Pt_530/data.Pt_530_fcc_29831 (written by ASE) 

29831 	 atoms 
1  atom types
0.0                     103  xlo xhi
0.0                     103  ylo yhi
0.0                     103  zlo zhi


Atoms 

     1   1  1.4210854715202002e-14      49.000000000000014      49.000000000000014
     2   1      1.9600000000000148      47.040000000000006      49.000000000000014
     3   1      1.9600000000000148      49.000000000000014      47.040000000000006
     4   1  1.4210854715202002e-14      49.000000000000014      52.920000000000009
     5   1      1.9600000000000148      47.040000000000006      52.920000000000009
     6   1      1.9600000000000148      49.000000000000014      50.960000000000001
     7   1      1.9600000000000148      49.000000000000014      54.880000000000003
     8   1  1.4210854715202002e-14      52.920000000000009      49.000000000000014
     9   1      1.9600000000000148      50.960000000000001      49.000000000000014
    10   1      1.9600000000000148      52.920000000000009      47.040000000000006
    11   1  1.4210854715202002e-14      50.960000000000001      50.960000000000001
    12   1  1.4210854715202002e-14      52.920000000000009      52.920000000000009
    13   1      1.9600000000000148      50.960000000000001      52.920000000000009
    14   1      1.9600000000000148      52.920000000000009      50.960000000000001
    15   1      1.9600000000000148      52.920000000000009      54.880000000000003
    16   1      1.9600000000000148      54.880000000000003      49.000000000000014
    17   1      1.9600000000000148      54.880000000000003      52.920000000000009
    18   1      5.8800000000000088       39.20000000000001      41.160000000000004
    19   1      5.8800000000000088      41.160000000000004       39.20000000000001
    20   1      5.8800000000000088       39.20000000000001      45.080000000000005
    21   1      5.8800000000000088      41.160000000000004      43.120000000000012
    22   1      5.8800000000000088       39.20000000000001      49.000000000000014
    23   1      5.8800000000000088      41.160000000000004      47.040000000000006
    24   1      5.8800000000000088       39.20000000000001      52.920000000000009
    25   1      5.8800000000000088      41.160000000000004      50.960000000000001
    26   1      5.8800000000000088       39.20000000000001      56.840000000000003
    27   1      5.8800000000000088      41.160000000000004      54.880000000000003
    28   1      5.8800000000000088       39.20000000000001      60.759999999999998
    29   1      5.8800000000000088      41.160000000000004      58.800000000000011
    30   1      5.8800000000000088      41.160000000000004      62.720000000000006
    31   1      5.8800000000000088      43.120000000000012      41.160000000000004
    32   1      5.8800000000000088      45.080000000000005       39.20000000000001
    33   1      3.9200000000000155      43.120000000000012      43.120000000000012
    34   1      3.9200000000000155      45.080000000000005      45.080000000000005
    35   1      5.8800000000000088      43.120000000000012      45.080000000000005
    36   1      5.8800000000000088      45.080000000000005      43.120000000000012
    37   1      3.9200000000000155      43.120000000000012      47.040000000000006
    38   1      3.9200000000000155      45.080000000000005      49.000000000000014
    39   1      5.8800000000000088      43.120000000000012      49.000000000000014
    40   1      5.8800000000000088      45.080000000000005      47.040000000000006
    41   1      3.9200000000000155      43.120000000000012      50.960000000000001
    42   1      3.9200000000000155      45.080000000000005      52.920000000000009
    43   1      5.8800000000000088      43.120000000000012      52.920000000000009
    44   1      5.8800000000000088      45.080000000000005      50.960000000000001
    45   1      3.9200000000000155      43.120000000000012      54.880000000000003
    46   1      3.9200000000000155      45.080000000000005      56.840000000000003
    47   1      5.8800000000000088      43.120000000000012      56.840000000000003
    48   1      5.8800000000000088      45.080000000000005      54.880000000000003
    49   1      3.9200000000000155      43.120000000000012      58.800000000000011
    50   1      5.8800000000000088      43.120000000000012      60.759999999999998
    51   1      5.8800000000000088      45.080000000000005      58.800000000000011
    52   1      5.8800000000000088      45.080000000000005      62.720000000000006
    53   1      5.8800000000000088      47.040000000000006      41.160000000000004
    54   1      5.8800000000000088      49.000000000000014       39.20000000000001
    55   1      3.9200000000000155      47.040000000000006      43.120000000000012
    56   1      3.9200000000000155      49.000000000000014      45.080000000000005
    57   1      5.8800000000000088      47.040000000000006      45.080000000000005
    58   1      5.8800000000000088      49.000000000000014      43.120000000000012
    59   1      3.9200000000000155      47.040000000000006      47.040000000000006
    60   1      3.9200000000000155      49.000000000000014      49.000000000000014
    61   1      5.8800000000000088      47.040000000000006      49.000000000000014
    62   1      5.8800000000000088      49.000000000000014      47.040000000000006
    63   1      3.9200000000000155      47.040000000000006      50.960000000000001
    64   1      3.9200000000000155      49.000000000000014      52.920000000000009
    65   1      5.8800000000000088      47.040000000000006      52.920000000000009
    66   1      5.8800000000000088      49.000000000000014      50.960000000000001
    67   1      3.9200000000000155      47.040000000000006      54.880000000000003
    68   1      3.9200000000000155      49.000000000000014      56.840000000000003
    69   1      5.8800000000000088      47.040000000000006      56.840000000000003
    70   1      5.8800000000000088      49.000000000000014      54.880000000000003
    71   1      3.9200000000000155      47.040000000000006      58.800000000000011
    72   1      5.8800000000000088      47.040000000000006      60.759999999999998
    73   1      5.8800000000000088      49.000000000000014      58.800000000000011
    74   1      5.8800000000000088      49.000000000000014      62.720000000000006
    75   1      5.8800000000000088      50.960000000000001      41.160000000000004
    76   1      5.8800000000000088      52.920000000000009       39.20000000000001
    77   1      3.9200000000000155      50.960000000000001      43.120000000000012
    78   1      3.9200000000000155      52.920000000000009      45.080000000000005
    79   1      5.8800000000000088      50.960000000000001      45.080000000000005
    80   1      5.8800000000000088      52.920000000000009      43.120000000000012
    81   1      3.9200000000000155      50.960000000000001      47.040000000000006
    82   1      3.9200000000000155      52.920000000000009      49.000000000000014
    83   1      5.8800000000000088      50.960000000000001      49.000000000000014
    84   1      5.8800000000000088      52.920000000000009      47.040000000000006
    85   1      3.9200000000000155      50.960000000000001      50.960000000000001
    86   1      3.9200000000000155      52.920000000000009      52.920000000000009
    87   1      5.8800000000000088      50.960000000000001      52.920000000000009
    88   1      5.8800000000000088      52.920000000000009      50.960000000000001
    89   1      3.9200000000000155      50.960000000000001      54.880000000000003
    90   1      3.9200000000000155      52.920000000000009      56.840000000000003
    91   1      5.8800000000000088      50.960000000000001      56.840000000000003
    92   1      5.8800000000000088      52.920000000000009      54.880000000000003
    93   1      3.9200000000000155      50.960000000000001      58.800000000000011
    94   1      5.8800000000000088      50.960000000000001      60.759999999999998
    95   1      5.8800000000000088      52.920000000000009      58.800000000000011
    96   1      5.8800000000000088      52.920000000000009      62.720000000000006
    97   1      5.8800000000000088      54.880000000000003      41.160000000000004
    98   1      5.8800000000000088      56.840000000000003       39.20000000000001
    99   1      3.9200000000000155      54.880000000000003      43.120000000000012
   100   1      3.9200000000000155      56.840000000000003      45.080000000000005
   101   1      5.8800000000000088      54.880000000000003      45.080000000000005
   102   1      5.8800000000000088      56.840000000000003      43.120000000000012
   103   1      3.9200000000000155      54.880000000000003      47.040000000000006
   104   1      3.9200000000000155      56.840000000000003      49.000000000000014
   105   1      5.8800000000000088      54.880000000000003      49.000000000000014
   106   1      5.8800000000000088      56.840000000000003      47.040000000000006
   107   1      3.9200000000000155      54.880000000000003      50.960000000000001
   108   1      3.9200000000000155      56.840000000000003      52.920000000000009
   109   1      5.8800000000000088      54.880000000000003      52.920000000000009
   110   1      5.8800000000000088      56.840000000000003      50.960000000000001
   111   1      3.9200000000000155      54.880000000000003      54.880000000000003
   112   1      3.9200000000000155      56.840000000000003      56.840000000000003
   113   1      5.8800000000000088      54.880000000000003      56.840000000000003
   114   1      5.8800000000000088      56.840000000000003      54.880000000000003
   115   1      3.9200000000000155      54.880000000000003      58.800000000000011
   116   1      5.8800000000000088      54.880000000000003      60.759999999999998
   117   1      5.8800000000000088      56.840000000000003      58.800000000000011
   118   1      5.8800000000000088      56.840000000000003      62.720000000000006
   119   1      5.8800000000000088      58.800000000000011      41.160000000000004
   120   1      5.8800000000000088      60.759999999999998       39.20000000000001
   121   1      3.9200000000000155      58.800000000000011      43.120000000000012
   122   1      5.8800000000000088      58.800000000000011      45.080000000000005
   123   1      5.8800000000000088      60.759999999999998      43.120000000000012
   124   1      3.9200000000000155      58.800000000000011      47.040000000000006
   125   1      5.8800000000000088      58.800000000000011      49.000000000000014
   126   1      5.8800000000000088      60.759999999999998      47.040000000000006
   127   1      3.9200000000000155      58.800000000000011      50.960000000000001
   128   1      5.8800000000000088      58.800000000000011      52.920000000000009
   129   1      5.8800000000000088      60.759999999999998      50.960000000000001
   130   1      3.9200000000000155      58.800000000000011      54.880000000000003
   131   1      5.8800000000000088      58.800000000000011      56.840000000000003
   132   1      5.8800000000000088      60.759999999999998      54.880000000000003
   133   1      3.9200000000000155      58.800000000000011      58.800000000000011
   134   1      5.8800000000000088      58.800000000000011      60.759999999999998
   135   1      5.8800000000000088      60.759999999999998      58.800000000000011
   136   1      5.8800000000000088      60.759999999999998      62.720000000000006
   137   1      5.8800000000000088      62.720000000000006      41.160000000000004
   138   1      5.8800000000000088      62.720000000000006      45.080000000000005
   139   1      5.8800000000000088      62.720000000000006      49.000000000000014
   140   1      5.8800000000000088      62.720000000000006      52.920000000000009
   141   1      5.8800000000000088      62.720000000000006      56.840000000000003
   142   1      5.8800000000000088      62.720000000000006      60.759999999999998
   143   1      9.8000000000000114      33.320000000000014      35.280000000000015
   144   1      9.8000000000000114      33.320000000000014       39.20000000000001
   145   1      9.8000000000000114      33.320000000000014      43.120000000000012
   146   1      9.8000000000000114      33.320000000000014      47.040000000000006
   147   1      9.8000000000000114      33.320000000000014      50.960000000000001
   148   1      9.8000000000000114      33.320000000000014      54.880000000000003
   149   1      9.8000000000000114      33.320000000000014      58.800000000000011
   150   1      9.8000000000000114      33.320000000000014      62.720000000000006
   151   1      9.8000000000000114      33.320000000000014      66.640000000000015
   152   1      9.8000000000000114      35.280000000000015      33.320000000000014
   153   1      7.8400000000000096      37.240000000000009      37.240000000000009
   154   1      9.8000000000000114      35.280000000000015      37.240000000000009
   155   1      9.8000000000000114      37.240000000000009      35.280000000000015
   156   1      7.8400000000000096      37.240000000000009      41.160000000000004
   157   1      9.8000000000000114      35.280000000000015      41.160000000000004
   158   1      9.8000000000000114      37.240000000000009       39.20000000000001
   159   1      7.8400000000000096      37.240000000000009      45.080000000000005
   160   1      9.8000000000000114      35.280000000000015      45.080000000000005
   161   1      9.8000000000000114      37.240000000000009      43.120000000000012
   162   1      7.8400000000000096      37.240000000000009      49.000000000000014
   163   1      9.8000000000000114      35.280000000000015      49.000000000000014
   164   1      9.8000000000000114      37.240000000000009      47.040000000000006
   165   1      7.8400000000000096      37.240000000000009      52.920000000000009
   166   1      9.8000000000000114      35.280000000000015      52.920000000000009
   167   1      9.8000000000000114      37.240000000000009      50.960000000000001
   168   1      7.8400000000000096      37.240000000000009      56.840000000000003
   169   1      9.8000000000000114      35.280000000000015      56.840000000000003
   170   1      9.8000000000000114      37.240000000000009      54.880000000000003
   171   1      7.8400000000000096      37.240000000000009      60.759999999999998
   172   1      9.8000000000000114      35.280000000000015      60.759999999999998
   173   1      9.8000000000000114      37.240000000000009      58.800000000000011
   174   1      7.8400000000000096      37.240000000000009      64.680000000000007
   175   1      9.8000000000000114      35.280000000000015      64.680000000000007
   176   1      9.8000000000000114      37.240000000000009      62.720000000000006
   177   1      9.8000000000000114      35.280000000000015      68.599999999999994
   178   1      9.8000000000000114      37.240000000000009      66.640000000000015
   179   1      9.8000000000000114       39.20000000000001      33.320000000000014
   180   1      7.8400000000000096      41.160000000000004      37.240000000000009
   181   1      9.8000000000000114       39.20000000000001      37.240000000000009
   182   1      9.8000000000000114      41.160000000000004      35.280000000000015
   183   1      7.8400000000000096       39.20000000000001       39.20000000000001
   184   1      7.8400000000000096      41.160000000000004      41.160000000000004
   185   1      9.8000000000000114       39.20000000000001      41.160000000000004
   186   1      9.8000000000000114      41.160000000000004       39.20000000000001
   187   1      7.8400000000000096       39.20000000000001      43.120000000000012
   188   1      7.8400000000000096      41.160000000000004      45.080000000000005
   189   1      9.8000000000000114       39.20000000000001      45.080000000000005
   190   1      9.8000000000000114      41.160000000000004      43.120000000000012
   191   1      7.8400000000000096       39.20000000000001      47.040000000000006
   192   1      7.8400000000000096      41.160000000000004      49.000000000000014
   193   1      9.8000000000000114       39.20000000000001      49.000000000000014
   194   1      9.8000000000000114      41.160000000000004      47.040000000000006
   195   1      7.8400000000000096       39.20000000000001      50.960000000000001
   196   1      7.8400000000000096      41.160000000000004      52.920000000000009
   197   1      9.8000000000000114       39.20000000000001      52.920000000000009
   198   1      9.8000000000000114      41.160000000000004      50.960000000000001
   199   1      7.8400000000000096       39.20000000000001      54.880000000000003
   200   1      7.8400000000000096      41.160000000000004      56.840000000000003
   201   1      9.8000000000000114       39.20000000000001      56.840000000000003
   202   1      9.8000000000000114      41.160000000000004      54.880000000000003
   203   1      7.8400000000000096       39.20000000000001      58.800000000000011
   204   1      7.8400000000000096      41.160000000000004      60.759999999999998
   205   1      9.8000000000000114       39.20000000000001      60.759999999999998
   206   1      9.8000000000000114      41.160000000000004      58.800000000000011
   207   1      7.8400000000000096       39.20000000000001      62.720000000000006
   208   1      7.8400000000000096      41.160000000000004      64.680000000000007
   209   1      9.8000000000000114       39.20000000000001      64.680000000000007
   210   1      9.8000000000000114      41.160000000000004      62.720000000000006
   211   1      9.8000000000000114       39.20000000000001      68.599999999999994
   212   1      9.8000000000000114      41.160000000000004      66.640000000000015
   213   1      9.8000000000000114      43.120000000000012      33.320000000000014
   214   1      7.8400000000000096      45.080000000000005      37.240000000000009
   215   1      9.8000000000000114      43.120000000000012      37.240000000000009
   216   1      9.8000000000000114      45.080000000000005      35.280000000000015
   217   1      7.8400000000000096      43.120000000000012       39.20000000000001
   218   1      7.8400000000000096      45.080000000000005      41.160000000000004
   219   1      9.8000000000000114      43.120000000000012      41.160000000000004
   220   1      9.8000000000000114      45.080000000000005       39.20000000000001
   221   1      7.8400000000000096      43.120000000000012      43.120000000000012
   222   1      7.8400000000000096      45.080000000000005      45.080000000000005
   223   1      9.8000000000000114      43.120000000000012      45.080000000000005
   224   1      9.8000000000000114      45.080000000000005      43.120000000000012
   225   1      7.8400000000000096      43.120000000000012      47.040000000000006
   226   1      7.8400000000000096      45.080000000000005      49.000000000000014
   227   1      9.8000000000000114      43.120000000000012      49.000000000000014
   228   1      9.8000000000000114      45.080000000000005      47.040000000000006
   229   1      7.8400000000000096      43.120000000000012      50.960000000000001
   230   1      7.8400000000000096      45.080000000000005      52.920000000000009
   231   1      9.8000000000000114      43.120000000000012      52.920000000000009
   232   1      9.8000000000000114      45.080000000000005      50.960000000000001
   233   1      7.8400000000000096      43.120000000000012      54.880000000000003
   234   1      7.8400000000000096      45.080000000000005      56.840000000000003
   235   1      9.8000000000000114      43.120000000000012      56.840000000000003
   236   1      9.8000000000000114      45.080000000000005      54.880000000000003
   237   1      7.8400000000000096      43.120000000000012      58.800000000000011
   238   1      7.8400000000000096      45.080000000000005      60.759999999999998
   239   1      9.8000000000000114      43.120000000000012      60.759999999999998
   240   1      9.8000000000000114      45.080000000000005      58.800000000000011
   241   1      7.8400000000000096      43.120000000000012      62.720000000000006
   242   1      7.8400000000000096      45.080000000000005      64.680000000000007
   243   1      9.8000000000000114      43.120000000000012      64.680000000000007
   244   1      9.8000000000000114      45.080000000000005      62.720000000000006
   245   1      9.8000000000000114      43.120000000000012      68.599999999999994
   246   1      9.8000000000000114      45.080000000000005      66.640000000000015
   247   1      9.8000000000000114      47.040000000000006      33.320000000000014
   248   1      7.8400000000000096      49.000000000000014      37.240000000000009
   249   1      9.8000000000000114      47.040000000000006      37.240000000000009
   250   1      9.8000000000000114      49.000000000000014      35.280000000000015
   251   1      7.8400000000000096      47.040000000000006       39.20000000000001
   252   1      7.8400000000000096      49.000000000000014      41.160000000000004
   253   1      9.8000000000000114      47.040000000000006      41.160000000000004
   254   1      9.8000000000000114      49.000000000000014       39.20000000000001
   255   1      7.8400000000000096      47.040000000000006      43.120000000000012
   256   1      7.8400000000000096      49.000000000000014      45.080000000000005
   257   1      9.8000000000000114      47.040000000000006      45.080000000000005
   258   1      9.8000000000000114      49.000000000000014      43.120000000000012
   259   1      7.8400000000000096      47.040000000000006      47.040000000000006
   260   1      7.8400000000000096      49.000000000000014      49.000000000000014
   261   1      9.8000000000000114      47.040000000000006      49.000000000000014
   262   1      9.8000000000000114      49.000000000000014      47.040000000000006
   263   1      7.8400000000000096      47.040000000000006      50.960000000000001
   264   1      7.8400000000000096      49.000000000000014      52.920000000000009
   265   1      9.8000000000000114      47.040000000000006      52.920000000000009
   266   1      9.8000000000000114      49.000000000000014      50.960000000000001
   267   1      7.8400000000000096      47.040000000000006      54.880000000000003
   268   1      7.8400000000000096      49.000000000000014      56.840000000000003
   269   1      9.8000000000000114      47.040000000000006      56.840000000000003
   270   1      9.8000000000000114      49.000000000000014      54.880000000000003
   271   1      7.8400000000000096      47.040000000000006      58.800000000000011
   272   1      7.8400000000000096      49.000000000000014      60.759999999999998
   273   1      9.8000000000000114      47.040000000000006      60.759999999999998
   274   1      9.8000000000000114      49.000000000000014      58.800000000000011
   275   1      7.8400000000000096      47.040000000000006      62.720000000000006
   276   1      7.8400000000000096      49.000000000000014      64.680000000000007
   277   1      9.8000000000000114      47.040000000000006      64.680000000000007
   278   1      9.8000000000000114      49.000000000000014      62.720000000000006
   279   1      9.8000000000000114      47.040000000000006      68.599999999999994
   280   1      9.8000000000000114      49.000000000000014      66.640000000000015
   281   1      9.8000000000000114      50.960000000000001      33.320000000000014
   282   1      7.8400000000000096      52.920000000000009      37.240000000000009
   283   1      9.8000000000000114      50.960000000000001      37.240000000000009
   284   1      9.8000000000000114      52.920000000000009      35.280000000000015
   285   1      7.8400000000000096      50.960000000000001       39.20000000000001
   286   1      7.8400000000000096      52.920000000000009      41.160000000000004
   287   1      9.8000000000000114      50.960000000000001      41.160000000000004
   288   1      9.8000000000000114      52.920000000000009       39.20000000000001
   289   1      7.8400000000000096      50.960000000000001      43.120000000000012
   290   1      7.8400000000000096      52.920000000000009      45.080000000000005
   291   1      9.8000000000000114      50.960000000000001      45.080000000000005
   292   1      9.8000000000000114      52.920000000000009      43.120000000000012
   293   1      7.8400000000000096      50.960000000000001      47.040000000000006
   294   1      7.8400000000000096      52.920000000000009      49.000000000000014
   295   1      9.8000000000000114      50.960000000000001      49.000000000000014
   296   1      9.8000000000000114      52.920000000000009      47.040000000000006
   297   1      7.8400000000000096      50.960000000000001      50.960000000000001
   298   1      7.8400000000000096      52.920000000000009      52.920000000000009
   299   1      9.8000000000000114      50.960000000000001      52.920000000000009
   300   1      9.8000000000000114      52.920000000000009      50.960000000000001
   301   1      7.8400000000000096      50.960000000000001      54.880000000000003
   302   1      7.8400000000000096      52.920000000000009      56.840000000000003
   303   1      9.8000000000000114      50.960000000000001      56.840000000000003
   304   1      9.8000000000000114      52.920000000000009      54.880000000000003
   305   1      7.8400000000000096      50.960000000000001      58.800000000000011
   306   1      7.8400000000000096      52.920000000000009      60.759999999999998
   307   1      9.8000000000000114      50.960000000000001      60.759999999999998
   308   1      9.8000000000000114      52.920000000000009      58.800000000000011
   309   1      7.8400000000000096      50.960000000000001      62.720000000000006
   310   1      7.8400000000000096      52.920000000000009      64.680000000000007
   311   1      9.8000000000000114      50.960000000000001      64.680000000000007
   312   1      9.8000000000000114      52.920000000000009      62.720000000000006
   313   1      9.8000000000000114      50.960000000000001      68.599999999999994
   314   1      9.8000000000000114      52.920000000000009      66.640000000000015
   315   1      9.8000000000000114      54.880000000000003      33.320000000000014
   316   1      7.8400000000000096      56.840000000000003      37.240000000000009
   317   1      9.8000000000000114      54.880000000000003      37.240000000000009
   318   1      9.8000000000000114      56.840000000000003      35.280000000000015
   319   1      7.8400000000000096      54.880000000000003       39.20000000000001
   320   1      7.8400000000000096      56.840000000000003      41.160000000000004
   321   1      9.8000000000000114      54.880000000000003      41.160000000000004
   322   1      9.8000000000000114      56.840000000000003       39.20000000000001
   323   1      7.8400000000000096      54.880000000000003      43.120000000000012
   324   1      7.8400000000000096      56.840000000000003      45.080000000000005
   325   1      9.8000000000000114      54.880000000000003      45.080000000000005
   326   1      9.8000000000000114      56.840000000000003      43.120000000000012
   327   1      7.8400000000000096      54.880000000000003      47.040000000000006
   328   1      7.8400000000000096      56.840000000000003      49.000000000000014
   329   1      9.8000000000000114      54.880000000000003      49.000000000000014
   330   1      9.8000000000000114      56.840000000000003      47.040000000000006
   331   1      7.8400000000000096      54.880000000000003      50.960000000000001
   332   1      7.8400000000000096      56.840000000000003      52.920000000000009
   333   1      9.8000000000000114      54.880000000000003      52.920000000000009
   334   1      9.8000000000000114      56.840000000000003      50.960000000000001
   335   1      7.8400000000000096      54.880000000000003      54.880000000000003
   336   1      7.8400000000000096      56.840000000000003      56.840000000000003
   337   1      9.8000000000000114      54.880000000000003      56.840000000000003
   338   1      9.8000000000000114      56.840000000000003      54.880000000000003
   339   1      7.8400000000000096      54.880000000000003      58.800000000000011
   340   1      7.8400000000000096      56.840000000000003      60.759999999999998
   341   1      9.8000000000000114      54.880000000000003      60.759999999999998
   342   1      9.8000000000000114      56.840000000000003      58.800000000000011
   343   1      7.8400000000000096      54.880000000000003      62.720000000000006
   344   1      7.8400000000000096      56.840000000000003      64.680000000000007
   345   1      9.8000000000000114      54.880000000000003      64.680000000000007
   346   1      9.8000000000000114      56.840000000000003      62.720000000000006
   347   1      9.8000000000000114      54.880000000000003      68.599999999999994
   348   1      9.8000000000000114      56.840000000000003      66.640000000000015
   349   1      9.8000000000000114      58.800000000000011      33.320000000000014
   350   1      7.8400000000000096      60.759999999999998      37.240000000000009
   351   1      9.8000000000000114      58.800000000000011      37.240000000000009
   352   1      9.8000000000000114      60.759999999999998      35.280000000000015
   353   1      7.8400000000000096      58.800000000000011       39.20000000000001
   354   1      7.8400000000000096      60.759999999999998      41.160000000000004
   355   1      9.8000000000000114      58.800000000000011      41.160000000000004
   356   1      9.8000000000000114      60.759999999999998       39.20000000000001
   357   1      7.8400000000000096      58.800000000000011      43.120000000000012
   358   1      7.8400000000000096      60.759999999999998      45.080000000000005