model_files/Ni/Ni_30000/Ni_311/data.Ni_311_fcc_30453 (written by ASE) 

30453 	 atoms 
1  atom types
0.0                      88  xlo xhi
0.0                      88  ylo yhi
0.0                      88  zlo zhi


Atoms 

     1   1  7.1054273576010019e-15      42.240000000000009      44.000000000000007
     2   1  7.1054273576010019e-15      44.000000000000007      42.240000000000009
     3   1  7.1054273576010019e-15      44.000000000000007      45.760000000000005
     4   1  7.1054273576010019e-15      45.760000000000005      44.000000000000007
     5   1      3.5200000000000102      31.680000000000007      44.000000000000007
     6   1      3.5200000000000102      33.440000000000012      42.240000000000009
     7   1      3.5200000000000102       35.20000000000001      40.480000000000011
     8   1      3.5200000000000102      33.440000000000012      45.760000000000005
     9   1      3.5200000000000102       35.20000000000001      44.000000000000007
    10   1      3.5200000000000102       35.20000000000001       47.52000000000001
    11   1      3.5200000000000102      36.960000000000008      38.720000000000006
    12   1      3.5200000000000102      38.720000000000006      36.960000000000008
    13   1      1.7600000000000122      38.720000000000006      42.240000000000009
    14   1      3.5200000000000102      36.960000000000008      42.240000000000009
    15   1      3.5200000000000102      38.720000000000006      40.480000000000011
    16   1      1.7600000000000122      36.960000000000008      44.000000000000007
    17   1      1.7600000000000122      38.720000000000006      45.760000000000005
    18   1      3.5200000000000102      36.960000000000008      45.760000000000005
    19   1      3.5200000000000102      38.720000000000006      44.000000000000007
    20   1      3.5200000000000102      36.960000000000008      49.280000000000015
    21   1      3.5200000000000102      38.720000000000006       47.52000000000001
    22   1      3.5200000000000102      38.720000000000006      51.040000000000006
    23   1      3.5200000000000102      40.480000000000011       35.20000000000001
    24   1      3.5200000000000102      42.240000000000009      33.440000000000012
    25   1      1.7600000000000122      42.240000000000009      38.720000000000006
    26   1      3.5200000000000102      40.480000000000011      38.720000000000006
    27   1      3.5200000000000102      42.240000000000009      36.960000000000008
    28   1      1.7600000000000122      40.480000000000011      40.480000000000011
    29   1      1.7600000000000122      42.240000000000009      42.240000000000009
    30   1      3.5200000000000102      40.480000000000011      42.240000000000009
    31   1      3.5200000000000102      42.240000000000009      40.480000000000011
    32   1      1.7600000000000122      40.480000000000011      44.000000000000007
    33   1      1.7600000000000122      42.240000000000009      45.760000000000005
    34   1      3.5200000000000102      40.480000000000011      45.760000000000005
    35   1      3.5200000000000102      42.240000000000009      44.000000000000007
    36   1      1.7600000000000122      40.480000000000011       47.52000000000001
    37   1      1.7600000000000122      42.240000000000009      49.280000000000015
    38   1      3.5200000000000102      40.480000000000011      49.280000000000015
    39   1      3.5200000000000102      42.240000000000009       47.52000000000001
    40   1      3.5200000000000102      40.480000000000011      52.800000000000011
    41   1      3.5200000000000102      42.240000000000009      51.040000000000006
    42   1      3.5200000000000102      42.240000000000009      54.560000000000009
    43   1      3.5200000000000102      44.000000000000007      31.680000000000007
    44   1      3.5200000000000102      44.000000000000007       35.20000000000001
    45   1      3.5200000000000102      45.760000000000005      33.440000000000012
    46   1      1.7600000000000122      44.000000000000007      36.960000000000008
    47   1      1.7600000000000122      45.760000000000005      38.720000000000006
    48   1      3.5200000000000102      44.000000000000007      38.720000000000006
    49   1      3.5200000000000102      45.760000000000005      36.960000000000008
    50   1      1.7600000000000122      44.000000000000007      40.480000000000011
    51   1      1.7600000000000122      45.760000000000005      42.240000000000009
    52   1      3.5200000000000102      44.000000000000007      42.240000000000009
    53   1      3.5200000000000102      45.760000000000005      40.480000000000011
    54   1      1.7600000000000122      44.000000000000007      44.000000000000007
    55   1      1.7600000000000122      45.760000000000005      45.760000000000005
    56   1      3.5200000000000102      44.000000000000007      45.760000000000005
    57   1      3.5200000000000102      45.760000000000005      44.000000000000007
    58   1      1.7600000000000122      44.000000000000007       47.52000000000001
    59   1      1.7600000000000122      45.760000000000005      49.280000000000015
    60   1      3.5200000000000102      44.000000000000007      49.280000000000015
    61   1      3.5200000000000102      45.760000000000005       47.52000000000001
    62   1      1.7600000000000122      44.000000000000007      51.040000000000006
    63   1      3.5200000000000102      44.000000000000007      52.800000000000011
    64   1      3.5200000000000102      45.760000000000005      51.040000000000006
    65   1      3.5200000000000102      44.000000000000007      56.320000000000007
    66   1      3.5200000000000102      45.760000000000005      54.560000000000009
    67   1      3.5200000000000102       47.52000000000001       35.20000000000001
    68   1      3.5200000000000102       47.52000000000001      38.720000000000006
    69   1      3.5200000000000102      49.280000000000015      36.960000000000008
    70   1      1.7600000000000122       47.52000000000001      40.480000000000011
    71   1      1.7600000000000122      49.280000000000015      42.240000000000009
    72   1      3.5200000000000102       47.52000000000001      42.240000000000009
    73   1      3.5200000000000102      49.280000000000015      40.480000000000011
    74   1      1.7600000000000122       47.52000000000001      44.000000000000007
    75   1      1.7600000000000122      49.280000000000015      45.760000000000005
    76   1      3.5200000000000102       47.52000000000001      45.760000000000005
    77   1      3.5200000000000102      49.280000000000015      44.000000000000007
    78   1      1.7600000000000122       47.52000000000001       47.52000000000001
    79   1      3.5200000000000102       47.52000000000001      49.280000000000015
    80   1      3.5200000000000102      49.280000000000015       47.52000000000001
    81   1      3.5200000000000102       47.52000000000001      52.800000000000011
    82   1      3.5200000000000102      49.280000000000015      51.040000000000006
    83   1      3.5200000000000102      51.040000000000006      38.720000000000006
    84   1      3.5200000000000102      51.040000000000006      42.240000000000009
    85   1      3.5200000000000102      52.800000000000011      40.480000000000011
    86   1      1.7600000000000122      51.040000000000006      44.000000000000007
    87   1      3.5200000000000102      51.040000000000006      45.760000000000005
    88   1      3.5200000000000102      52.800000000000011      44.000000000000007
    89   1      3.5200000000000102      51.040000000000006      49.280000000000015
    90   1      3.5200000000000102      52.800000000000011       47.52000000000001
    91   1      3.5200000000000102      54.560000000000009      42.240000000000009
    92   1      3.5200000000000102      54.560000000000009      45.760000000000005
    93   1      3.5200000000000102      56.320000000000007      44.000000000000007
    94   1      7.0400000000000134      21.120000000000012      44.000000000000007
    95   1      7.0400000000000134       22.88000000000001      42.240000000000009
    96   1      7.0400000000000134      24.640000000000011      40.480000000000011
    97   1      7.0400000000000134       22.88000000000001      45.760000000000005
    98   1      7.0400000000000134      24.640000000000011      44.000000000000007
    99   1      7.0400000000000134      24.640000000000011       47.52000000000001
   100   1      7.0400000000000134      26.400000000000009      38.720000000000006
   101   1      7.0400000000000134      28.160000000000011      36.960000000000008
   102   1      5.2800000000000082      28.160000000000011      42.240000000000009
   103   1      7.0400000000000134      26.400000000000009      42.240000000000009
   104   1      7.0400000000000134      28.160000000000011      40.480000000000011
   105   1      5.2800000000000082      26.400000000000009      44.000000000000007
   106   1      5.2800000000000082      28.160000000000011      45.760000000000005
   107   1      7.0400000000000134      26.400000000000009      45.760000000000005
   108   1      7.0400000000000134      28.160000000000011      44.000000000000007
   109   1      7.0400000000000134      26.400000000000009      49.280000000000015
   110   1      7.0400000000000134      28.160000000000011       47.52000000000001
   111   1      7.0400000000000134      28.160000000000011      51.040000000000006
   112   1      7.0400000000000134      29.920000000000012       35.20000000000001
   113   1      7.0400000000000134      31.680000000000007      33.440000000000012
   114   1      5.2800000000000082      31.680000000000007      38.720000000000006
   115   1      7.0400000000000134      29.920000000000012      38.720000000000006
   116   1      7.0400000000000134      31.680000000000007      36.960000000000008
   117   1      5.2800000000000082      29.920000000000012      40.480000000000011
   118   1      5.2800000000000082      31.680000000000007      42.240000000000009
   119   1      7.0400000000000134      29.920000000000012      42.240000000000009
   120   1      7.0400000000000134      31.680000000000007      40.480000000000011
   121   1      5.2800000000000082      29.920000000000012      44.000000000000007
   122   1      5.2800000000000082      31.680000000000007      45.760000000000005
   123   1      7.0400000000000134      29.920000000000012      45.760000000000005
   124   1      7.0400000000000134      31.680000000000007      44.000000000000007
   125   1      5.2800000000000082      29.920000000000012       47.52000000000001
   126   1      5.2800000000000082      31.680000000000007      49.280000000000015
   127   1      7.0400000000000134      29.920000000000012      49.280000000000015
   128   1      7.0400000000000134      31.680000000000007       47.52000000000001
   129   1      7.0400000000000134      29.920000000000012      52.800000000000011
   130   1      7.0400000000000134      31.680000000000007      51.040000000000006
   131   1      7.0400000000000134      31.680000000000007      54.560000000000009
   132   1      7.0400000000000134      33.440000000000012      31.680000000000007
   133   1      7.0400000000000134       35.20000000000001      29.920000000000012
   134   1      5.2800000000000082       35.20000000000001       35.20000000000001
   135   1      7.0400000000000134      33.440000000000012       35.20000000000001
   136   1      7.0400000000000134       35.20000000000001      33.440000000000012
   137   1      5.2800000000000082      33.440000000000012      36.960000000000008
   138   1      5.2800000000000082       35.20000000000001      38.720000000000006
   139   1      7.0400000000000134      33.440000000000012      38.720000000000006
   140   1      7.0400000000000134       35.20000000000001      36.960000000000008
   141   1      5.2800000000000082      33.440000000000012      40.480000000000011
   142   1      5.2800000000000082       35.20000000000001      42.240000000000009
   143   1      7.0400000000000134      33.440000000000012      42.240000000000009
   144   1      7.0400000000000134       35.20000000000001      40.480000000000011
   145   1      5.2800000000000082      33.440000000000012      44.000000000000007
   146   1      5.2800000000000082       35.20000000000001      45.760000000000005
   147   1      7.0400000000000134      33.440000000000012      45.760000000000005
   148   1      7.0400000000000134       35.20000000000001      44.000000000000007
   149   1      5.2800000000000082      33.440000000000012       47.52000000000001
   150   1      5.2800000000000082       35.20000000000001      49.280000000000015
   151   1      7.0400000000000134      33.440000000000012      49.280000000000015
   152   1      7.0400000000000134       35.20000000000001       47.52000000000001
   153   1      5.2800000000000082      33.440000000000012      51.040000000000006
   154   1      5.2800000000000082       35.20000000000001      52.800000000000011
   155   1      7.0400000000000134      33.440000000000012      52.800000000000011
   156   1      7.0400000000000134       35.20000000000001      51.040000000000006
   157   1      7.0400000000000134      33.440000000000012      56.320000000000007
   158   1      7.0400000000000134       35.20000000000001      54.560000000000009
   159   1      7.0400000000000134       35.20000000000001      58.080000000000013
   160   1      7.0400000000000134      36.960000000000008      28.160000000000011
   161   1      7.0400000000000134      38.720000000000006      26.400000000000009
   162   1      5.2800000000000082      38.720000000000006      31.680000000000007
   163   1      7.0400000000000134      36.960000000000008      31.680000000000007
   164   1      7.0400000000000134      38.720000000000006      29.920000000000012
   165   1      5.2800000000000082      36.960000000000008      33.440000000000012
   166   1      5.2800000000000082      38.720000000000006       35.20000000000001
   167   1      7.0400000000000134      36.960000000000008       35.20000000000001
   168   1      7.0400000000000134      38.720000000000006      33.440000000000012
   169   1      5.2800000000000082      36.960000000000008      36.960000000000008
   170   1      5.2800000000000082      38.720000000000006      38.720000000000006
   171   1      7.0400000000000134      36.960000000000008      38.720000000000006
   172   1      7.0400000000000134      38.720000000000006      36.960000000000008
   173   1      5.2800000000000082      36.960000000000008      40.480000000000011
   174   1      5.2800000000000082      38.720000000000006      42.240000000000009
   175   1      7.0400000000000134      36.960000000000008      42.240000000000009
   176   1      7.0400000000000134      38.720000000000006      40.480000000000011
   177   1      5.2800000000000082      36.960000000000008      44.000000000000007
   178   1      5.2800000000000082      38.720000000000006      45.760000000000005
   179   1      7.0400000000000134      36.960000000000008      45.760000000000005
   180   1      7.0400000000000134      38.720000000000006      44.000000000000007
   181   1      5.2800000000000082      36.960000000000008       47.52000000000001
   182   1      5.2800000000000082      38.720000000000006      49.280000000000015
   183   1      7.0400000000000134      36.960000000000008      49.280000000000015
   184   1      7.0400000000000134      38.720000000000006       47.52000000000001
   185   1      5.2800000000000082      36.960000000000008      51.040000000000006
   186   1      5.2800000000000082      38.720000000000006      52.800000000000011
   187   1      7.0400000000000134      36.960000000000008      52.800000000000011
   188   1      7.0400000000000134      38.720000000000006      51.040000000000006
   189   1      5.2800000000000082      36.960000000000008      54.560000000000009
   190   1      5.2800000000000082      38.720000000000006      56.320000000000007
   191   1      7.0400000000000134      36.960000000000008      56.320000000000007
   192   1      7.0400000000000134      38.720000000000006      54.560000000000009
   193   1      7.0400000000000134      36.960000000000008      59.840000000000018
   194   1      7.0400000000000134      38.720000000000006      58.080000000000013
   195   1      7.0400000000000134      38.720000000000006      61.600000000000009
   196   1      7.0400000000000134      40.480000000000011      24.640000000000011
   197   1      7.0400000000000134      42.240000000000009       22.88000000000001
   198   1      5.2800000000000082      42.240000000000009      28.160000000000011
   199   1      7.0400000000000134      40.480000000000011      28.160000000000011
   200   1      7.0400000000000134      42.240000000000009      26.400000000000009
   201   1      5.2800000000000082      40.480000000000011      29.920000000000012
   202   1      5.2800000000000082      42.240000000000009      31.680000000000007
   203   1      7.0400000000000134      40.480000000000011      31.680000000000007
   204   1      7.0400000000000134      42.240000000000009      29.920000000000012
   205   1      5.2800000000000082      40.480000000000011      33.440000000000012
   206   1      5.2800000000000082      42.240000000000009       35.20000000000001
   207   1      7.0400000000000134      40.480000000000011       35.20000000000001
   208   1      7.0400000000000134      42.240000000000009      33.440000000000012
   209   1      5.2800000000000082      40.480000000000011      36.960000000000008
   210   1      5.2800000000000082      42.240000000000009      38.720000000000006
   211   1      7.0400000000000134      40.480000000000011      38.720000000000006
   212   1      7.0400000000000134      42.240000000000009      36.960000000000008
   213   1      5.2800000000000082      40.480000000000011      40.480000000000011
   214   1      5.2800000000000082      42.240000000000009      42.240000000000009
   215   1      7.0400000000000134      40.480000000000011      42.240000000000009
   216   1      7.0400000000000134      42.240000000000009      40.480000000000011
   217   1      5.2800000000000082      40.480000000000011      44.000000000000007
   218   1      5.2800000000000082      42.240000000000009      45.760000000000005
   219   1      7.0400000000000134      40.480000000000011      45.760000000000005
   220   1      7.0400000000000134      42.240000000000009      44.000000000000007
   221   1      5.2800000000000082      40.480000000000011       47.52000000000001
   222   1      5.2800000000000082      42.240000000000009      49.280000000000015
   223   1      7.0400000000000134      40.480000000000011      49.280000000000015
   224   1      7.0400000000000134      42.240000000000009       47.52000000000001
   225   1      5.2800000000000082      40.480000000000011      51.040000000000006
   226   1      5.2800000000000082      42.240000000000009      52.800000000000011
   227   1      7.0400000000000134      40.480000000000011      52.800000000000011
   228   1      7.0400000000000134      42.240000000000009      51.040000000000006
   229   1      5.2800000000000082      40.480000000000011      54.560000000000009
   230   1      5.2800000000000082      42.240000000000009      56.320000000000007
   231   1      7.0400000000000134      40.480000000000011      56.320000000000007
   232   1      7.0400000000000134      42.240000000000009      54.560000000000009
   233   1      5.2800000000000082      40.480000000000011      58.080000000000013
   234   1      5.2800000000000082      42.240000000000009      59.840000000000018
   235   1      7.0400000000000134      40.480000000000011      59.840000000000018
   236   1      7.0400000000000134      42.240000000000009      58.080000000000013
   237   1      7.0400000000000134      40.480000000000011      63.360000000000014
   238   1      7.0400000000000134      42.240000000000009      61.600000000000009
   239   1      7.0400000000000134      42.240000000000009      65.120000000000005
   240   1      7.0400000000000134      44.000000000000007      21.120000000000012
   241   1      7.0400000000000134      44.000000000000007      24.640000000000011
   242   1      7.0400000000000134      45.760000000000005       22.88000000000001
   243   1      5.2800000000000082      44.000000000000007      26.400000000000009
   244   1      5.2800000000000082      45.760000000000005      28.160000000000011
   245   1      7.0400000000000134      44.000000000000007      28.160000000000011
   246   1      7.0400000000000134      45.760000000000005      26.400000000000009
   247   1      5.2800000000000082      44.000000000000007      29.920000000000012
   248   1      5.2800000000000082      45.760000000000005      31.680000000000007
   249   1      7.0400000000000134      44.000000000000007      31.680000000000007
   250   1      7.0400000000000134      45.760000000000005      29.920000000000012
   251   1      5.2800000000000082      44.000000000000007      33.440000000000012
   252   1      5.2800000000000082      45.760000000000005       35.20000000000001
   253   1      7.0400000000000134      44.000000000000007       35.20000000000001
   254   1      7.0400000000000134      45.760000000000005      33.440000000000012
   255   1      5.2800000000000082      44.000000000000007      36.960000000000008
   256   1      5.2800000000000082      45.760000000000005      38.720000000000006
   257   1      7.0400000000000134      44.000000000000007      38.720000000000006
   258   1      7.0400000000000134      45.760000000000005      36.960000000000008
   259   1      5.2800000000000082      44.000000000000007      40.480000000000011
   260   1      5.2800000000000082      45.760000000000005      42.240000000000009
   261   1      7.0400000000000134      44.000000000000007      42.240000000000009
   262   1      7.0400000000000134      45.760000000000005      40.480000000000011
   263   1      5.2800000000000082      44.000000000000007      44.000000000000007
   264   1      5.2800000000000082      45.760000000000005      45.760000000000005
   265   1      7.0400000000000134      44.000000000000007      45.760000000000005
   266   1      7.0400000000000134      45.760000000000005      44.000000000000007
   267   1      5.2800000000000082      44.000000000000007       47.52000000000001
   268   1      5.2800000000000082      45.760000000000005      49.280000000000015
   269   1      7.0400000000000134      44.000000000000007      49.280000000000015
   270   1      7.0400000000000134      45.760000000000005       47.52000000000001
   271   1      5.2800000000000082      44.000000000000007      51.040000000000006
   272   1      5.2800000000000082      45.760000000000005      52.800000000000011
   273   1      7.0400000000000134      44.000000000000007      52.800000000000011
   274   1      7.0400000000000134      45.760000000000005      51.040000000000006
   275   1      5.2800000000000082      44.000000000000007      54.560000000000009
   276   1      5.2800000000000082      45.760000000000005      56.320000000000007
   277   1      7.0400000000000134      44.000000000000007      56.320000000000007
   278   1      7.0400000000000134      45.760000000000005      54.560000000000009
   279   1      5.2800000000000082      44.000000000000007      58.080000000000013
   280   1      5.2800000000000082      45.760000000000005      59.840000000000018
   281   1      7.0400000000000134      44.000000000000007      59.840000000000018
   282   1      7.0400000000000134      45.760000000000005      58.080000000000013
   283   1      5.2800000000000082      44.000000000000007      61.600000000000009
   284   1      7.0400000000000134      44.000000000000007      63.360000000000014
   285   1      7.0400000000000134      45.760000000000005      61.600000000000009
   286   1      7.0400000000000134      44.000000000000007       66.88000000000001
   287   1      7.0400000000000134      45.760000000000005      65.120000000000005
   288   1      7.0400000000000134       47.52000000000001      24.640000000000011
   289   1      7.0400000000000134       47.52000000000001      28.160000000000011
   290   1      7.0400000000000134      49.280000000000015      26.400000000000009
   291   1      5.2800000000000082       47.52000000000001      29.920000000000012
   292   1      5.2800000000000082      49.280000000000015      31.680000000000007
   293   1      7.0400000000000134       47.52000000000001      31.680000000000007
   294   1      7.0400000000000134      49.280000000000015      29.920000000000012
   295   1      5.2800000000000082       47.52000000000001      33.440000000000012
   296   1      5.2800000000000082      49.280000000000015       35.20000000000001
   297   1      7.0400000000000134       47.52000000000001       35.20000000000001
   298   1      7.0400000000000134      49.280000000000015      33.440000000000012
   299   1      5.2800000000000082       47.52000000000001      36.960000000000008
   300   1      5.2800000000000082      49.280000000000015      38.720000000000006
   301   1      7.0400000000000134       47.52000000000001      38.720000000000006
   302   1      7.0400000000000134      49.280000000000015      36.960000000000008
   303   1      5.2800000000000082       47.52000000000001      40.480000000000011
   304   1      5.2800000000000082      49.280000000000015      42.240000000000009
   305   1      7.0400000000000134       47.52000000000001      42.240000000000009
   306   1      7.0400000000000134      49.280000000000015      40.480000000000011
   307   1      5.2800000000000082       47.52000000000001      44.000000000000007
   308   1      5.2800000000000082      49.280000000000015      45.760000000000005
   309   1      7.0400000000000134       47.52000000000001      45.760000000000005
   310   1      7.0400000000000134      49.280000000000015      44.000000000000007
   311   1      5.2800000000000082       47.52000000000001       47.52000000000001
   312   1      5.2800000000000082      49.280000000000015      49.280000000000015
   313   1      7.0400000000000134       47.52000000000001      49.280000000000015
   314   1      7.0400000000000134      49.280000000000015       47.52000000000001
   315   1      5.2800000000000082       47.52000000000001      51.040000000000006
   316   1      5.2800000000000082      49.280000000000015      52.800000000000011
   317   1      7.0400000000000134       47.52000000000001      52.800000000000011
   318   1      7.0400000000000134      49.280000000000015      51.040000000000006
   319   1      5.2800000000000082       47.52000000000001      54.560000000000009
   320   1      5.2800000000000082      49.280000000000015      56.320000000000007
   321   1      7.0400000000000134       47.52000000000001      56.320000000000007
   322   1      7.0400000000000134      49.280000000000015      54.560000000000009
   323   1      5.2800000000000082       47.52000000000001      58.080000000000013
   324   1      7.0400000000000134       47.52000000000001      59.840000000000018
   325   1      7.0400000000000134      49.280000000000015      58.080000000000013
   326   1      7.0400000000000134       47.52000000000001      63.360000000000014
   327   1      7.0400000000000134      49.280000000000015      61.600000000000009
   328   1      7.0400000000000134      51.040000000000006      28.160000000000011
   329   1      7.0400000000000134      51.040000000000006      31.680000000000007
   330   1      7.0400000000000134      52.800000000000011      29.920000000000012
   331   1      5.2800000000000082      51.040000000000006      33.440000000000012
   332   1      5.2800000000000082      52.800000000000011       35.20000000000001
   333   1      7.0400000000000134      51.040000000000006       35.20000000000001
   334   1      7.0400000000000134      52.800000000000011      33.440000000000012
   335   1      5.2800000000000082      51.040000000000006      36.960000000000008
   336   1      5.2800000000000082      52.800000000000011      38.720000000000006
   337   1      7.0400000000000134      51.040000000000006      38.720000000000006
   338   1      7.0400000000000134      52.800000000000011      36.960000000000008
   339   1      5.2800000000000082      51.040000000000006      40.480000000000011
   340   1      5.2800000000000082      52.800000000000011      42.240000000000009
   341   1      7.0400000000000134      51.040000000000006      42.240000000000009
   342   1      7.0400000000000134      52.800000000000011      40.480000000000011
   343   1      5.2800000000000082      51.040000000000006      44.000000000000007
   344   1      5.2800000000000082      52.800000000000011      45.760000000000005
   345   1      7.0400000000000134      51.040000000000006      45.760000000000005
   346   1      7.0400000000000134      52.800000000000011      44.000000000000007
   347   1      5.2800000000000082      51.040000000000006       47.52000000000001
   348   1      5.2800000000000082      52.800000000000011      49.280000000000015
   349   1      7.0400000000000134      51.040000000000006      49.280000000000015
   350   1      7.0400000000000134      52.800000000000011       47.52000000000001
   351   1      5.2800000000000082      51.040000000000006      51.040000000000006
   352   1      5.2800000000000082      52.800000000000011      52.800000000000011
   353   1      7.0400000000000134      51.040000000000006      52.800000000000011
   354   1      7.0400000000000134      52.800000000000011      51.040000000000006
   355   1      5.2800000000000082      51.040000000000006      54.560000000000009
   356   1      7.0400000000000134      51.040000000000006      56.320000000000007
   357   1      7.0400000000000134      52.800000000000011      54.560000000000009
   358   1      7.0400000000000134      51.040000000000006      59.840000000000018