LAMMPS data file via write_data, version 30 Nov 2020, timestep = 0

29831 atoms
5 atom types

0 95 xlo xhi
0 95 ylo yhi
0 95 zlo zhi

Masses

1 58.69
2 58.933
3 51.96
4 55.847
5 54.94

Atoms # atomic

1 3 0 44.9375 44.9375 0 0 0
2 3 1.7974999999999997 43.14 44.9375 0 0 0
3 3 1.7974999999999997 44.9375 43.14 0 0 0
6 5 1.7974999999999997 44.9375 46.73500000000001 0 0 0
9 3 1.7974999999999997 46.73500000000001 44.9375 0 0 0
11 4 0 46.73500000000001 46.73500000000001 0 0 0
18 4 5.392500000000005 35.95 37.7475 0 0 0
19 1 5.392500000000005 37.7475 35.95 0 0 0
20 5 5.392500000000005 35.95 41.3425 0 0 0
21 1 5.392500000000005 37.7475 39.545 0 0 0
22 1 5.392500000000005 35.95 44.9375 0 0 0
23 1 5.392500000000005 37.7475 43.14 0 0 0
25 4 5.392500000000005 37.7475 46.73500000000001 0 0 0
31 2 5.392500000000005 39.545 37.7475 0 0 0
32 3 5.392500000000005 41.3425 35.95 0 0 0
33 2 3.5949999999999993 39.545 39.545 0 0 0
34 3 3.5949999999999993 41.3425 41.3425 0 0 0
35 1 5.392500000000005 39.545 41.3425 0 0 0
36 4 5.392500000000005 41.3425 39.545 0 0 0
37 4 3.5949999999999993 39.545 43.14 0 0 0
38 5 3.5949999999999993 41.3425 44.9375 0 0 0
39 1 5.392500000000005 39.545 44.9375 0 0 0
40 1 5.392500000000005 41.3425 43.14 0 0 0
41 4 3.5949999999999993 39.545 46.73500000000001 0 0 0
44 5 5.392500000000005 41.3425 46.73500000000001 0 0 0
53 5 5.392500000000005 43.14 37.7475 0 0 0
54 3 5.392500000000005 44.9375 35.95 0 0 0
55 3 3.5949999999999993 43.14 39.545 0 0 0
56 2 3.5949999999999993 44.9375 41.3425 0 0 0
57 3 5.392500000000005 43.14 41.3425 0 0 0
58 5 5.392500000000005 44.9375 39.545 0 0 0
59 2 3.5949999999999993 43.14 43.14 0 0 0
60 1 3.5949999999999993 44.9375 44.9375 0 0 0
61 4 5.392500000000005 43.14 44.9375 0 0 0
62 1 5.392500000000005 44.9375 43.14 0 0 0
63 2 3.5949999999999993 43.14 46.73500000000001 0 0 0
66 3 5.392500000000005 44.9375 46.73500000000001 0 0 0
75 3 5.392500000000005 46.73500000000001 37.7475 0 0 0
77 1 3.5949999999999993 46.73500000000001 39.545 0 0 0
79 3 5.392500000000005 46.73500000000001 41.3425 0 0 0
81 1 3.5949999999999993 46.73500000000001 43.14 0 0 0
83 5 5.392500000000005 46.73500000000001 44.9375 0 0 0
85 2 3.5949999999999993 46.73500000000001 46.73500000000001 0 0 0
143 3 8.987500000000004 30.557500000000005 32.355000000000004 0 0 0
144 3 8.987500000000004 30.557500000000005 35.95 0 0 0
145 4 8.987500000000004 30.557500000000005 39.545 0 0 0
146 2 8.987500000000004 30.557500000000005 43.14 0 0 0
147 5 8.987500000000004 30.557500000000005 46.73500000000001 0 0 0
152 4 8.987500000000004 32.355000000000004 30.557500000000005 0 0 0
153 5 7.190000000000005 34.1525 34.1525 0 0 0
154 3 8.987500000000004 32.355000000000004 34.1525 0 0 0
155 2 8.987500000000004 34.1525 32.355000000000004 0 0 0
156 4 7.190000000000005 34.1525 37.7475 0 0 0
157 3 8.987500000000004 32.355000000000004 37.7475 0 0 0
158 4 8.987500000000004 34.1525 35.95 0 0 0
159 5 7.190000000000005 34.1525 41.3425 0 0 0
160 1 8.987500000000004 32.355000000000004 41.3425 0 0 0
161 1 8.987500000000004 34.1525 39.545 0 0 0
162 3 7.190000000000005 34.1525 44.9375 0 0 0
163 1 8.987500000000004 32.355000000000004 44.9375 0 0 0
164 4 8.987500000000004 34.1525 43.14 0 0 0
167 2 8.987500000000004 34.1525 46.73500000000001 0 0 0
179 2 8.987500000000004 35.95 30.557500000000005 0 0 0
180 4 7.190000000000005 37.7475 34.1525 0 0 0
181 2 8.987500000000004 35.95 34.1525 0 0 0
182 4 8.987500000000004 37.7475 32.355000000000004 0 0 0
183 3 7.190000000000005 35.95 35.95 0 0 0
184 2 7.190000000000005 37.7475 37.7475 0 0 0
185 5 8.987500000000004 35.95 37.7475 0 0 0
186 4 8.987500000000004 37.7475 35.95 0 0 0
187 5 7.190000000000005 35.95 39.545 0 0 0
188 3 7.190000000000005 37.7475 41.3425 0 0 0
189 5 8.987500000000004 35.95 41.3425 0 0 0
190 3 8.987500000000004 37.7475 39.545 0 0 0
191 2 7.190000000000005 35.95 43.14 0 0 0
192 4 7.190000000000005 37.7475 44.9375 0 0 0
193 3 8.987500000000004 35.95 44.9375 0 0 0
194 2 8.987500000000004 37.7475 43.14 0 0 0
195 3 7.190000000000005 35.95 46.73500000000001 0 0 0
198 5 8.987500000000004 37.7475 46.73500000000001 0 0 0
213 4 8.987500000000004 39.545 30.557500000000005 0 0 0
214 4 7.190000000000005 41.3425 34.1525 0 0 0
215 1 8.987500000000004 39.545 34.1525 0 0 0
216 2 8.987500000000004 41.3425 32.355000000000004 0 0 0
217 4 7.190000000000005 39.545 35.95 0 0 0
218 3 7.190000000000005 41.3425 37.7475 0 0 0
219 5 8.987500000000004 39.545 37.7475 0 0 0
220 4 8.987500000000004 41.3425 35.95 0 0 0
221 2 7.190000000000005 39.545 39.545 0 0 0
222 1 7.190000000000005 41.3425 41.3425 0 0 0
223 4 8.987500000000004 39.545 41.3425 0 0 0
224 4 8.987500000000004 41.3425 39.545 0 0 0
225 4 7.190000000000005 39.545 43.14 0 0 0
226 1 7.190000000000005 41.3425 44.9375 0 0 0
227 4 8.987500000000004 39.545 44.9375 0 0 0
228 4 8.987500000000004 41.3425 43.14 0 0 0
229 1 7.190000000000005 39.545 46.73500000000001 0 0 0
232 1 8.987500000000004 41.3425 46.73500000000001 0 0 0
247 3 8.987500000000004 43.14 30.557500000000005 0 0 0
248 3 7.190000000000005 44.9375 34.1525 0 0 0
249 4 8.987500000000004 43.14 34.1525 0 0 0
250 1 8.987500000000004 44.9375 32.355000000000004 0 0 0
251 1 7.190000000000005 43.14 35.95 0 0 0
252 2 7.190000000000005 44.9375 37.7475 0 0 0
253 3 8.987500000000004 43.14 37.7475 0 0 0
254 2 8.987500000000004 44.9375 35.95 0 0 0
255 2 7.190000000000005 43.14 39.545 0 0 0
256 5 7.190000000000005 44.9375 41.3425 0 0 0
257 5 8.987500000000004 43.14 41.3425 0 0 0
258 2 8.987500000000004 44.9375 39.545 0 0 0
259 2 7.190000000000005 43.14 43.14 0 0 0
260 4 7.190000000000005 44.9375 44.9375 0 0 0
261 2 8.987500000000004 43.14 44.9375 0 0 0
262 1 8.987500000000004 44.9375 43.14 0 0 0
263 3 7.190000000000005 43.14 46.73500000000001 0 0 0
266 5 8.987500000000004 44.9375 46.73500000000001 0 0 0
281 3 8.987500000000004 46.73500000000001 30.557500000000005 0 0 0
283 5 8.987500000000004 46.73500000000001 34.1525 0 0 0
285 1 7.190000000000005 46.73500000000001 35.95 0 0 0
287 4 8.987500000000004 46.73500000000001 37.7475 0 0 0
289 3 7.190000000000005 46.73500000000001 39.545 0 0 0
291 1 8.987500000000004 46.73500000000001 41.3425 0 0 0
293 3 7.190000000000005 46.73500000000001 43.14 0 0 0
295 1 8.987500000000004 46.73500000000001 44.9375 0 0 0
297 5 7.190000000000005 46.73500000000001 46.73500000000001 0 0 0
436 2 10.785000000000004 26.962500000000002 26.962500000000002 0 0 0
437 2 12.582500000000005 25.165000000000003 26.962500000000002 0 0 0
438 2 12.582500000000005 26.962500000000002 25.165000000000003 0 0 0
439 4 10.785000000000004 26.962500000000002 30.557500000000005 0 0 0
440 3 12.582500000000005 25.165000000000003 30.557500000000005 0 0 0
441 2 12.582500000000005 26.962500000000002 28.760000000000005 0 0 0
442 1 10.785000000000004 26.962500000000002 34.1525 0 0 0
443 1 12.582500000000005 25.165000000000003 34.1525 0 0 0
444 3 12.582500000000005 26.962500000000002 32.355000000000004 0 0 0
445 2 10.785000000000004 26.962500000000002 37.7475 0 0 0
446 3 12.582500000000005 25.165000000000003 37.7475 0 0 0
447 3 12.582500000000005 26.962500000000002 35.95 0 0 0
448 5 10.785000000000004 26.962500000000002 41.3425 0 0 0
449 5 12.582500000000005 25.165000000000003 41.3425 0 0 0
450 5 12.582500000000005 26.962500000000002 39.545 0 0 0
451 1 10.785000000000004 26.962500000000002 44.9375 0 0 0
452 2 12.582500000000005 25.165000000000003 44.9375 0 0 0
453 3 12.582500000000005 26.962500000000002 43.14 0 0 0
456 3 12.582500000000005 26.962500000000002 46.73500000000001 0 0 0
473 4 10.785000000000004 30.557500000000005 26.962500000000002 0 0 0
474 3 12.582500000000005 28.760000000000005 26.962500000000002 0 0 0
475 4 12.582500000000005 30.557500000000005 25.165000000000003 0 0 0
476 2 10.785000000000004 28.760000000000005 28.760000000000005 0 0 0
477 1 10.785000000000004 30.557500000000005 30.557500000000005 0 0 0
478 1 12.582500000000005 28.760000000000005 30.557500000000005 0 0 0
479 2 12.582500000000005 30.557500000000005 28.760000000000005 0 0 0
480 1 10.785000000000004 28.760000000000005 32.355000000000004 0 0 0
481 2 10.785000000000004 30.557500000000005 34.1525 0 0 0
482 2 12.582500000000005 28.760000000000005 34.1525 0 0 0
483 1 12.582500000000005 30.557500000000005 32.355000000000004 0 0 0
484 2 10.785000000000004 28.760000000000005 35.95 0 0 0
485 1 10.785000000000004 30.557500000000005 37.7475 0 0 0
486 1 12.582500000000005 28.760000000000005 37.7475 0 0 0
487 2 12.582500000000005 30.557500000000005 35.95 0 0 0
488 2 10.785000000000004 28.760000000000005 39.545 0 0 0
489 2 10.785000000000004 30.557500000000005 41.3425 0 0 0
490 5 12.582500000000005 28.760000000000005 41.3425 0 0 0
491 3 12.582500000000005 30.557500000000005 39.545 0 0 0
492 2 10.785000000000004 28.760000000000005 43.14 0 0 0
493 2 10.785000000000004 30.557500000000005 44.9375 0 0 0
494 2 12.582500000000005 28.760000000000005 44.9375 0 0 0
495 3 12.582500000000005 30.557500000000005 43.14 0 0 0
496 1 10.785000000000004 28.760000000000005 46.73500000000001 0 0 0
499 3 12.582500000000005 30.557500000000005 46.73500000000001 0 0 0
521 1 10.785000000000004 34.1525 26.962500000000002 0 0 0
522 1 12.582500000000005 32.355000000000004 26.962500000000002 0 0 0
523 5 12.582500000000005 34.1525 25.165000000000003 0 0 0
524 4 10.785000000000004 32.355000000000004 28.760000000000005 0 0 0
525 1 10.785000000000004 34.1525 30.557500000000005 0 0 0
526 4 12.582500000000005 32.355000000000004 30.557500000000005 0 0 0
527 2 12.582500000000005 34.1525 28.760000000000005 0 0 0
528 1 10.785000000000004 32.355000000000004 32.355000000000004 0 0 0
529 3 10.785000000000004 34.1525 34.1525 0 0 0
530 5 12.582500000000005 32.355000000000004 34.1525 0 0 0
531 3 12.582500000000005 34.1525 32.355000000000004 0 0 0
532 5 10.785000000000004 32.355000000000004 35.95 0 0 0
533 4 10.785000000000004 34.1525 37.7475 0 0 0
534 3 12.582500000000005 32.355000000000004 37.7475 0 0 0
535 2 12.582500000000005 34.1525 35.95 0 0 0
536 2 10.785000000000004 32.355000000000004 39.545 0 0 0
537 2 10.785000000000004 34.1525 41.3425 0 0 0
538 3 12.582500000000005 32.355000000000004 41.3425 0 0 0
539 2 12.582500000000005 34.1525 39.545 0 0 0
540 2 10.785000000000004 32.355000000000004 43.14 0 0 0
541 4 10.785000000000004 34.1525 44.9375 0 0 0
542 2 12.582500000000005 32.355000000000004 44.9375 0 0 0
543 5 12.582500000000005 34.1525 43.14 0 0 0
544 5 10.785000000000004 32.355000000000004 46.73500000000001 0 0 0
547 4 12.582500000000005 34.1525 46.73500000000001 0 0 0
569 3 10.785000000000004 37.7475 26.962500000000002 0 0 0
570 4 12.582500000000005 35.95 26.962500000000002 0 0 0
571 3 12.582500000000005 37.7475 25.165000000000003 0 0 0
572 3 10.785000000000004 35.95 28.760000000000005 0 0 0
573 1 10.785000000000004 37.7475 30.557500000000005 0 0 0
574 1 12.582500000000005 35.95 30.557500000000005 0 0 0
575 4 12.582500000000005 37.7475 28.760000000000005 0 0 0
576 4 10.785000000000004 35.95 32.355000000000004 0 0 0
577 1 10.785000000000004 37.7475 34.1525 0 0 0
578 2 12.582500000000005 35.95 34.1525 0 0 0
579 3 12.582500000000005 37.7475 32.355000000000004 0 0 0
580 3 10.785000000000004 35.95 35.95 0 0 0
581 2 10.785000000000004 37.7475 37.7475 0 0 0
582 2 12.582500000000005 35.95 37.7475 0 0 0
583 2 12.582500000000005 37.7475 35.95 0 0 0
584 4 10.785000000000004 35.95 39.545 0 0 0
585 4 10.785000000000004 37.7475 41.3425 0 0 0
586 4 12.582500000000005 35.95 41.3425 0 0 0
587 1 12.582500000000005 37.7475 39.545 0 0 0
588 5 10.785000000000004 35.95 43.14 0 0 0
589 2 10.785000000000004 37.7475 44.9375 0 0 0
590 1 12.582500000000005 35.95 44.9375 0 0 0
591 1 12.582500000000005 37.7475 43.14 0 0 0
592 2 10.785000000000004 35.95 46.73500000000001 0 0 0
595 3 12.582500000000005 37.7475 46.73500000000001 0 0 0
617 2 10.785000000000004 41.3425 26.962500000000002 0 0 0
618 3 12.582500000000005 39.545 26.962500000000002 0 0 0
619 4 12.582500000000005 41.3425 25.165000000000003 0 0 0
620 5 10.785000000000004 39.545 28.760000000000005 0 0 0
621 1 10.785000000000004 41.3425 30.557500000000005 0 0 0
622 4 12.582500000000005 39.545 30.557500000000005 0 0 0
623 3 12.582500000000005 41.3425 28.760000000000005 0 0 0
624 3 10.785000000000004 39.545 32.355000000000004 0 0 0
625 3 10.785000000000004 41.3425 34.1525 0 0 0
626 1 12.582500000000005 39.545 34.1525 0 0 0
627 4 12.582500000000005 41.3425 32.355000000000004 0 0 0
628 5 10.785000000000004 39.545 35.95 0 0 0
629 2 10.785000000000004 41.3425 37.7475 0 0 0
630 3 12.582500000000005 39.545 37.7475 0 0 0
631 2 12.582500000000005 41.3425 35.95 0 0 0
632 5 10.785000000000004 39.545 39.545 0 0 0
633 5 10.785000000000004 41.3425 41.3425 0 0 0
634 1 12.582500000000005 39.545 41.3425 0 0 0
635 1 12.582500000000005 41.3425 39.545 0 0 0
636 4 10.785000000000004 39.545 43.14 0 0 0
637 5 10.785000000000004 41.3425 44.9375 0 0 0
638 5 12.582500000000005 39.545 44.9375 0 0 0
639 2 12.582500000000005 41.3425 43.14 0 0 0
640 3 10.785000000000004 39.545 46.73500000000001 0 0 0
643 2 12.582500000000005 41.3425 46.73500000000001 0 0 0
665 2 10.785000000000004 44.9375 26.962500000000002 0 0 0
666 5 12.582500000000005 43.14 26.962500000000002 0 0 0
667 2 12.582500000000005 44.9375 25.165000000000003 0 0 0
668 4 10.785000000000004 43.14 28.760000000000005 0 0 0
669 4 10.785000000000004 44.9375 30.557500000000005 0 0 0
670 5 12.582500000000005 43.14 30.557500000000005 0 0 0
671 1 12.582500000000005 44.9375 28.760000000000005 0 0 0
672 2 10.785000000000004 43.14 32.355000000000004 0 0 0
673 1 10.785000000000004 44.9375 34.1525 0 0 0
674 2 12.582500000000005 43.14 34.1525 0 0 0
675 5 12.582500000000005 44.9375 32.355000000000004 0 0 0
676 5 10.785000000000004 43.14 35.95 0 0 0
677 5 10.785000000000004 44.9375 37.7475 0 0 0
678 4 12.582500000000005 43.14 37.7475 0 0 0
679 5 12.582500000000005 44.9375 35.95 0 0 0
680 4 10.785000000000004 43.14 39.545 0 0 0
681 4 10.785000000000004 44.9375 41.3425 0 0 0
682 4 12.582500000000005 43.14 41.3425 0 0 0
683 4 12.582500000000005 44.9375 39.545 0 0 0
684 4 10.785000000000004 43.14 43.14 0 0 0
685 2 10.785000000000004 44.9375 44.9375 0 0 0
686 1 12.582500000000005 43.14 44.9375 0 0 0
687 2 12.582500000000005 44.9375 43.14 0 0 0
688 4 10.785000000000004 43.14 46.73500000000001 0 0 0
691 4 12.582500000000005 44.9375 46.73500000000001 0 0 0
714 3 12.582500000000005 46.73500000000001 26.962500000000002 0 0 0
716 4 10.785000000000004 46.73500000000001 28.760000000000005 0 0 0
718 1 12.582500000000005 46.73500000000001 30.557500000000005 0 0 0
720 5 10.785000000000004 46.73500000000001 32.355000000000004 0 0 0
722 2 12.582500000000005 46.73500000000001 34.1525 0 0 0
724 5 10.785000000000004 46.73500000000001 35.95 0 0 0
726 2 12.582500000000005 46.73500000000001 37.7475 0 0 0
728 2 10.785000000000004 46.73500000000001 39.545 0 0 0
730 2 12.582500000000005 46.73500000000001 41.3425 0 0 0
732 1 10.785000000000004 46.73500000000001 43.14 0 0 0
734 5 12.582500000000005 46.73500000000001 44.9375 0 0 0
736 4 10.785000000000004 46.73500000000001 46.73500000000001 0 0 0
1013 4 16.177500000000002 17.975 19.7725 0 0 0
1014 4 16.177500000000002 19.7725 17.975 0 0 0
1015 1 16.177500000000002 17.975 23.367500000000003 0 0 0
1016 2 16.177500000000002 19.7725 21.570000000000004 0 0 0
1017 1 16.177500000000002 17.975 26.962500000000002 0 0 0
1018 1 16.177500000000002 19.7725 25.165000000000003 0 0 0
1019 5 16.177500000000002 17.975 30.557500000000005 0 0 0
1020 5 16.177500000000002 19.7725 28.760000000000005 0 0 0
1021 3 16.177500000000002 17.975 34.1525 0 0 0
1022 3 16.177500000000002 19.7725 32.355000000000004 0 0 0
1023 2 16.177500000000002 17.975 37.7475 0 0 0
1024 2 16.177500000000002 19.7725 35.95 0 0 0
1025 2 16.177500000000002 17.975 41.3425 0 0 0
1026 5 16.177500000000002 19.7725 39.545 0 0 0
1027 1 16.177500000000002 17.975 44.9375 0 0 0
1028 1 16.177500000000002 19.7725 43.14 0 0 0
1030 2 16.177500000000002 19.7725 46.73500000000001 0 0 0
1046 5 16.177500000000002 21.570000000000004 19.7725 0 0 0
1047 2 16.177500000000002 23.367500000000003 17.975 0 0 0
1048 3 14.380000000000003 21.570000000000004 21.570000000000004 0 0 0
1049 2 14.380000000000003 23.367500000000003 23.367500000000003 0 0 0
1050 1 16.177500000000002 21.570000000000004 23.367500000000003 0 0 0
1051 1 16.177500000000002 23.367500000000003 21.570000000000004 0 0 0
1052 2 14.380000000000003 21.570000000000004 25.165000000000003 0 0 0
1053 3 14.380000000000003 23.367500000000003 26.962500000000002 0 0 0
1054 4 16.177500000000002 21.570000000000004 26.962500000000002 0 0 0
1055 4 16.177500000000002 23.367500000000003 25.165000000000003 0 0 0
1056 1 14.380000000000003 21.570000000000004 28.760000000000005 0 0 0
1057 3 14.380000000000003 23.367500000000003 30.557500000000005 0 0 0
1058 5 16.177500000000002 21.570000000000004 30.557500000000005 0 0 0
1059 5 16.177500000000002 23.367500000000003 28.760000000000005 0 0 0
1060 3 14.380000000000003 21.570000000000004 32.355000000000004 0 0 0
1061 2 14.380000000000003 23.367500000000003 34.1525 0 0 0
1062 2 16.177500000000002 21.570000000000004 34.1525 0 0 0
1063 1 16.177500000000002 23.367500000000003 32.355000000000004 0 0 0
1064 2 14.380000000000003 21.570000000000004 35.95 0 0 0
1065 1 14.380000000000003 23.367500000000003 37.7475 0 0 0
1066 3 16.177500000000002 21.570000000000004 37.7475 0 0 0
1067 3 16.177500000000002 23.367500000000003 35.95 0 0 0
1068 1 14.380000000000003 21.570000000000004 39.545 0 0 0
1069 4 14.380000000000003 23.367500000000003 41.3425 0 0 0
1070 4 16.177500000000002 21.570000000000004 41.3425 0 0 0
1071 1 16.177500000000002 23.367500000000003 39.545 0 0 0
1072 3 14.380000000000003 21.570000000000004 43.14 0 0 0
1073 5 14.380000000000003 23.367500000000003 44.9375 0 0 0
1074 3 16.177500000000002 21.570000000000004 44.9375 0 0 0
1075 3 16.177500000000002 23.367500000000003 43.14 0 0 0
1076 2 14.380000000000003 21.570000000000004 46.73500000000001 0 0 0
1079 5 16.177500000000002 23.367500000000003 46.73500000000001 0 0 0
1108 2 16.177500000000002 25.165000000000003 19.7725 0 0 0
1109 2 16.177500000000002 26.962500000000002 17.975 0 0 0
1110 1 14.380000000000003 25.165000000000003 21.570000000000004 0 0 0
1111 4 14.380000000000003 26.962500000000002 23.367500000000003 0 0 0
1112 1 16.177500000000002 25.165000000000003 23.367500000000003 0 0 0
1113 4 16.177500000000002 26.962500000000002 21.570000000000004 0 0 0
1114 5 14.380000000000003 25.165000000000003 25.165000000000003 0 0 0
1115 1 14.380000000000003 26.962500000000002 26.962500000000002 0 0 0
1116 5 16.177500000000002 25.165000000000003 26.962500000000002 0 0 0
1117 2 16.177500000000002 26.962500000000002 25.165000000000003 0 0 0
1118 4 14.380000000000003 25.165000000000003 28.760000000000005 0 0 0
1119 2 14.380000000000003 26.962500000000002 30.557500000000005 0 0 0
1120 4 16.177500000000002 25.165000000000003 30.557500000000005 0 0 0
1121 3 16.177500000000002 26.962500000000002 28.760000000000005 0 0 0
1122 5 14.380000000000003 25.165000000000003 32.355000000000004 0 0 0
1123 2 14.380000000000003 26.962500000000002 34.1525 0 0 0
1124 1 16.177500000000002 25.165000000000003 34.1525 0 0 0
1125 4 16.177500000000002 26.962500000000002 32.355000000000004 0 0 0
1126 4 14.380000000000003 25.165000000000003 35.95 0 0 0
1127 3 14.380000000000003 26.962500000000002 37.7475 0 0 0
1128 3 16.177500000000002 25.165000000000003 37.7475 0 0 0
1129 2 16.177500000000002 26.962500000000002 35.95 0 0 0
1130 2 14.380000000000003 25.165000000000003 39.545 0 0 0
1131 3 14.380000000000003 26.962500000000002 41.3425 0 0 0
1132 4 16.177500000000002 25.165000000000003 41.3425 0 0 0
1133 5 16.177500000000002 26.962500000000002 39.545 0 0 0
1134 5 14.380000000000003 25.165000000000003 43.14 0 0 0
1135 3 14.380000000000003 26.962500000000002 44.9375 0 0 0
1136 1 16.177500000000002 25.165000000000003 44.9375 0 0 0
1137 3 16.177500000000002 26.962500000000002 43.14 0 0 0
1138 5 14.380000000000003 25.165000000000003 46.73500000000001 0 0 0
1141 5 16.177500000000002 26.962500000000002 46.73500000000001 0 0 0
1170 3 16.177500000000002 28.760000000000005 19.7725 0 0 0
1171 2 16.177500000000002 30.557500000000005 17.975 0 0 0
1172 3 14.380000000000003 28.760000000000005 21.570000000000004 0 0 0
1173 5 14.380000000000003 30.557500000000005 23.367500000000003 0 0 0
1174 1 16.177500000000002 28.760000000000005 23.367500000000003 0 0 0
1175 3 16.177500000000002 30.557500000000005 21.570000000000004 0 0 0
1176 1 14.380000000000003 28.760000000000005 25.165000000000003 0 0 0
1177 5 14.380000000000003 30.557500000000005 26.962500000000002 0 0 0
1178 1 16.177500000000002 28.760000000000005 26.962500000000002 0 0 0
1179 3 16.177500000000002 30.557500000000005 25.165000000000003 0 0 0
1180 4 14.380000000000003 28.760000000000005 28.760000000000005 0 0 0
1181 5 14.380000000000003 30.557500000000005 30.557500000000005 0 0 0
1182 3 16.177500000000002 28.760000000000005 30.557500000000005 0 0 0
1183 4 16.177500000000002 30.557500000000005 28.760000000000005 0 0 0
1184 5 14.380000000000003 28.760000000000005 32.355000000000004 0 0 0
1185 5 14.380000000000003 30.557500000000005 34.1525 0 0 0
1186 3 16.177500000000002 28.760000000000005 34.1525 0 0 0
1187 4 16.177500000000002 30.557500000000005 32.355000000000004 0 0 0
1188 5 14.380000000000003 28.760000000000005 35.95 0 0 0
1189 5 14.380000000000003 30.557500000000005 37.7475 0 0 0
1190 1 16.177500000000002 28.760000000000005 37.7475 0 0 0
1191 2 16.177500000000002 30.557500000000005 35.95 0 0 0
1192 4 14.380000000000003 28.760000000000005 39.545 0 0 0
1193 3 14.380000000000003 30.557500000000005 41.3425 0 0 0
1194 5 16.177500000000002 28.760000000000005 41.3425 0 0 0
1195 1 16.177500000000002 30.557500000000005 39.545 0 0 0
1196 5 14.380000000000003 28.760000000000005 43.14 0 0 0
1197 4 14.380000000000003 30.557500000000005 44.9375 0 0 0
1198 3 16.177500000000002 28.760000000000005 44.9375 0 0 0
1199 1 16.177500000000002 30.557500000000005 43.14 0 0 0
1200 4 14.380000000000003 28.760000000000005 46.73500000000001 0 0 0
1203 3 16.177500000000002 30.557500000000005 46.73500000000001 0 0 0
1232 3 16.177500000000002 32.355000000000004 19.7725 0 0 0
1233 1 16.177500000000002 34.1525 17.975 0 0 0
1234 1 14.380000000000003 32.355000000000004 21.570000000000004 0 0 0
1235 4 14.380000000000003 34.1525 23.367500000000003 0 0 0
1236 3 16.177500000000002 32.355000000000004 23.367500000000003 0 0 0
1237 5 16.177500000000002 34.1525 21.570000000000004 0 0 0
1238 4 14.380000000000003 32.355000000000004 25.165000000000003 0 0 0
1239 1 14.380000000000003 34.1525 26.962500000000002 0 0 0
1240 2 16.177500000000002 32.355000000000004 26.962500000000002 0 0 0
1241 5 16.177500000000002 34.1525 25.165000000000003 0 0 0
1242 2 14.380000000000003 32.355000000000004 28.760000000000005 0 0 0
1243 2 14.380000000000003 34.1525 30.557500000000005 0 0 0
1244 2 16.177500000000002 32.355000000000004 30.557500000000005 0 0 0
1245 2 16.177500000000002 34.1525 28.760000000000005 0 0 0
1246 1 14.380000000000003 32.355000000000004 32.355000000000004 0 0 0
1247 5 14.380000000000003 34.1525 34.1525 0 0 0
1248 3 16.177500000000002 32.355000000000004 34.1525 0 0 0
1249 5 16.177500000000002 34.1525 32.355000000000004 0 0 0
1250 2 14.380000000000003 32.355000000000004 35.95 0 0 0
1251 5 14.380000000000003 34.1525 37.7475 0 0 0
1252 5 16.177500000000002 32.355000000000004 37.7475 0 0 0
1253 4 16.177500000000002 34.1525 35.95 0 0 0
1254 3 14.380000000000003 32.355000000000004 39.545 0 0 0
1255 2 14.380000000000003 34.1525 41.3425 0 0 0
1256 5 16.177500000000002 32.355000000000004 41.3425 0 0 0
1257 1 16.177500000000002 34.1525 39.545 0 0 0
1258 5 14.380000000000003 32.355000000000004 43.14 0 0 0
1259 5 14.380000000000003 34.1525 44.9375 0 0 0
1260 1 16.177500000000002 32.355000000000004 44.9375 0 0 0
1261 3 16.177500000000002 34.1525 43.14 0 0 0
1262 2 14.380000000000003 32.355000000000004 46.73500000000001 0 0 0
1265 5 16.177500000000002 34.1525 46.73500000000001 0 0 0
1294 2 16.177500000000002 35.95 19.7725 0 0 0
1295 2 16.177500000000002 37.7475 17.975 0 0 0
1296 5 14.380000000000003 35.95 21.570000000000004 0 0 0
1297 5 14.380000000000003 37.7475 23.367500000000003 0 0 0
1298 3 16.177500000000002 35.95 23.367500000000003 0 0 0
1299 4 16.177500000000002 37.7475 21.570000000000004 0 0 0
1300 5 14.380000000000003 35.95 25.165000000000003 0 0 0
1301 2 14.380000000000003 37.7475 26.962500000000002 0 0 0
1302 1 16.177500000000002 35.95 26.962500000000002 0 0 0
1303 3 16.177500000000002 37.7475 25.165000000000003 0 0 0
1304 5 14.380000000000003 35.95 28.760000000000005 0 0 0
1305 3 14.380000000000003 37.7475 30.557500000000005 0 0 0
1306 1 16.177500000000002 35.95 30.557500000000005 0 0 0
1307 5 16.177500000000002 37.7475 28.760000000000005 0 0 0
1308 3 14.380000000000003 35.95 32.355000000000004 0 0 0
1309 3 14.380000000000003 37.7475 34.1525 0 0 0
1310 2 16.177500000000002 35.95 34.1525 0 0 0
1311 4 16.177500000000002 37.7475 32.355000000000004 0 0 0
1312 4 14.380000000000003 35.95 35.95 0 0 0
1313 4 14.380000000000003 37.7475 37.7475 0 0 0
1314 4 16.177500000000002 35.95 37.7475 0 0 0
1315 2 16.177500000000002 37.7475 35.95 0 0 0
1316 3 14.380000000000003 35.95 39.545 0 0 0
1317 4 14.380000000000003 37.7475 41.3425 0 0 0
1318 2 16.177500000000002 35.95 41.3425 0 0 0
1319 4 16.177500000000002 37.7475 39.545 0 0 0
1320 1 14.380000000000003 35.95 43.14 0 0 0
1321 2 14.380000000000003 37.7475 44.9375 0 0 0
1322 4 16.177500000000002 35.95 44.9375 0 0 0
1323 2 16.177500000000002 37.7475 43.14 0 0 0
1324 3 14.380000000000003 35.95 46.73500000000001 0 0 0
1327 2 16.177500000000002 37.7475 46.73500000000001 0 0 0
1356 5 16.177500000000002 39.545 19.7725 0 0 0
1357 1 16.177500000000002 41.3425 17.975 0 0 0
1358 3 14.380000000000003 39.545 21.570000000000004 0 0 0
1359 1 14.380000000000003 41.3425 23.367500000000003 0 0 0
1360 5 16.177500000000002 39.545 23.367500000000003 0 0 0
1361 5 16.177500000000002 41.3425 21.570000000000004 0 0 0
1362 5 14.380000000000003 39.545 25.165000000000003 0 0 0
1363 2 14.380000000000003 41.3425 26.962500000000002 0 0 0
1364 5 16.177500000000002 39.545 26.962500000000002 0 0 0
1365 2 16.177500000000002 41.3425 25.165000000000003 0 0 0
1366 1 14.380000000000003 39.545 28.760000000000005 0 0 0
1367 3 14.380000000000003 41.3425 30.557500000000005 0 0 0
1368 1 16.177500000000002 39.545 30.557500000000005 0 0 0
1369 5 16.177500000000002 41.3425 28.760000000000005 0 0 0
1370 5 14.380000000000003 39.545 32.355000000000004 0 0 0
1371 3 14.380000000000003 41.3425 34.1525 0 0 0
1372 5 16.177500000000002 39.545 34.1525 0 0 0
1373 2 16.177500000000002 41.3425 32.355000000000004 0 0 0
1374 1 14.380000000000003 39.545 35.95 0 0 0
1375 5 14.380000000000003 41.3425 37.7475 0 0 0
1376 5 16.177500000000002 39.545 37.7475 0 0 0
1377 5 16.177500000000002 41.3425 35.95 0 0 0
1378 4 14.380000000000003 39.545 39.545 0 0 0
1379 3 14.380000000000003 41.3425 41.3425 0 0 0
1380 1 16.177500000000002 39.545 41.3425 0 0 0
1381 5 16.177500000000002 41.3425 39.545 0 0 0
1382 3 14.380000000000003 39.545 43.14 0 0 0
1383 5 14.380000000000003 41.3425 44.9375 0 0 0
1384 3 16.177500000000002 39.545 44.9375 0 0 0
1385 4 16.177500000000002 41.3425 43.14 0 0 0
1386 4 14.380000000000003 39.545 46.73500000000001 0 0 0
1389 5 16.177500000000002 41.3425 46.73500000000001 0 0 0
1418 2 16.177500000000002 43.14 19.7725 0 0 0
1419 5 16.177500000000002 44.9375 17.975 0 0 0
1420 3 14.380000000000003 43.14 21.570000000000004 0 0 0
1421 5 14.380000000000003 44.9375 23.367500000000003 0 0 0
1422 2 16.177500000000002 43.14 23.367500000000003 0 0 0
1423 3 16.177500000000002 44.9375 21.570000000000004 0 0 0
1424 2 14.380000000000003 43.14 25.165000000000003 0 0 0
1425 3 14.380000000000003 44.9375 26.962500000000002 0 0 0
1426 1 16.177500000000002 43.14 26.962500000000002 0 0 0
1427 2 16.177500000000002 44.9375 25.165000000000003 0 0 0
1428 5 14.380000000000003 43.14 28.760000000000005 0 0 0
1429 5 14.380000000000003 44.9375 30.557500000000005 0 0 0
1430 1 16.177500000000002 43.14 30.557500000000005 0 0 0
1431 5 16.177500000000002 44.9375 28.760000000000005 0 0 0
1432 2 14.380000000000003 43.14 32.355000000000004 0 0 0
1433 5 14.380000000000003 44.9375 34.1525 0 0 0
1434 3 16.177500000000002 43.14 34.1525 0 0 0
1435 4 16.177500000000002 44.9375 32.355000000000004 0 0 0
1436 2 14.380000000000003 43.14 35.95 0 0 0
1437 2 14.380000000000003 44.9375 37.7475 0 0 0
1438 1 16.177500000000002 43.14 37.7475 0 0 0
1439 1 16.177500000000002 44.9375 35.95 0 0 0
1440 5 14.380000000000003 43.14 39.545 0 0 0
1441 3 14.380000000000003 44.9375 41.3425 0 0 0
1442 5 16.177500000000002 43.14 41.3425 0 0 0
1443 4 16.177500000000002 44.9375 39.545 0 0 0
1444 3 14.380000000000003 43.14 43.14 0 0 0
1445 1 14.380000000000003 44.9375 44.9375 0 0 0
1446 3 16.177500000000002 43.14 44.9375 0 0 0
1447 5 16.177500000000002 44.9375 43.14 0 0 0
1448 3 14.380000000000003 43.14 46.73500000000001 0 0 0
1451 3 16.177500000000002 44.9375 46.73500000000001 0 0 0
1480 5 16.177500000000002 46.73500000000001 19.7725 0 0 0
1482 2 14.380000000000003 46.73500000000001 21.570000000000004 0 0 0
1484 5 16.177500000000002 46.73500000000001 23.367500000000003 0 0 0
1486 2 14.380000000000003 46.73500000000001 25.165000000000003 0 0 0
1488 3 16.177500000000002 46.73500000000001 26.962500000000002 0 0 0
1490 3 14.380000000000003 46.73500000000001 28.760000000000005 0 0 0
1492 2 16.177500000000002 46.73500000000001 30.557500000000005 0 0 0
1494 5 14.380000000000003 46.73500000000001 32.355000000000004 0 0 0
1496 1 16.177500000000002 46.73500000000001 34.1525 0 0 0
1498 3 14.380000000000003 46.73500000000001 35.95 0 0 0
1500 4 16.177500000000002 46.73500000000001 37.7475 0 0 0
1502 1 14.380000000000003 46.73500000000001 39.545 0 0 0
1504 3 16.177500000000002 46.73500000000001 41.3425 0 0 0
1506 5 14.380000000000003 46.73500000000001 43.14 0 0 0
1508 3 16.177500000000002 46.73500000000001 44.9375 0 0 0
1510 5 14.380000000000003 46.73500000000001 46.73500000000001 0 0 0
1978 5 17.975 16.177500000000002 19.7725 0 0 0