model_files/CuNi/CuNi_30000/CuNi_311/CuNi_311_fcc_30453_temp.data (written by ASE) 

30453 	 atoms 
2  atom types
0.0                      91  xlo xhi
0.0                      91  ylo yhi
0.0                      91  zlo zhi


Atoms 

     1   1                       0      42.792000000000002       44.57500000000001
     2   1                       0       44.57500000000001      42.792000000000002
     3   1                       0       44.57500000000001      46.358000000000011
     4   1                       0      46.358000000000011       44.57500000000001
     5   1      3.5660000000000029      32.094000000000008       44.57500000000001
     6   1      3.5660000000000029      33.877000000000002      42.792000000000002
     7   1      3.5660000000000029      35.660000000000011      41.009000000000007
     8   1      3.5660000000000029      33.877000000000002      46.358000000000011
     9   1      3.5660000000000029      35.660000000000011       44.57500000000001
    10   1      3.5660000000000029      35.660000000000011      48.141000000000012
    11   1      3.5660000000000029      37.443000000000005      39.226000000000013
    12   1      3.5660000000000029      39.226000000000013      37.443000000000005
    13   1      1.7830000000000015      39.226000000000013      42.792000000000002
    14   1      3.5660000000000029      37.443000000000005      42.792000000000002
    15   1      3.5660000000000029      39.226000000000013      41.009000000000007
    16   1      1.7830000000000015      37.443000000000005       44.57500000000001
    17   1      1.7830000000000015      39.226000000000013      46.358000000000011
    18   1      3.5660000000000029      37.443000000000005      46.358000000000011
    19   1      3.5660000000000029      39.226000000000013       44.57500000000001
    20   1      3.5660000000000029      37.443000000000005      49.924000000000007
    21   1      3.5660000000000029      39.226000000000013      48.141000000000012
    22   1      3.5660000000000029      39.226000000000013      51.707000000000008
    23   1      3.5660000000000029      41.009000000000007      35.660000000000011
    24   1      3.5660000000000029      42.792000000000002      33.877000000000002
    25   1      1.7830000000000015      42.792000000000002      39.226000000000013
    26   1      3.5660000000000029      41.009000000000007      39.226000000000013
    27   1      3.5660000000000029      42.792000000000002      37.443000000000005
    28   1      1.7830000000000015      41.009000000000007      41.009000000000007
    29   1      1.7830000000000015      42.792000000000002      42.792000000000002
    30   1      3.5660000000000029      41.009000000000007      42.792000000000002
    31   1      3.5660000000000029      42.792000000000002      41.009000000000007
    32   1      1.7830000000000015      41.009000000000007       44.57500000000001
    33   1      1.7830000000000015      42.792000000000002      46.358000000000011
    34   1      3.5660000000000029      41.009000000000007      46.358000000000011
    35   1      3.5660000000000029      42.792000000000002       44.57500000000001
    36   1      1.7830000000000015      41.009000000000007      48.141000000000012
    37   1      1.7830000000000015      42.792000000000002      49.924000000000007
    38   1      3.5660000000000029      41.009000000000007      49.924000000000007
    39   1      3.5660000000000029      42.792000000000002      48.141000000000012
    40   1      3.5660000000000029      41.009000000000007      53.490000000000009
    41   1      3.5660000000000029      42.792000000000002      51.707000000000008
    42   1      3.5660000000000029      42.792000000000002       55.27300000000001
    43   1      3.5660000000000029       44.57500000000001      32.094000000000008
    44   1      3.5660000000000029       44.57500000000001      35.660000000000011
    45   1      3.5660000000000029      46.358000000000011      33.877000000000002
    46   1      1.7830000000000015       44.57500000000001      37.443000000000005
    47   1      1.7830000000000015      46.358000000000011      39.226000000000013
    48   1      3.5660000000000029       44.57500000000001      39.226000000000013
    49   1      3.5660000000000029      46.358000000000011      37.443000000000005
    50   1      1.7830000000000015       44.57500000000001      41.009000000000007
    51   1      1.7830000000000015      46.358000000000011      42.792000000000002
    52   1      3.5660000000000029       44.57500000000001      42.792000000000002
    53   1      3.5660000000000029      46.358000000000011      41.009000000000007
    54   1      1.7830000000000015       44.57500000000001       44.57500000000001
    55   1      1.7830000000000015      46.358000000000011      46.358000000000011
    56   1      3.5660000000000029       44.57500000000001      46.358000000000011
    57   1      3.5660000000000029      46.358000000000011       44.57500000000001
    58   1      1.7830000000000015       44.57500000000001      48.141000000000012
    59   1      1.7830000000000015      46.358000000000011      49.924000000000007
    60   1      3.5660000000000029       44.57500000000001      49.924000000000007
    61   1      3.5660000000000029      46.358000000000011      48.141000000000012
    62   1      1.7830000000000015       44.57500000000001      51.707000000000008
    63   1      3.5660000000000029       44.57500000000001      53.490000000000009
    64   1      3.5660000000000029      46.358000000000011      51.707000000000008
    65   1      3.5660000000000029       44.57500000000001      57.056000000000004
    66   1      3.5660000000000029      46.358000000000011       55.27300000000001
    67   1      3.5660000000000029      48.141000000000012      35.660000000000011
    68   1      3.5660000000000029      48.141000000000012      39.226000000000013
    69   1      3.5660000000000029      49.924000000000007      37.443000000000005
    70   1      1.7830000000000015      48.141000000000012      41.009000000000007
    71   1      1.7830000000000015      49.924000000000007      42.792000000000002
    72   1      3.5660000000000029      48.141000000000012      42.792000000000002
    73   1      3.5660000000000029      49.924000000000007      41.009000000000007
    74   1      1.7830000000000015      48.141000000000012       44.57500000000001
    75   1      1.7830000000000015      49.924000000000007      46.358000000000011
    76   1      3.5660000000000029      48.141000000000012      46.358000000000011
    77   1      3.5660000000000029      49.924000000000007       44.57500000000001
    78   1      1.7830000000000015      48.141000000000012      48.141000000000012
    79   1      3.5660000000000029      48.141000000000012      49.924000000000007
    80   1      3.5660000000000029      49.924000000000007      48.141000000000012
    81   1      3.5660000000000029      48.141000000000012      53.490000000000009
    82   1      3.5660000000000029      49.924000000000007      51.707000000000008
    83   1      3.5660000000000029      51.707000000000008      39.226000000000013
    84   1      3.5660000000000029      51.707000000000008      42.792000000000002
    85   1      3.5660000000000029      53.490000000000009      41.009000000000007
    86   1      1.7830000000000015      51.707000000000008       44.57500000000001
    87   1      3.5660000000000029      51.707000000000008      46.358000000000011
    88   1      3.5660000000000029      53.490000000000009       44.57500000000001
    89   1      3.5660000000000029      51.707000000000008      49.924000000000007
    90   1      3.5660000000000029      53.490000000000009      48.141000000000012
    91   1      3.5660000000000029       55.27300000000001      42.792000000000002
    92   1      3.5660000000000029       55.27300000000001      46.358000000000011
    93   1      3.5660000000000029      57.056000000000004       44.57500000000001
    94   1      7.1319999999999979      21.396000000000001       44.57500000000001
    95   1      7.1319999999999979      23.179000000000006      42.792000000000002
    96   1      7.1319999999999979      24.962000000000003      41.009000000000007
    97   1      7.1319999999999979      23.179000000000006      46.358000000000011
    98   1      7.1319999999999979      24.962000000000003       44.57500000000001
    99   1      7.1319999999999979      24.962000000000003      48.141000000000012
   100   1      7.1319999999999979      26.745000000000005      39.226000000000013
   101   1      7.1319999999999979      28.528000000000002      37.443000000000005
   102   1      5.3489999999999966      28.528000000000002      42.792000000000002
   103   1      7.1319999999999979      26.745000000000005      42.792000000000002
   104   1      7.1319999999999979      28.528000000000002      41.009000000000007
   105   1      5.3489999999999966      26.745000000000005       44.57500000000001
   106   1      5.3489999999999966      28.528000000000002      46.358000000000011
   107   1      7.1319999999999979      26.745000000000005      46.358000000000011
   108   1      7.1319999999999979      28.528000000000002       44.57500000000001
   109   1      7.1319999999999979      26.745000000000005      49.924000000000007
   110   1      7.1319999999999979      28.528000000000002      48.141000000000012
   111   1      7.1319999999999979      28.528000000000002      51.707000000000008
   112   1      7.1319999999999979      30.311000000000003      35.660000000000011
   113   1      7.1319999999999979      32.094000000000008      33.877000000000002
   114   1      5.3489999999999966      32.094000000000008      39.226000000000013
   115   1      7.1319999999999979      30.311000000000003      39.226000000000013
   116   1      7.1319999999999979      32.094000000000008      37.443000000000005
   117   1      5.3489999999999966      30.311000000000003      41.009000000000007
   118   1      5.3489999999999966      32.094000000000008      42.792000000000002
   119   1      7.1319999999999979      30.311000000000003      42.792000000000002
   120   1      7.1319999999999979      32.094000000000008      41.009000000000007
   121   1      5.3489999999999966      30.311000000000003       44.57500000000001
   122   1      5.3489999999999966      32.094000000000008      46.358000000000011
   123   1      7.1319999999999979      30.311000000000003      46.358000000000011
   124   1      7.1319999999999979      32.094000000000008       44.57500000000001
   125   1      5.3489999999999966      30.311000000000003      48.141000000000012
   126   1      5.3489999999999966      32.094000000000008      49.924000000000007
   127   1      7.1319999999999979      30.311000000000003      49.924000000000007
   128   1      7.1319999999999979      32.094000000000008      48.141000000000012
   129   1      7.1319999999999979      30.311000000000003      53.490000000000009
   130   1      7.1319999999999979      32.094000000000008      51.707000000000008
   131   1      7.1319999999999979      32.094000000000008       55.27300000000001
   132   1      7.1319999999999979      33.877000000000002      32.094000000000008
   133   1      7.1319999999999979      35.660000000000011      30.311000000000003
   134   1      5.3489999999999966      35.660000000000011      35.660000000000011
   135   1      7.1319999999999979      33.877000000000002      35.660000000000011
   136   1      7.1319999999999979      35.660000000000011      33.877000000000002
   137   1      5.3489999999999966      33.877000000000002      37.443000000000005
   138   1      5.3489999999999966      35.660000000000011      39.226000000000013
   139   1      7.1319999999999979      33.877000000000002      39.226000000000013
   140   1      7.1319999999999979      35.660000000000011      37.443000000000005
   141   1      5.3489999999999966      33.877000000000002      41.009000000000007
   142   1      5.3489999999999966      35.660000000000011      42.792000000000002
   143   1      7.1319999999999979      33.877000000000002      42.792000000000002
   144   1      7.1319999999999979      35.660000000000011      41.009000000000007
   145   1      5.3489999999999966      33.877000000000002       44.57500000000001
   146   1      5.3489999999999966      35.660000000000011      46.358000000000011
   147   1      7.1319999999999979      33.877000000000002      46.358000000000011
   148   1      7.1319999999999979      35.660000000000011       44.57500000000001
   149   1      5.3489999999999966      33.877000000000002      48.141000000000012
   150   1      5.3489999999999966      35.660000000000011      49.924000000000007
   151   1      7.1319999999999979      33.877000000000002      49.924000000000007
   152   1      7.1319999999999979      35.660000000000011      48.141000000000012
   153   1      5.3489999999999966      33.877000000000002      51.707000000000008
   154   1      5.3489999999999966      35.660000000000011      53.490000000000009
   155   1      7.1319999999999979      33.877000000000002      53.490000000000009
   156   1      7.1319999999999979      35.660000000000011      51.707000000000008
   157   1      7.1319999999999979      33.877000000000002      57.056000000000004
   158   1      7.1319999999999979      35.660000000000011       55.27300000000001
   159   1      7.1319999999999979      35.660000000000011      58.839000000000013
   160   1      7.1319999999999979      37.443000000000005      28.528000000000002
   161   1      7.1319999999999979      39.226000000000013      26.745000000000005
   162   1      5.3489999999999966      39.226000000000013      32.094000000000008
   163   1      7.1319999999999979      37.443000000000005      32.094000000000008
   164   1      7.1319999999999979      39.226000000000013      30.311000000000003
   165   1      5.3489999999999966      37.443000000000005      33.877000000000002
   166   1      5.3489999999999966      39.226000000000013      35.660000000000011
   167   1      7.1319999999999979      37.443000000000005      35.660000000000011
   168   1      7.1319999999999979      39.226000000000013      33.877000000000002
   169   1      5.3489999999999966      37.443000000000005      37.443000000000005
   170   1      5.3489999999999966      39.226000000000013      39.226000000000013
   171   1      7.1319999999999979      37.443000000000005      39.226000000000013
   172   1      7.1319999999999979      39.226000000000013      37.443000000000005
   173   1      5.3489999999999966      37.443000000000005      41.009000000000007
   174   1      5.3489999999999966      39.226000000000013      42.792000000000002
   175   1      7.1319999999999979      37.443000000000005      42.792000000000002
   176   1      7.1319999999999979      39.226000000000013      41.009000000000007
   177   1      5.3489999999999966      37.443000000000005       44.57500000000001
   178   1      5.3489999999999966      39.226000000000013      46.358000000000011
   179   1      7.1319999999999979      37.443000000000005      46.358000000000011
   180   1      7.1319999999999979      39.226000000000013       44.57500000000001
   181   1      5.3489999999999966      37.443000000000005      48.141000000000012
   182   1      5.3489999999999966      39.226000000000013      49.924000000000007
   183   1      7.1319999999999979      37.443000000000005      49.924000000000007
   184   1      7.1319999999999979      39.226000000000013      48.141000000000012
   185   1      5.3489999999999966      37.443000000000005      51.707000000000008
   186   1      5.3489999999999966      39.226000000000013      53.490000000000009
   187   1      7.1319999999999979      37.443000000000005      53.490000000000009
   188   1      7.1319999999999979      39.226000000000013      51.707000000000008
   189   1      5.3489999999999966      37.443000000000005       55.27300000000001
   190   1      5.3489999999999966      39.226000000000013      57.056000000000004
   191   1      7.1319999999999979      37.443000000000005      57.056000000000004
   192   1      7.1319999999999979      39.226000000000013       55.27300000000001
   193   1      7.1319999999999979      37.443000000000005      60.622000000000014
   194   1      7.1319999999999979      39.226000000000013      58.839000000000013
   195   1      7.1319999999999979      39.226000000000013      62.405000000000001
   196   1      7.1319999999999979      41.009000000000007      24.962000000000003
   197   1      7.1319999999999979      42.792000000000002      23.179000000000006
   198   1      5.3489999999999966      42.792000000000002      28.528000000000002
   199   1      7.1319999999999979      41.009000000000007      28.528000000000002
   200   1      7.1319999999999979      42.792000000000002      26.745000000000005
   201   1      5.3489999999999966      41.009000000000007      30.311000000000003
   202   1      5.3489999999999966      42.792000000000002      32.094000000000008
   203   1      7.1319999999999979      41.009000000000007      32.094000000000008
   204   1      7.1319999999999979      42.792000000000002      30.311000000000003
   205   1      5.3489999999999966      41.009000000000007      33.877000000000002
   206   1      5.3489999999999966      42.792000000000002      35.660000000000011
   207   1      7.1319999999999979      41.009000000000007      35.660000000000011
   208   1      7.1319999999999979      42.792000000000002      33.877000000000002
   209   1      5.3489999999999966      41.009000000000007      37.443000000000005
   210   1      5.3489999999999966      42.792000000000002      39.226000000000013
   211   1      7.1319999999999979      41.009000000000007      39.226000000000013
   212   1      7.1319999999999979      42.792000000000002      37.443000000000005
   213   1      5.3489999999999966      41.009000000000007      41.009000000000007
   214   1      5.3489999999999966      42.792000000000002      42.792000000000002
   215   1      7.1319999999999979      41.009000000000007      42.792000000000002
   216   1      7.1319999999999979      42.792000000000002      41.009000000000007
   217   1      5.3489999999999966      41.009000000000007       44.57500000000001
   218   1      5.3489999999999966      42.792000000000002      46.358000000000011
   219   1      7.1319999999999979      41.009000000000007      46.358000000000011
   220   1      7.1319999999999979      42.792000000000002       44.57500000000001
   221   1      5.3489999999999966      41.009000000000007      48.141000000000012
   222   1      5.3489999999999966      42.792000000000002      49.924000000000007
   223   1      7.1319999999999979      41.009000000000007      49.924000000000007
   224   1      7.1319999999999979      42.792000000000002      48.141000000000012
   225   1      5.3489999999999966      41.009000000000007      51.707000000000008
   226   1      5.3489999999999966      42.792000000000002      53.490000000000009
   227   1      7.1319999999999979      41.009000000000007      53.490000000000009
   228   1      7.1319999999999979      42.792000000000002      51.707000000000008
   229   1      5.3489999999999966      41.009000000000007       55.27300000000001
   230   1      5.3489999999999966      42.792000000000002      57.056000000000004
   231   1      7.1319999999999979      41.009000000000007      57.056000000000004
   232   1      7.1319999999999979      42.792000000000002       55.27300000000001
   233   1      5.3489999999999966      41.009000000000007      58.839000000000013
   234   1      5.3489999999999966      42.792000000000002      60.622000000000014
   235   1      7.1319999999999979      41.009000000000007      60.622000000000014
   236   1      7.1319999999999979      42.792000000000002      58.839000000000013
   237   1      7.1319999999999979      41.009000000000007      64.188000000000017
   238   1      7.1319999999999979      42.792000000000002      62.405000000000001
   239   1      7.1319999999999979      42.792000000000002      65.971000000000004
   240   1      7.1319999999999979       44.57500000000001      21.396000000000001
   241   1      7.1319999999999979       44.57500000000001      24.962000000000003
   242   1      7.1319999999999979      46.358000000000011      23.179000000000006
   243   1      5.3489999999999966       44.57500000000001      26.745000000000005
   244   1      5.3489999999999966      46.358000000000011      28.528000000000002
   245   1      7.1319999999999979       44.57500000000001      28.528000000000002
   246   1      7.1319999999999979      46.358000000000011      26.745000000000005
   247   1      5.3489999999999966       44.57500000000001      30.311000000000003
   248   1      5.3489999999999966      46.358000000000011      32.094000000000008
   249   1      7.1319999999999979       44.57500000000001      32.094000000000008
   250   1      7.1319999999999979      46.358000000000011      30.311000000000003
   251   1      5.3489999999999966       44.57500000000001      33.877000000000002
   252   1      5.3489999999999966      46.358000000000011      35.660000000000011
   253   1      7.1319999999999979       44.57500000000001      35.660000000000011
   254   1      7.1319999999999979      46.358000000000011      33.877000000000002
   255   1      5.3489999999999966       44.57500000000001      37.443000000000005
   256   1      5.3489999999999966      46.358000000000011      39.226000000000013
   257   1      7.1319999999999979       44.57500000000001      39.226000000000013
   258   1      7.1319999999999979      46.358000000000011      37.443000000000005
   259   1      5.3489999999999966       44.57500000000001      41.009000000000007
   260   1      5.3489999999999966      46.358000000000011      42.792000000000002
   261   1      7.1319999999999979       44.57500000000001      42.792000000000002
   262   1      7.1319999999999979      46.358000000000011      41.009000000000007
   263   1      5.3489999999999966       44.57500000000001       44.57500000000001
   264   1      5.3489999999999966      46.358000000000011      46.358000000000011
   265   1      7.1319999999999979       44.57500000000001      46.358000000000011
   266   1      7.1319999999999979      46.358000000000011       44.57500000000001
   267   1      5.3489999999999966       44.57500000000001      48.141000000000012
   268   1      5.3489999999999966      46.358000000000011      49.924000000000007
   269   1      7.1319999999999979       44.57500000000001      49.924000000000007
   270   1      7.1319999999999979      46.358000000000011      48.141000000000012
   271   1      5.3489999999999966       44.57500000000001      51.707000000000008
   272   1      5.3489999999999966      46.358000000000011      53.490000000000009
   273   1      7.1319999999999979       44.57500000000001      53.490000000000009
   274   1      7.1319999999999979      46.358000000000011      51.707000000000008
   275   1      5.3489999999999966       44.57500000000001       55.27300000000001
   276   1      5.3489999999999966      46.358000000000011      57.056000000000004
   277   1      7.1319999999999979       44.57500000000001      57.056000000000004
   278   1      7.1319999999999979      46.358000000000011       55.27300000000001
   279   1      5.3489999999999966       44.57500000000001      58.839000000000013
   280   1      5.3489999999999966      46.358000000000011      60.622000000000014
   281   1      7.1319999999999979       44.57500000000001      60.622000000000014
   282   1      7.1319999999999979      46.358000000000011      58.839000000000013
   283   1      5.3489999999999966       44.57500000000001      62.405000000000001
   284   1      7.1319999999999979       44.57500000000001      64.188000000000017
   285   1      7.1319999999999979      46.358000000000011      62.405000000000001
   286   1      7.1319999999999979       44.57500000000001      67.754000000000005
   287   1      7.1319999999999979      46.358000000000011      65.971000000000004
   288   1      7.1319999999999979      48.141000000000012      24.962000000000003
   289   1      7.1319999999999979      48.141000000000012      28.528000000000002
   290   1      7.1319999999999979      49.924000000000007      26.745000000000005
   291   1      5.3489999999999966      48.141000000000012      30.311000000000003
   292   1      5.3489999999999966      49.924000000000007      32.094000000000008
   293   1      7.1319999999999979      48.141000000000012      32.094000000000008
   294   1      7.1319999999999979      49.924000000000007      30.311000000000003
   295   1      5.3489999999999966      48.141000000000012      33.877000000000002
   296   1      5.3489999999999966      49.924000000000007      35.660000000000011
   297   1      7.1319999999999979      48.141000000000012      35.660000000000011
   298   1      7.1319999999999979      49.924000000000007      33.877000000000002
   299   1      5.3489999999999966      48.141000000000012      37.443000000000005
   300   1      5.3489999999999966      49.924000000000007      39.226000000000013
   301   1      7.1319999999999979      48.141000000000012      39.226000000000013
   302   1      7.1319999999999979      49.924000000000007      37.443000000000005
   303   1      5.3489999999999966      48.141000000000012      41.009000000000007
   304   1      5.3489999999999966      49.924000000000007      42.792000000000002
   305   1      7.1319999999999979      48.141000000000012      42.792000000000002
   306   1      7.1319999999999979      49.924000000000007      41.009000000000007
   307   1      5.3489999999999966      48.141000000000012       44.57500000000001
   308   1      5.3489999999999966      49.924000000000007      46.358000000000011
   309   1      7.1319999999999979      48.141000000000012      46.358000000000011
   310   1      7.1319999999999979      49.924000000000007       44.57500000000001
   311   1      5.3489999999999966      48.141000000000012      48.141000000000012
   312   1      5.3489999999999966      49.924000000000007      49.924000000000007
   313   1      7.1319999999999979      48.141000000000012      49.924000000000007
   314   1      7.1319999999999979      49.924000000000007      48.141000000000012
   315   1      5.3489999999999966      48.141000000000012      51.707000000000008
   316   1      5.3489999999999966      49.924000000000007      53.490000000000009
   317   1      7.1319999999999979      48.141000000000012      53.490000000000009
   318   1      7.1319999999999979      49.924000000000007      51.707000000000008
   319   1      5.3489999999999966      48.141000000000012       55.27300000000001
   320   1      5.3489999999999966      49.924000000000007      57.056000000000004
   321   1      7.1319999999999979      48.141000000000012      57.056000000000004
   322   1      7.1319999999999979      49.924000000000007       55.27300000000001
   323   1      5.3489999999999966      48.141000000000012      58.839000000000013
   324   1      7.1319999999999979      48.141000000000012      60.622000000000014
   325   1      7.1319999999999979      49.924000000000007      58.839000000000013
   326   1      7.1319999999999979      48.141000000000012      64.188000000000017
   327   1      7.1319999999999979      49.924000000000007      62.405000000000001
   328   1      7.1319999999999979      51.707000000000008      28.528000000000002
   329   1      7.1319999999999979      51.707000000000008      32.094000000000008
   330   1      7.1319999999999979      53.490000000000009      30.311000000000003
   331   1      5.3489999999999966      51.707000000000008      33.877000000000002
   332   1      5.3489999999999966      53.490000000000009      35.660000000000011
   333   1      7.1319999999999979      51.707000000000008      35.660000000000011
   334   1      7.1319999999999979      53.490000000000009      33.877000000000002
   335   1      5.3489999999999966      51.707000000000008      37.443000000000005
   336   1      5.3489999999999966      53.490000000000009      39.226000000000013
   337   1      7.1319999999999979      51.707000000000008      39.226000000000013
   338   1      7.1319999999999979      53.490000000000009      37.443000000000005
   339   1      5.3489999999999966      51.707000000000008      41.009000000000007
   340   1      5.3489999999999966      53.490000000000009      42.792000000000002
   341   1      7.1319999999999979      51.707000000000008      42.792000000000002
   342   1      7.1319999999999979      53.490000000000009      41.009000000000007
   343   1      5.3489999999999966      51.707000000000008       44.57500000000001
   344   1      5.3489999999999966      53.490000000000009      46.358000000000011
   345   1      7.1319999999999979      51.707000000000008      46.358000000000011
   346   1      7.1319999999999979      53.490000000000009       44.57500000000001
   347   1      5.3489999999999966      51.707000000000008      48.141000000000012
   348   1      5.3489999999999966      53.490000000000009      49.924000000000007
   349   1      7.1319999999999979      51.707000000000008      49.924000000000007
   350   1      7.1319999999999979      53.490000000000009      48.141000000000012
   351   1      5.3489999999999966      51.707000000000008      51.707000000000008
   352   1      5.3489999999999966      53.490000000000009      53.490000000000009
   353   1      7.1319999999999979      51.707000000000008      53.490000000000009
   354   1      7.1319999999999979      53.490000000000009      51.707000000000008
   355   1      5.3489999999999966      51.707000000000008       55.27300000000001
   356   1      7.1319999999999979      51.707000000000008      57.056000000000004
   357   1      7.1319999999999979      53.490000000000009       55.27300000000001
   358   1      7.1319999999999979      51.707000000000008      60.622000000000014