LAMMPS data file via write_data, version 30 Nov 2020, timestep = 0

30213 atoms
5 atom types

0 101 xlo xhi
0 101 ylo yhi
0 101 zlo zhi

Masses

1 58.7
2 55.8
3 52
4 59
5 63

Atoms # atomic

1 4 1.7850000000000037 44.625 49.980000000000004 0 0 0
2 3 1.7850000000000037 46.410000000000004 48.195 0 0 0
3 5 1.7850000000000037 48.195 46.410000000000004 0 0 0
5 1 1.7850000000000037 48.195 49.980000000000004 0 0 0
7 5 1.7850000000000037 49.980000000000004 44.625 0 0 0
8 5 1.7850000000000037 49.980000000000004 48.195 0 0 0
10 1 7.105427357601002e-15 49.980000000000004 49.980000000000004 0 0 0
18 2 5.355000000000004 41.055 46.410000000000004 0 0 0
19 2 5.355000000000004 41.055 49.980000000000004 0 0 0
21 5 5.355000000000004 42.84 44.625 0 0 0
22 1 5.355000000000004 44.625 42.84 0 0 0
23 4 3.5700000000000074 44.625 48.195 0 0 0
24 5 5.355000000000004 42.84 48.195 0 0 0
25 1 5.355000000000004 44.625 46.410000000000004 0 0 0
26 4 3.5700000000000074 42.84 49.980000000000004 0 0 0
29 3 5.355000000000004 44.625 49.980000000000004 0 0 0
33 4 5.355000000000004 46.410000000000004 41.055 0 0 0
34 5 3.5700000000000074 48.195 44.625 0 0 0
35 3 5.355000000000004 46.410000000000004 44.625 0 0 0
36 4 5.355000000000004 48.195 42.84 0 0 0
37 3 3.5700000000000074 46.410000000000004 46.410000000000004 0 0 0
38 2 3.5700000000000074 48.195 48.195 0 0 0
39 1 5.355000000000004 46.410000000000004 48.195 0 0 0
40 2 5.355000000000004 48.195 46.410000000000004 0 0 0
41 4 3.5700000000000074 46.410000000000004 49.980000000000004 0 0 0
44 3 5.355000000000004 48.195 49.980000000000004 0 0 0
51 2 5.355000000000004 49.980000000000004 41.055 0 0 0
52 3 3.5700000000000074 49.980000000000004 42.84 0 0 0
54 3 5.355000000000004 49.980000000000004 44.625 0 0 0
56 5 3.5700000000000074 49.980000000000004 46.410000000000004 0 0 0
58 3 5.355000000000004 49.980000000000004 48.195 0 0 0
60 4 3.5700000000000074 49.980000000000004 49.980000000000004 0 0 0
95 3 8.925000000000004 33.915 49.980000000000004 0 0 0
96 5 8.925000000000004 37.485 42.84 0 0 0
97 2 7.140000000000008 37.485 48.195 0 0 0
98 2 8.925000000000004 35.7 48.195 0 0 0
99 3 8.925000000000004 37.485 46.410000000000004 0 0 0
100 3 7.140000000000008 35.7 49.980000000000004 0 0 0
103 2 8.925000000000004 37.485 49.980000000000004 0 0 0
106 5 8.925000000000004 39.27 41.055 0 0 0
107 1 8.925000000000004 41.055 39.27 0 0 0
108 1 7.140000000000008 41.055 44.625 0 0 0
109 4 8.925000000000004 39.27 44.625 0 0 0
110 2 8.925000000000004 41.055 42.84 0 0 0
111 1 7.140000000000008 39.27 46.410000000000004 0 0 0
112 2 7.140000000000008 41.055 48.195 0 0 0
113 1 8.925000000000004 39.27 48.195 0 0 0
114 4 8.925000000000004 41.055 46.410000000000004 0 0 0
115 1 7.140000000000008 39.27 49.980000000000004 0 0 0
118 2 8.925000000000004 41.055 49.980000000000004 0 0 0
126 2 8.925000000000004 42.84 37.485 0 0 0
127 1 7.140000000000008 44.625 41.055 0 0 0
128 2 8.925000000000004 42.84 41.055 0 0 0
129 2 8.925000000000004 44.625 39.27 0 0 0
130 2 7.140000000000008 42.84 42.84 0 0 0
131 3 7.140000000000008 44.625 44.625 0 0 0
132 1 8.925000000000004 42.84 44.625 0 0 0
133 3 8.925000000000004 44.625 42.84 0 0 0
134 1 7.140000000000008 42.84 46.410000000000004 0 0 0
135 3 7.140000000000008 44.625 48.195 0 0 0
136 2 8.925000000000004 42.84 48.195 0 0 0
137 2 8.925000000000004 44.625 46.410000000000004 0 0 0
138 3 7.140000000000008 42.84 49.980000000000004 0 0 0
141 1 8.925000000000004 44.625 49.980000000000004 0 0 0
152 2 7.140000000000008 48.195 37.485 0 0 0
153 4 8.925000000000004 46.410000000000004 37.485 0 0 0
154 2 8.925000000000004 48.195 35.7 0 0 0
155 1 7.140000000000008 46.410000000000004 39.27 0 0 0
156 3 7.140000000000008 48.195 41.055 0 0 0
157 2 8.925000000000004 46.410000000000004 41.055 0 0 0
158 1 8.925000000000004 48.195 39.27 0 0 0
159 1 7.140000000000008 46.410000000000004 42.84 0 0 0
160 2 7.140000000000008 48.195 44.625 0 0 0
161 1 8.925000000000004 46.410000000000004 44.625 0 0 0
162 5 8.925000000000004 48.195 42.84 0 0 0
163 5 7.140000000000008 46.410000000000004 46.410000000000004 0 0 0
164 4 7.140000000000008 48.195 48.195 0 0 0
165 2 8.925000000000004 46.410000000000004 48.195 0 0 0
166 2 8.925000000000004 48.195 46.410000000000004 0 0 0
167 5 7.140000000000008 46.410000000000004 49.980000000000004 0 0 0
170 5 8.925000000000004 48.195 49.980000000000004 0 0 0
184 5 8.925000000000004 49.980000000000004 33.915 0 0 0
185 5 7.140000000000008 49.980000000000004 35.7 0 0 0
187 4 8.925000000000004 49.980000000000004 37.485 0 0 0
189 3 7.140000000000008 49.980000000000004 39.27 0 0 0
191 4 8.925000000000004 49.980000000000004 41.055 0 0 0
193 3 7.140000000000008 49.980000000000004 42.84 0 0 0
195 4 8.925000000000004 49.980000000000004 44.625 0 0 0
197 1 7.140000000000008 49.980000000000004 46.410000000000004 0 0 0
199 1 8.925000000000004 49.980000000000004 48.195 0 0 0
201 3 7.140000000000008 49.980000000000004 49.980000000000004 0 0 0
292 2 12.495000000000005 26.775000000000006 49.980000000000004 0 0 0
293 4 12.495000000000005 28.560000000000002 48.195 0 0 0
294 4 12.495000000000005 30.345 46.410000000000004 0 0 0
296 2 12.495000000000005 30.345 49.980000000000004 0 0 0
298 4 12.495000000000005 33.915 39.27 0 0 0
299 3 10.710000000000008 33.915 44.625 0 0 0
300 4 12.495000000000005 32.13 44.625 0 0 0
301 1 12.495000000000005 33.915 42.84 0 0 0
302 5 10.710000000000008 32.13 46.410000000000004 0 0 0
303 5 10.710000000000008 33.915 48.195 0 0 0
304 2 12.495000000000005 32.13 48.195 0 0 0
305 2 12.495000000000005 33.915 46.410000000000004 0 0 0
306 2 10.710000000000008 32.13 49.980000000000004 0 0 0
309 1 12.495000000000005 33.915 49.980000000000004 0 0 0
316 5 12.495000000000005 35.7 37.485 0 0 0
317 2 12.495000000000005 37.485 35.7 0 0 0
318 1 10.710000000000008 37.485 41.055 0 0 0
319 2 12.495000000000005 35.7 41.055 0 0 0
320 5 12.495000000000005 37.485 39.27 0 0 0
321 3 10.710000000000008 35.7 42.84 0 0 0
322 1 10.710000000000008 37.485 44.625 0 0 0
323 5 12.495000000000005 35.7 44.625 0 0 0
324 1 12.495000000000005 37.485 42.84 0 0 0
325 2 10.710000000000008 35.7 46.410000000000004 0 0 0
326 2 10.710000000000008 37.485 48.195 0 0 0
327 3 12.495000000000005 35.7 48.195 0 0 0
328 5 12.495000000000005 37.485 46.410000000000004 0 0 0
329 3 10.710000000000008 35.7 49.980000000000004 0 0 0
332 3 12.495000000000005 37.485 49.980000000000004 0 0 0
344 5 12.495000000000005 39.27 33.915 0 0 0
345 5 10.710000000000008 41.055 37.485 0 0 0
346 1 12.495000000000005 39.27 37.485 0 0 0
347 2 12.495000000000005 41.055 35.7 0 0 0
348 2 10.710000000000008 39.27 39.27 0 0 0
349 2 10.710000000000008 41.055 41.055 0 0 0
350 5 12.495000000000005 39.27 41.055 0 0 0
351 5 12.495000000000005 41.055 39.27 0 0 0
352 2 10.710000000000008 39.27 42.84 0 0 0
353 3 10.710000000000008 41.055 44.625 0 0 0
354 3 12.495000000000005 39.27 44.625 0 0 0
355 2 12.495000000000005 41.055 42.84 0 0 0
356 5 10.710000000000008 39.27 46.410000000000004 0 0 0
357 3 10.710000000000008 41.055 48.195 0 0 0
358 3 12.495000000000005 39.27 48.195 0 0 0
359 5 12.495000000000005 41.055 46.410000000000004 0 0 0
360 3 10.710000000000008 39.27 49.980000000000004 0 0 0
363 5 12.495000000000005 41.055 49.980000000000004 0 0 0
378 4 10.710000000000008 44.625 33.915 0 0 0
379 5 12.495000000000005 42.84 33.915 0 0 0
380 3 12.495000000000005 44.625 32.13 0 0 0
381 4 10.710000000000008 42.84 35.7 0 0 0
382 1 10.710000000000008 44.625 37.485 0 0 0
383 1 12.495000000000005 42.84 37.485 0 0 0
384 2 12.495000000000005 44.625 35.7 0 0 0
385 5 10.710000000000008 42.84 39.27 0 0 0
386 5 10.710000000000008 44.625 41.055 0 0 0
387 5 12.495000000000005 42.84 41.055 0 0 0
388 4 12.495000000000005 44.625 39.27 0 0 0
389 1 10.710000000000008 42.84 42.84 0 0 0
390 4 10.710000000000008 44.625 44.625 0 0 0
391 2 12.495000000000005 42.84 44.625 0 0 0
392 1 12.495000000000005 44.625 42.84 0 0 0
393 5 10.710000000000008 42.84 46.410000000000004 0 0 0
394 2 10.710000000000008 44.625 48.195 0 0 0
395 5 12.495000000000005 42.84 48.195 0 0 0
396 3 12.495000000000005 44.625 46.410000000000004 0 0 0
397 3 10.710000000000008 42.84 49.980000000000004 0 0 0
400 2 12.495000000000005 44.625 49.980000000000004 0 0 0
418 3 12.495000000000005 46.410000000000004 30.345 0 0 0
419 5 12.495000000000005 48.195 28.560000000000002 0 0 0
420 2 10.710000000000008 46.410000000000004 32.13 0 0 0
421 4 10.710000000000008 48.195 33.915 0 0 0
422 5 12.495000000000005 46.410000000000004 33.915 0 0 0
423 1 12.495000000000005 48.195 32.13 0 0 0
424 3 10.710000000000008 46.410000000000004 35.7 0 0 0
425 5 10.710000000000008 48.195 37.485 0 0 0
426 5 12.495000000000005 46.410000000000004 37.485 0 0 0
427 3 12.495000000000005 48.195 35.7 0 0 0
428 1 10.710000000000008 46.410000000000004 39.27 0 0 0
429 1 10.710000000000008 48.195 41.055 0 0 0
430 3 12.495000000000005 46.410000000000004 41.055 0 0 0
431 5 12.495000000000005 48.195 39.27 0 0 0
432 3 10.710000000000008 46.410000000000004 42.84 0 0 0
433 2 10.710000000000008 48.195 44.625 0 0 0
434 3 12.495000000000005 46.410000000000004 44.625 0 0 0
435 2 12.495000000000005 48.195 42.84 0 0 0
436 3 10.710000000000008 46.410000000000004 46.410000000000004 0 0 0
437 5 10.710000000000008 48.195 48.195 0 0 0
438 3 12.495000000000005 46.410000000000004 48.195 0 0 0
439 4 12.495000000000005 48.195 46.410000000000004 0 0 0
440 5 10.710000000000008 46.410000000000004 49.980000000000004 0 0 0
443 3 12.495000000000005 48.195 49.980000000000004 0 0 0
464 4 12.495000000000005 49.980000000000004 26.775000000000006 0 0 0
465 1 12.495000000000005 49.980000000000004 30.345 0 0 0
467 1 10.710000000000008 49.980000000000004 32.13 0 0 0
469 5 12.495000000000005 49.980000000000004 33.915 0 0 0
471 4 10.710000000000008 49.980000000000004 35.7 0 0 0
473 5 12.495000000000005 49.980000000000004 37.485 0 0 0
475 1 10.710000000000008 49.980000000000004 39.27 0 0 0
477 5 12.495000000000005 49.980000000000004 41.055 0 0 0
479 1 10.710000000000008 49.980000000000004 42.84 0 0 0
481 3 12.495000000000005 49.980000000000004 44.625 0 0 0
483 4 10.710000000000008 49.980000000000004 46.410000000000004 0 0 0
485 4 12.495000000000005 49.980000000000004 48.195 0 0 0
487 3 10.710000000000008 49.980000000000004 49.980000000000004 0 0 0
661 1 16.065000000000005 23.205000000000005 46.410000000000004 0 0 0
662 1 16.065000000000005 23.205000000000005 49.980000000000004 0 0 0
664 2 16.065000000000005 24.990000000000006 44.625 0 0 0
665 2 16.065000000000005 26.775000000000006 42.84 0 0 0
666 4 14.280000000000001 26.775000000000006 48.195 0 0 0
667 3 16.065000000000005 24.990000000000006 48.195 0 0 0
668 4 16.065000000000005 26.775000000000006 46.410000000000004 0 0 0
669 5 14.280000000000001 24.990000000000006 49.980000000000004 0 0 0
672 5 16.065000000000005 26.775000000000006 49.980000000000004 0 0 0
676 1 16.065000000000005 30.345 35.7 0 0 0
677 5 14.280000000000001 30.345 41.055 0 0 0
678 4 16.065000000000005 28.560000000000002 41.055 0 0 0
679 4 16.065000000000005 30.345 39.27 0 0 0
680 2 14.280000000000001 28.560000000000002 42.84 0 0 0
681 3 14.280000000000001 30.345 44.625 0 0 0
682 3 16.065000000000005 28.560000000000002 44.625 0 0 0
683 2 16.065000000000005 30.345 42.84 0 0 0
684 3 14.280000000000001 28.560000000000002 46.410000000000004 0 0 0
685 1 14.280000000000001 30.345 48.195 0 0 0
686 5 16.065000000000005 28.560000000000002 48.195 0 0 0
687 3 16.065000000000005 30.345 46.410000000000004 0 0 0
688 1 14.280000000000001 28.560000000000002 49.980000000000004 0 0 0
691 2 16.065000000000005 30.345 49.980000000000004 0 0 0
702 1 16.065000000000005 32.13 33.915 0 0 0
703 1 16.065000000000005 33.915 32.13 0 0 0
704 4 14.280000000000001 33.915 37.485 0 0 0
705 1 16.065000000000005 32.13 37.485 0 0 0
706 3 16.065000000000005 33.915 35.7 0 0 0
707 2 14.280000000000001 32.13 39.27 0 0 0
708 5 14.280000000000001 33.915 41.055 0 0 0
709 1 16.065000000000005 32.13 41.055 0 0 0
710 1 16.065000000000005 33.915 39.27 0 0 0
711 4 14.280000000000001 32.13 42.84 0 0 0
712 5 14.280000000000001 33.915 44.625 0 0 0
713 5 16.065000000000005 32.13 44.625 0 0 0
714 1 16.065000000000005 33.915 42.84 0 0 0
715 5 14.280000000000001 32.13 46.410000000000004 0 0 0
716 5 14.280000000000001 33.915 48.195 0 0 0
717 4 16.065000000000005 32.13 48.195 0 0 0
718 5 16.065000000000005 33.915 46.410000000000004 0 0 0
719 3 14.280000000000001 32.13 49.980000000000004 0 0 0
722 1 16.065000000000005 33.915 49.980000000000004 0 0 0
738 2 16.065000000000005 35.7 30.345 0 0 0
739 4 14.280000000000001 37.485 33.915 0 0 0
740 2 16.065000000000005 35.7 33.915 0 0 0
741 2 16.065000000000005 37.485 32.13 0 0 0
742 1 14.280000000000001 35.7 35.7 0 0 0
743 4 14.280000000000001 37.485 37.485 0 0 0
744 1 16.065000000000005 35.7 37.485 0 0 0
745 4 16.065000000000005 37.485 35.7 0 0 0
746 2 14.280000000000001 35.7 39.27 0 0 0
747 2 14.280000000000001 37.485 41.055 0 0 0
748 5 16.065000000000005 35.7 41.055 0 0 0
749 1 16.065000000000005 37.485 39.27 0 0 0
750 2 14.280000000000001 35.7 42.84 0 0 0
751 1 14.280000000000001 37.485 44.625 0 0 0
752 5 16.065000000000005 35.7 44.625 0 0 0
753 1 16.065000000000005 37.485 42.84 0 0 0
754 3 14.280000000000001 35.7 46.410000000000004 0 0 0
755 4 14.280000000000001 37.485 48.195 0 0 0
756 1 16.065000000000005 35.7 48.195 0 0 0
757 4 16.065000000000005 37.485 46.410000000000004 0 0 0
758 1 14.280000000000001 35.7 49.980000000000004 0 0 0
761 5 16.065000000000005 37.485 49.980000000000004 0 0 0
780 4 14.280000000000001 41.055 30.345 0 0 0
781 5 16.065000000000005 39.27 30.345 0 0 0
782 4 16.065000000000005 41.055 28.560000000000002 0 0 0
783 4 14.280000000000001 39.27 32.13 0 0 0
784 3 14.280000000000001 41.055 33.915 0 0 0
785 5 16.065000000000005 39.27 33.915 0 0 0
786 2 16.065000000000005 41.055 32.13 0 0 0
787 3 14.280000000000001 39.27 35.7 0 0 0
788 2 14.280000000000001 41.055 37.485 0 0 0
789 5 16.065000000000005 39.27 37.485 0 0 0
790 2 16.065000000000005 41.055 35.7 0 0 0
791 4 14.280000000000001 39.27 39.27 0 0 0
792 2 14.280000000000001 41.055 41.055 0 0 0
793 1 16.065000000000005 39.27 41.055 0 0 0
794 3 16.065000000000005 41.055 39.27 0 0 0
795 1 14.280000000000001 39.27 42.84 0 0 0
796 3 14.280000000000001 41.055 44.625 0 0 0
797 4 16.065000000000005 39.27 44.625 0 0 0
798 3 16.065000000000005 41.055 42.84 0 0 0
799 1 14.280000000000001 39.27 46.410000000000004 0 0 0
800 1 14.280000000000001 41.055 48.195 0 0 0
801 4 16.065000000000005 39.27 48.195 0 0 0
802 4 16.065000000000005 41.055 46.410000000000004 0 0 0
803 1 14.280000000000001 39.27 49.980000000000004 0 0 0
806 4 16.065000000000005 41.055 49.980000000000004 0 0 0
828 4 16.065000000000005 42.84 26.775000000000006 0 0 0
829 2 16.065000000000005 44.625 24.990000000000006 0 0 0
830 4 14.280000000000001 42.84 28.560000000000002 0 0 0
831 4 14.280000000000001 44.625 30.345 0 0 0
832 1 16.065000000000005 42.84 30.345 0 0 0
833 1 16.065000000000005 44.625 28.560000000000002 0 0 0
834 3 14.280000000000001 42.84 32.13 0 0 0
835 3 14.280000000000001 44.625 33.915 0 0 0
836 4 16.065000000000005 42.84 33.915 0 0 0
837 1 16.065000000000005 44.625 32.13 0 0 0
838 4 14.280000000000001 42.84 35.7 0 0 0
839 2 14.280000000000001 44.625 37.485 0 0 0
840 1 16.065000000000005 42.84 37.485 0 0 0
841 3 16.065000000000005 44.625 35.7 0 0 0
842 5 14.280000000000001 42.84 39.27 0 0 0
843 2 14.280000000000001 44.625 41.055 0 0 0
844 1 16.065000000000005 42.84 41.055 0 0 0
845 1 16.065000000000005 44.625 39.27 0 0 0
846 2 14.280000000000001 42.84 42.84 0 0 0
847 4 14.280000000000001 44.625 44.625 0 0 0
848 4 16.065000000000005 42.84 44.625 0 0 0
849 2 16.065000000000005 44.625 42.84 0 0 0
850 3 14.280000000000001 42.84 46.410000000000004 0 0 0
851 2 14.280000000000001 44.625 48.195 0 0 0
852 5 16.065000000000005 42.84 48.195 0 0 0
853 5 16.065000000000005 44.625 46.410000000000004 0 0 0
854 3 14.280000000000001 42.84 49.980000000000004 0 0 0
857 5 16.065000000000005 44.625 49.980000000000004 0 0 0
882 2 16.065000000000005 46.410000000000004 23.205000000000005 0 0 0
883 1 14.280000000000001 48.195 26.775000000000006 0 0 0
884 4 16.065000000000005 46.410000000000004 26.775000000000006 0 0 0
885 5 16.065000000000005 48.195 24.990000000000006 0 0 0
886 5 14.280000000000001 46.410000000000004 28.560000000000002 0 0 0
887 1 14.280000000000001 48.195 30.345 0 0 0
888 2 16.065000000000005 46.410000000000004 30.345 0 0 0
889 5 16.065000000000005 48.195 28.560000000000002 0 0 0
890 3 14.280000000000001 46.410000000000004 32.13 0 0 0
891 2 14.280000000000001 48.195 33.915 0 0 0
892 2 16.065000000000005 46.410000000000004 33.915 0 0 0
893 3 16.065000000000005 48.195 32.13 0 0 0
894 3 14.280000000000001 46.410000000000004 35.7 0 0 0
895 2 14.280000000000001 48.195 37.485 0 0 0
896 2 16.065000000000005 46.410000000000004 37.485 0 0 0
897 4 16.065000000000005 48.195 35.7 0 0 0
898 3 14.280000000000001 46.410000000000004 39.27 0 0 0
899 3 14.280000000000001 48.195 41.055 0 0 0
900 4 16.065000000000005 46.410000000000004 41.055 0 0 0
901 2 16.065000000000005 48.195 39.27 0 0 0
902 5 14.280000000000001 46.410000000000004 42.84 0 0 0
903 2 14.280000000000001 48.195 44.625 0 0 0
904 2 16.065000000000005 46.410000000000004 44.625 0 0 0
905 1 16.065000000000005 48.195 42.84 0 0 0
906 4 14.280000000000001 46.410000000000004 46.410000000000004 0 0 0
907 4 14.280000000000001 48.195 48.195 0 0 0
908 2 16.065000000000005 46.410000000000004 48.195 0 0 0
909 3 16.065000000000005 48.195 46.410000000000004 0 0 0
910 4 14.280000000000001 46.410000000000004 49.980000000000004 0 0 0
913 1 16.065000000000005 48.195 49.980000000000004 0 0 0
940 3 16.065000000000005 49.980000000000004 23.205000000000005 0 0 0
941 1 14.280000000000001 49.980000000000004 24.990000000000006 0 0 0
943 4 16.065000000000005 49.980000000000004 26.775000000000006 0 0 0
945 4 14.280000000000001 49.980000000000004 28.560000000000002 0 0 0
947 4 16.065000000000005 49.980000000000004 30.345 0 0 0
949 2 14.280000000000001 49.980000000000004 32.13 0 0 0
951 2 16.065000000000005 49.980000000000004 33.915 0 0 0
953 4 14.280000000000001 49.980000000000004 35.7 0 0 0
955 5 16.065000000000005 49.980000000000004 37.485 0 0 0
957 2 14.280000000000001 49.980000000000004 39.27 0 0 0
959 2 16.065000000000005 49.980000000000004 41.055 0 0 0
961 4 14.280000000000001 49.980000000000004 42.84 0 0 0
963 1 16.065000000000005 49.980000000000004 44.625 0 0 0
965 3 14.280000000000001 49.980000000000004 46.410000000000004 0 0 0
967 2 16.065000000000005 49.980000000000004 48.195 0 0 0
969 4 14.280000000000001 49.980000000000004 49.980000000000004 0 0 0
1250 5 19.635000000000005 19.635000000000005 42.84 0 0 0
1251 5 17.85000000000001 19.635000000000005 48.195 0 0 0
1252 1 19.635000000000005 17.85000000000001 48.195 0 0 0
1253 4 19.635000000000005 19.635000000000005 46.410000000000004 0 0 0
1254 1 17.85000000000001 17.85000000000001 49.980000000000004 0 0 0
1257 2 19.635000000000005 19.635000000000005 49.980000000000004 0 0 0
1260 3 19.635000000000005 21.420000000000005 41.055 0 0 0
1261 2 19.635000000000005 23.205000000000005 39.27 0 0 0
1262 1 17.85000000000001 23.205000000000005 44.625 0 0 0
1263 4 19.635000000000005 21.420000000000005 44.625 0 0 0
1264 2 19.635000000000005 23.205000000000005 42.84 0 0 0
1265 4 17.85000000000001 21.420000000000005 46.410000000000004 0 0 0
1266 4 17.85000000000001 23.205000000000005 48.195 0 0 0
1267 5 19.635000000000005 21.420000000000005 48.195 0 0 0
1268 4 19.635000000000005 23.205000000000005 46.410000000000004 0 0 0
1269 5 17.85000000000001 21.420000000000005 49.980000000000004 0 0 0
1272 4 19.635000000000005 23.205000000000005 49.980000000000004 0 0 0
1280 1 19.635000000000005 26.775000000000006 32.13 0 0 0
1281 3 17.85000000000001 26.775000000000006 37.485 0 0 0
1282 2 19.635000000000005 24.990000000000006 37.485 0 0 0
1283 4 19.635000000000005 26.775000000000006 35.7 0 0 0
1284 2 17.85000000000001 24.990000000000006 39.27 0 0 0
1285 5 17.85000000000001 26.775000000000006 41.055 0 0 0
1286 4 19.635000000000005 24.990000000000006 41.055 0 0 0
1287 1 19.635000000000005 26.775000000000006 39.27 0 0 0
1288 5 17.85000000000001 24.990000000000006 42.84 0 0 0
1289 1 17.85000000000001 26.775000000000006 44.625 0 0 0
1290 4 19.635000000000005 24.990000000000006 44.625 0 0 0
1291 5 19.635000000000005 26.775000000000006 42.84 0 0 0
1292 2 17.85000000000001 24.990000000000006 46.410000000000004 0 0 0
1293 5 17.85000000000001 26.775000000000006 48.195 0 0 0
1294 2 19.635000000000005 24.990000000000006 48.195 0 0 0
1295 5 19.635000000000005 26.775000000000006 46.410000000000004 0 0 0
1296 1 17.85000000000001 24.990000000000006 49.980000000000004 0 0 0
1299 3 19.635000000000005 26.775000000000006 49.980000000000004 0 0 0
1314 1 19.635000000000005 28.560000000000002 30.345 0 0 0
1315 3 19.635000000000005 30.345 28.560000000000002 0 0 0
1316 5 17.85000000000001 30.345 33.915 0 0 0
1317 4 19.635000000000005 28.560000000000002 33.915 0 0 0
1318 2 19.635000000000005 30.345 32.13 0 0 0
1319 3 17.85000000000001 28.560000000000002 35.7 0 0 0
1320 5 17.85000000000001 30.345 37.485 0 0 0
1321 2 19.635000000000005 28.560000000000002 37.485 0 0 0
1322 1 19.635000000000005 30.345 35.7 0 0 0
1323 2 17.85000000000001 28.560000000000002 39.27 0 0 0
1324 3 17.85000000000001 30.345 41.055 0 0 0
1325 1 19.635000000000005 28.560000000000002 41.055 0 0 0
1326 3 19.635000000000005 30.345 39.27 0 0 0
1327 4 17.85000000000001 28.560000000000002 42.84 0 0 0
1328 5 17.85000000000001 30.345 44.625 0 0 0
1329 3 19.635000000000005 28.560000000000002 44.625 0 0 0
1330 4 19.635000000000005 30.345 42.84 0 0 0
1331 2 17.85000000000001 28.560000000000002 46.410000000000004 0 0 0
1332 4 17.85000000000001 30.345 48.195 0 0 0
1333 4 19.635000000000005 28.560000000000002 48.195 0 0 0
1334 2 19.635000000000005 30.345 46.410000000000004 0 0 0
1335 3 17.85000000000001 28.560000000000002 49.980000000000004 0 0 0
1338 4 19.635000000000005 30.345 49.980000000000004 0 0 0
1358 1 19.635000000000005 32.13 26.775000000000006 0 0 0
1359 5 17.85000000000001 33.915 30.345 0 0 0
1360 1 19.635000000000005 32.13 30.345 0 0 0
1361 3 19.635000000000005 33.915 28.560000000000002 0 0 0
1362 3 17.85000000000001 32.13 32.13 0 0 0
1363 4 17.85000000000001 33.915 33.915 0 0 0
1364 5 19.635000000000005 32.13 33.915 0 0 0
1365 3 19.635000000000005 33.915 32.13 0 0 0
1366 3 17.85000000000001 32.13 35.7 0 0 0
1367 1 17.85000000000001 33.915 37.485 0 0 0
1368 2 19.635000000000005 32.13 37.485 0 0 0
1369 3 19.635000000000005 33.915 35.7 0 0 0
1370 1 17.85000000000001 32.13 39.27 0 0 0
1371 3 17.85000000000001 33.915 41.055 0 0 0
1372 2 19.635000000000005 32.13 41.055 0 0 0
1373 2 19.635000000000005 33.915 39.27 0 0 0
1374 3 17.85000000000001 32.13 42.84 0 0 0
1375 2 17.85000000000001 33.915 44.625 0 0 0
1376 2 19.635000000000005 32.13 44.625 0 0 0
1377 4 19.635000000000005 33.915 42.84 0 0 0
1378 1 17.85000000000001 32.13 46.410000000000004 0 0 0
1379 5 17.85000000000001 33.915 48.195 0 0 0
1380 2 19.635000000000005 32.13 48.195 0 0 0
1381 5 19.635000000000005 33.915 46.410000000000004 0 0 0
1382 2 17.85000000000001 32.13 49.980000000000004 0 0 0
1385 2 19.635000000000005 33.915 49.980000000000004 0 0 0
1408 1 17.85000000000001 37.485 26.775000000000006 0 0 0
1409 4 19.635000000000005 35.7 26.775000000000006 0 0 0
1410 1 19.635000000000005 37.485 24.990000000000006 0 0 0
1411 2 17.85000000000001 35.7 28.560000000000002 0 0 0
1412 3 17.85000000000001 37.485 30.345 0 0 0
1413 1 19.635000000000005 35.7 30.345 0 0 0
1414 3 19.635000000000005 37.485 28.560000000000002 0 0 0
1415 5 17.85000000000001 35.7 32.13 0 0 0
1416 5 17.85000000000001 37.485 33.915 0 0 0
1417 5 19.635000000000005 35.7 33.915 0 0 0
1418 2 19.635000000000005 37.485 32.13 0 0 0
1419 1 17.85000000000001 35.7 35.7 0 0 0
1420 1 17.85000000000001 37.485 37.485 0 0 0
1421 1 19.635000000000005 35.7 37.485 0 0 0
1422 4 19.635000000000005 37.485 35.7 0 0 0
1423 5 17.85000000000001 35.7 39.27 0 0 0
1424 2 17.85000000000001 37.485 41.055 0 0 0
1425 1 19.635000000000005 35.7 41.055 0 0 0
1426 3 19.635000000000005 37.485 39.27 0 0 0
1427 5 17.85000000000001 35.7 42.84 0 0 0
1428 2 17.85000000000001 37.485 44.625 0 0 0
1429 3 19.635000000000005 35.7 44.625 0 0 0
1430 2 19.635000000000005 37.485 42.84 0 0 0
1431 1 17.85000000000001 35.7 46.410000000000004 0 0 0
1432 1 17.85000000000001 37.485 48.195 0 0 0
1433 2 19.635000000000005 35.7 48.195 0 0 0
1434 2 19.635000000000005 37.485 46.410000000000004 0 0 0
1435 5 17.85000000000001 35.7 49.980000000000004 0 0 0
1438 5 19.635000000000005 37.485 49.980000000000004 0 0 0
1464 1 19.635000000000005 39.27 23.205000000000005 0 0 0
1465 3 19.635000000000005 41.055 21.420000000000005 0 0 0
1466 5 17.85000000000001 39.27 24.990000000000006 0 0 0
1467 1 17.85000000000001 41.055 26.775000000000006 0 0 0
1468 5 19.635000000000005 39.27 26.775000000000006 0 0 0
1469 2 19.635000000000005 41.055 24.990000000000006 0 0 0
1470 4 17.85000000000001 39.27 28.560000000000002 0 0 0
1471 3 17.85000000000001 41.055 30.345 0 0 0
1472 4 19.635000000000005 39.27 30.345 0 0 0
1473 2 19.635000000000005 41.055 28.560000000000002 0 0 0
1474 5 17.85000000000001 39.27 32.13 0 0 0
1475 3 17.85000000000001 41.055 33.915 0 0 0
1476 5 19.635000000000005 39.27 33.915 0 0 0
1477 4 19.635000000000005 41.055 32.13 0 0 0
1478 1 17.85000000000001 39.27 35.7 0 0 0
1479 4 17.85000000000001 41.055 37.485 0 0 0
1480 4 19.635000000000005 39.27 37.485 0 0 0
1481 3 19.635000000000005 41.055 35.7 0 0 0
1482 3 17.85000000000001 39.27 39.27 0 0 0
1483 2 17.85000000000001 41.055 41.055 0 0 0
1484 2 19.635000000000005 39.27 41.055 0 0 0
1485 4 19.635000000000005 41.055 39.27 0 0 0
1486 3 17.85000000000001 39.27 42.84 0 0 0
1487 3 17.85000000000001 41.055 44.625 0 0 0
1488 4 19.635000000000005 39.27 44.625 0 0 0
1489 1 19.635000000000005 41.055 42.84 0 0 0
1490 5 17.85000000000001 39.27 46.410000000000004 0 0 0
1491 1 17.85000000000001 41.055 48.195 0 0 0
1492 2 19.635000000000005 39.27 48.195 0 0 0
1493 1 19.635000000000005 41.055 46.410000000000004 0 0 0
1494 3 17.85000000000001 39.27 49.980000000000004 0 0 0
1497 4 19.635000000000005 41.055 49.980000000000004 0 0 0
1526 5 19.635000000000005 42.84 19.635000000000005 0 0 0
1527 2 17.85000000000001 44.625 23.205000000000005 0 0 0
1528 4 19.635000000000005 42.84 23.205000000000005 0 0 0
1529 5 19.635000000000005 44.625 21.420000000000005 0 0 0
1530 2 17.85000000000001 42.84 24.990000000000006 0 0 0
1531 5 17.85000000000001 44.625 26.775000000000006 0 0 0
1532 5 19.635000000000005 42.84 26.775000000000006 0 0 0
1533 3 19.635000000000005 44.625 24.990000000000006 0 0 0
1534 4 17.85000000000001 42.84 28.560000000000002 0 0 0
1535 2 17.85000000000001 44.625 30.345 0 0 0
1536 2 19.635000000000005 42.84 30.345 0 0 0
1537 5 19.635000000000005 44.625 28.560000000000002 0 0 0
1538 3 17.85000000000001 42.84 32.13 0 0 0
1539 1 17.85000000000001 44.625 33.915 0 0 0
1540 2 19.635000000000005 42.84 33.915 0 0 0
1541 4 19.635000000000005 44.625 32.13 0 0 0
1542 2 17.85000000000001 42.84 35.7 0 0 0
1543 1 17.85000000000001 44.625 37.485 0 0 0
1544 5 19.635000000000005 42.84 37.485 0 0 0
1545 2 19.635000000000005 44.625 35.7 0 0 0
1546 3 17.85000000000001 42.84 39.27 0 0 0
1547 3 17.85000000000001 44.625 41.055 0 0 0
1548 3 19.635000000000005 42.84 41.055 0 0 0
1549 5 19.635000000000005 44.625 39.27 0 0 0
1550 4 17.85000000000001 42.84 42.84 0 0 0
1551 4 17.85000000000001 44.625 44.625 0 0 0
1552 1 19.635000000000005 42.84 44.625 0 0 0
1553 4 19.635000000000005 44.625 42.84 0 0 0
1554 1 17.85000000000001 42.84 46.410000000000004 0 0 0
1555 5 17.85000000000001 44.625 48.195 0 0 0
1556 5 19.635000000000005 42.84 48.195 0 0 0
1557 3 19.635000000000005 44.625 46.410000000000004 0 0 0
1558 1 17.85000000000001 42.84 49.980000000000004 0 0 0
1561 2 19.635000000000005 44.625 49.980000000000004 0 0 0
1592 2 17.85000000000001 48.195 19.635000000000005 0 0 0
1593 1 19.635000000000005 46.410000000000004 19.635000000000005 0 0 0
1594 1 19.635000000000005 48.195 17.85000000000001 0 0 0
1595 4 17.85000000000001 46.410000000000004 21.420000000000005 0 0 0
1596 2 17.85000000000001 48.195 23.205000000000005 0 0 0
1597 3 19.635000000000005 46.410000000000004 23.205000000000005 0 0 0
1598 1 19.635000000000005 48.195 21.420000000000005 0 0 0
1599 1 17.85000000000001 46.410000000000004 24.990000000000006 0 0 0
1600 2 17.85000000000001 48.195 26.775000000000006 0 0 0
1601 3 19.635000000000005 46.410000000000004 26.775000000000006 0 0 0
1602 1 19.635000000000005 48.195 24.990000000000006 0 0 0
1603 4 17.85000000000001 46.410000000000004 28.560000000000002 0 0 0
1604 3 17.85000000000001 48.195 30.345 0 0 0
1605 5 19.635000000000005 46.410000000000004 30.345 0 0 0
1606 4 19.635000000000005 48.195 28.560000000000002 0 0 0
1607 3 17.85000000000001 46.410000000000004 32.13 0 0 0
1608 1 17.85000000000001 48.195 33.915 0 0 0
1609 4 19.635000000000005 46.410000000000004 33.915 0 0 0
1610 5 19.635000000000005 48.195 32.13 0 0 0
1611 1 17.85000000000001 46.410000000000004 35.7 0 0 0
1612 2 17.85000000000001 48.195 37.485 0 0 0
1613 1 19.635000000000005 46.410000000000004 37.485 0 0 0
1614 2 19.635000000000005 48.195 35.7 0 0 0
1615 1 17.85000000000001 46.410000000000004 39.27 0 0 0
1616 1 17.85000000000001 48.195 41.055 0 0 0
1617 1 19.635000000000005 46.410000000000004 41.055 0 0 0
1618 4 19.635000000000005 48.195 39.27 0 0 0
1619 3 17.85000000000001 46.410000000000004 42.84 0 0 0
1620 1 17.85000000000001 48.195 44.625 0 0 0
1621 4 19.635000000000005 46.410000000000004 44.625 0 0 0
1622 1 19.635000000000005 48.195 42.84 0 0 0
1623 3 17.85000000000001 46.410000000000004 46.410000000000004 0 0 0
1624 2 17.85000000000001 48.195 48.195 0 0 0
1625 4 19.635000000000005 46.410000000000004 48.195 0 0 0
1626 2 19.635000000000005 48.195 46.410000000000004 0 0 0
1627 3 17.85000000000001 46.410000000000004 49.980000000000004 0 0 0
1630 3 19.635000000000005 48.195 49.980000000000004 0 0 0
1664 4 17.85000000000001 49.980000000000004 17.85000000000001 0 0 0