model_files/Ag/Ag_30000/Ag_531/data.Ag_531_fcc_29859 (written by ASE) 

29859 	 atoms 
1  atom types
0.0                     110  xlo xhi
0.0                     110  ylo yhi
0.0                     110  zlo zhi


Atoms 

     1   1                       0      53.169999999999995      55.214999999999996
     2   1                       0      55.214999999999996      53.169999999999995
     3   1                       0      55.214999999999996      57.259999999999998
     4   1                       0      57.259999999999998      55.214999999999996
     5   1      4.0899999999999963      47.034999999999989      53.169999999999995
     6   1      4.0899999999999963      49.079999999999991      51.124999999999993
     7   1      4.0899999999999963      47.034999999999989      57.259999999999998
     8   1      4.0899999999999963      49.079999999999991      55.214999999999996
     9   1      4.0899999999999963      49.079999999999991      59.304999999999986
    10   1      4.0899999999999963      51.124999999999993      49.079999999999991
    11   1      4.0899999999999963      53.169999999999995      47.034999999999989
    12   1      2.0449999999999946      51.124999999999993      51.124999999999993
    13   1      2.0449999999999946      53.169999999999995      53.169999999999995
    14   1      4.0899999999999963      51.124999999999993      53.169999999999995
    15   1      4.0899999999999963      53.169999999999995      51.124999999999993
    16   1      2.0449999999999946      51.124999999999993      55.214999999999996
    17   1      2.0449999999999946      53.169999999999995      57.259999999999998
    18   1      4.0899999999999963      51.124999999999993      57.259999999999998
    19   1      4.0899999999999963      53.169999999999995      55.214999999999996
    20   1      2.0449999999999946      51.124999999999993      59.304999999999986
    21   1      4.0899999999999963      51.124999999999993      61.349999999999987
    22   1      4.0899999999999963      53.169999999999995      59.304999999999986
    23   1      4.0899999999999963      53.169999999999995      63.394999999999989
    24   1      4.0899999999999963      55.214999999999996      49.079999999999991
    25   1      4.0899999999999963      57.259999999999998      47.034999999999989
    26   1      2.0449999999999946      55.214999999999996      51.124999999999993
    27   1      2.0449999999999946      57.259999999999998      53.169999999999995
    28   1      4.0899999999999963      55.214999999999996      53.169999999999995
    29   1      4.0899999999999963      57.259999999999998      51.124999999999993
    30   1      2.0449999999999946      55.214999999999996      55.214999999999996
    31   1      2.0449999999999946      57.259999999999998      57.259999999999998
    32   1      4.0899999999999963      55.214999999999996      57.259999999999998
    33   1      4.0899999999999963      57.259999999999998      55.214999999999996
    34   1      2.0449999999999946      55.214999999999996      59.304999999999986
    35   1      4.0899999999999963      55.214999999999996      61.349999999999987
    36   1      4.0899999999999963      57.259999999999998      59.304999999999986
    37   1      4.0899999999999963      57.259999999999998      63.394999999999989
    38   1      4.0899999999999963      59.304999999999986      49.079999999999991
    39   1      2.0449999999999946      59.304999999999986      51.124999999999993
    40   1      4.0899999999999963      59.304999999999986      53.169999999999995
    41   1      4.0899999999999963      61.349999999999987      51.124999999999993
    42   1      2.0449999999999946      59.304999999999986      55.214999999999996
    43   1      4.0899999999999963      59.304999999999986      57.259999999999998
    44   1      4.0899999999999963      61.349999999999987      55.214999999999996
    45   1      2.0449999999999946      59.304999999999986      59.304999999999986
    46   1      4.0899999999999963      59.304999999999986      61.349999999999987
    47   1      4.0899999999999963      61.349999999999987      59.304999999999986
    48   1      4.0899999999999963      63.394999999999989      53.169999999999995
    49   1      4.0899999999999963      63.394999999999989      57.259999999999998
    50   1      8.1799999999999997      40.899999999999991      51.124999999999993
    51   1      8.1799999999999997      40.899999999999991      55.214999999999996
    52   1      8.1799999999999997      40.899999999999991      59.304999999999986
    53   1      8.1799999999999997      42.944999999999993      44.989999999999988
    54   1      8.1799999999999997      44.989999999999988      42.944999999999993
    55   1       6.134999999999998      44.989999999999988      49.079999999999991
    56   1      8.1799999999999997      42.944999999999993      49.079999999999991
    57   1      8.1799999999999997      44.989999999999988      47.034999999999989
    58   1       6.134999999999998      44.989999999999988      53.169999999999995
    59   1      8.1799999999999997      42.944999999999993      53.169999999999995
    60   1      8.1799999999999997      44.989999999999988      51.124999999999993
    61   1       6.134999999999998      42.944999999999993      55.214999999999996
    62   1       6.134999999999998      44.989999999999988      57.259999999999998
    63   1      8.1799999999999997      42.944999999999993      57.259999999999998
    64   1      8.1799999999999997      44.989999999999988      55.214999999999996
    65   1       6.134999999999998      44.989999999999988      61.349999999999987
    66   1      8.1799999999999997      42.944999999999993      61.349999999999987
    67   1      8.1799999999999997      44.989999999999988      59.304999999999986
    68   1      8.1799999999999997      42.944999999999993      65.439999999999998
    69   1      8.1799999999999997      44.989999999999988      63.394999999999989
    70   1      8.1799999999999997      44.989999999999988      67.484999999999999
    71   1       6.134999999999998      49.079999999999991      44.989999999999988
    72   1      8.1799999999999997      47.034999999999989      44.989999999999988
    73   1      8.1799999999999997      49.079999999999991      42.944999999999993
    74   1       6.134999999999998      47.034999999999989      47.034999999999989
    75   1       6.134999999999998      49.079999999999991      49.079999999999991
    76   1      8.1799999999999997      47.034999999999989      49.079999999999991
    77   1      8.1799999999999997      49.079999999999991      47.034999999999989
    78   1       6.134999999999998      47.034999999999989      51.124999999999993
    79   1       6.134999999999998      49.079999999999991      53.169999999999995
    80   1      8.1799999999999997      47.034999999999989      53.169999999999995
    81   1      8.1799999999999997      49.079999999999991      51.124999999999993
    82   1       6.134999999999998      47.034999999999989      55.214999999999996
    83   1       6.134999999999998      49.079999999999991      57.259999999999998
    84   1      8.1799999999999997      47.034999999999989      57.259999999999998
    85   1      8.1799999999999997      49.079999999999991      55.214999999999996
    86   1       6.134999999999998      47.034999999999989      59.304999999999986
    87   1       6.134999999999998      49.079999999999991      61.349999999999987
    88   1      8.1799999999999997      47.034999999999989      61.349999999999987
    89   1      8.1799999999999997      49.079999999999991      59.304999999999986
    90   1       6.134999999999998      47.034999999999989      63.394999999999989
    91   1       6.134999999999998      49.079999999999991      65.439999999999998
    92   1      8.1799999999999997      47.034999999999989      65.439999999999998
    93   1      8.1799999999999997      49.079999999999991      63.394999999999989
    94   1      8.1799999999999997      49.079999999999991      67.484999999999999
    95   1      8.1799999999999997      51.124999999999993      40.899999999999991
    96   1       6.134999999999998      53.169999999999995      44.989999999999988
    97   1      8.1799999999999997      51.124999999999993      44.989999999999988
    98   1      8.1799999999999997      53.169999999999995      42.944999999999993
    99   1       6.134999999999998      51.124999999999993      47.034999999999989
   100   1       6.134999999999998      53.169999999999995      49.079999999999991
   101   1      8.1799999999999997      51.124999999999993      49.079999999999991
   102   1      8.1799999999999997      53.169999999999995      47.034999999999989
   103   1       6.134999999999998      51.124999999999993      51.124999999999993
   104   1       6.134999999999998      53.169999999999995      53.169999999999995
   105   1      8.1799999999999997      51.124999999999993      53.169999999999995
   106   1      8.1799999999999997      53.169999999999995      51.124999999999993
   107   1       6.134999999999998      51.124999999999993      55.214999999999996
   108   1       6.134999999999998      53.169999999999995      57.259999999999998
   109   1      8.1799999999999997      51.124999999999993      57.259999999999998
   110   1      8.1799999999999997      53.169999999999995      55.214999999999996
   111   1       6.134999999999998      51.124999999999993      59.304999999999986
   112   1       6.134999999999998      53.169999999999995      61.349999999999987
   113   1      8.1799999999999997      51.124999999999993      61.349999999999987
   114   1      8.1799999999999997      53.169999999999995      59.304999999999986
   115   1       6.134999999999998      51.124999999999993      63.394999999999989
   116   1       6.134999999999998      53.169999999999995      65.439999999999998
   117   1      8.1799999999999997      51.124999999999993      65.439999999999998
   118   1      8.1799999999999997      53.169999999999995      63.394999999999989
   119   1      8.1799999999999997      51.124999999999993      69.530000000000001
   120   1      8.1799999999999997      53.169999999999995      67.484999999999999
   121   1      8.1799999999999997      55.214999999999996      40.899999999999991
   122   1       6.134999999999998      55.214999999999996      42.944999999999993
   123   1       6.134999999999998      57.259999999999998      44.989999999999988
   124   1      8.1799999999999997      55.214999999999996      44.989999999999988
   125   1      8.1799999999999997      57.259999999999998      42.944999999999993
   126   1       6.134999999999998      55.214999999999996      47.034999999999989
   127   1       6.134999999999998      57.259999999999998      49.079999999999991
   128   1      8.1799999999999997      55.214999999999996      49.079999999999991
   129   1      8.1799999999999997      57.259999999999998      47.034999999999989
   130   1       6.134999999999998      55.214999999999996      51.124999999999993
   131   1       6.134999999999998      57.259999999999998      53.169999999999995
   132   1      8.1799999999999997      55.214999999999996      53.169999999999995
   133   1      8.1799999999999997      57.259999999999998      51.124999999999993
   134   1       6.134999999999998      55.214999999999996      55.214999999999996
   135   1       6.134999999999998      57.259999999999998      57.259999999999998
   136   1      8.1799999999999997      55.214999999999996      57.259999999999998
   137   1      8.1799999999999997      57.259999999999998      55.214999999999996
   138   1       6.134999999999998      55.214999999999996      59.304999999999986
   139   1       6.134999999999998      57.259999999999998      61.349999999999987
   140   1      8.1799999999999997      55.214999999999996      61.349999999999987
   141   1      8.1799999999999997      57.259999999999998      59.304999999999986
   142   1       6.134999999999998      55.214999999999996      63.394999999999989
   143   1       6.134999999999998      57.259999999999998      65.439999999999998
   144   1      8.1799999999999997      55.214999999999996      65.439999999999998
   145   1      8.1799999999999997      57.259999999999998      63.394999999999989
   146   1       6.134999999999998      55.214999999999996      67.484999999999999
   147   1      8.1799999999999997      55.214999999999996      69.530000000000001
   148   1      8.1799999999999997      57.259999999999998      67.484999999999999
   149   1      8.1799999999999997      59.304999999999986      40.899999999999991
   150   1       6.134999999999998      61.349999999999987      44.989999999999988
   151   1      8.1799999999999997      59.304999999999986      44.989999999999988
   152   1      8.1799999999999997      61.349999999999987      42.944999999999993
   153   1       6.134999999999998      59.304999999999986      47.034999999999989
   154   1       6.134999999999998      61.349999999999987      49.079999999999991
   155   1      8.1799999999999997      59.304999999999986      49.079999999999991
   156   1      8.1799999999999997      61.349999999999987      47.034999999999989
   157   1       6.134999999999998      59.304999999999986      51.124999999999993
   158   1       6.134999999999998      61.349999999999987      53.169999999999995
   159   1      8.1799999999999997      59.304999999999986      53.169999999999995
   160   1      8.1799999999999997      61.349999999999987      51.124999999999993
   161   1       6.134999999999998      59.304999999999986      55.214999999999996
   162   1       6.134999999999998      61.349999999999987      57.259999999999998
   163   1      8.1799999999999997      59.304999999999986      57.259999999999998
   164   1      8.1799999999999997      61.349999999999987      55.214999999999996
   165   1       6.134999999999998      59.304999999999986      59.304999999999986
   166   1       6.134999999999998      61.349999999999987      61.349999999999987
   167   1      8.1799999999999997      59.304999999999986      61.349999999999987
   168   1      8.1799999999999997      61.349999999999987      59.304999999999986
   169   1       6.134999999999998      59.304999999999986      63.394999999999989
   170   1       6.134999999999998      61.349999999999987      65.439999999999998
   171   1      8.1799999999999997      59.304999999999986      65.439999999999998
   172   1      8.1799999999999997      61.349999999999987      63.394999999999989
   173   1      8.1799999999999997      59.304999999999986      69.530000000000001
   174   1      8.1799999999999997      61.349999999999987      67.484999999999999
   175   1      8.1799999999999997      63.394999999999989      44.989999999999988
   176   1      8.1799999999999997      65.439999999999998      42.944999999999993
   177   1       6.134999999999998      63.394999999999989      47.034999999999989
   178   1       6.134999999999998      65.439999999999998      49.079999999999991
   179   1      8.1799999999999997      63.394999999999989      49.079999999999991
   180   1      8.1799999999999997      65.439999999999998      47.034999999999989
   181   1       6.134999999999998      63.394999999999989      51.124999999999993
   182   1       6.134999999999998      65.439999999999998      53.169999999999995
   183   1      8.1799999999999997      63.394999999999989      53.169999999999995
   184   1      8.1799999999999997      65.439999999999998      51.124999999999993
   185   1       6.134999999999998      63.394999999999989      55.214999999999996
   186   1       6.134999999999998      65.439999999999998      57.259999999999998
   187   1      8.1799999999999997      63.394999999999989      57.259999999999998
   188   1      8.1799999999999997      65.439999999999998      55.214999999999996
   189   1       6.134999999999998      63.394999999999989      59.304999999999986
   190   1       6.134999999999998      65.439999999999998      61.349999999999987
   191   1      8.1799999999999997      63.394999999999989      61.349999999999987
   192   1      8.1799999999999997      65.439999999999998      59.304999999999986
   193   1       6.134999999999998      63.394999999999989      63.394999999999989
   194   1      8.1799999999999997      63.394999999999989      65.439999999999998
   195   1      8.1799999999999997      65.439999999999998      63.394999999999989
   196   1      8.1799999999999997      65.439999999999998      67.484999999999999
   197   1      8.1799999999999997      67.484999999999999      44.989999999999988
   198   1      8.1799999999999997      67.484999999999999      49.079999999999991
   199   1      8.1799999999999997      67.484999999999999      53.169999999999995
   200   1      8.1799999999999997      69.530000000000001      51.124999999999993
   201   1       6.134999999999998      67.484999999999999      55.214999999999996
   202   1      8.1799999999999997      67.484999999999999      57.259999999999998
   203   1      8.1799999999999997      69.530000000000001      55.214999999999996
   204   1      8.1799999999999997      67.484999999999999      61.349999999999987
   205   1      8.1799999999999997      69.530000000000001      59.304999999999986
   206   1      8.1799999999999997      67.484999999999999      65.439999999999998
   207   1      12.269999999999996      32.719999999999999      55.214999999999996
   208   1      12.269999999999996      36.809999999999995      42.944999999999993
   209   1      12.269999999999996      34.765000000000001      49.079999999999991
   210   1      12.269999999999996      36.809999999999995      47.034999999999989
   211   1                  10.225      36.809999999999995      53.169999999999995
   212   1      12.269999999999996      34.765000000000001      53.169999999999995
   213   1      12.269999999999996      36.809999999999995      51.124999999999993
   214   1                  10.225      36.809999999999995      57.259999999999998
   215   1      12.269999999999996      34.765000000000001      57.259999999999998
   216   1      12.269999999999996      36.809999999999995      55.214999999999996
   217   1      12.269999999999996      34.765000000000001      61.349999999999987
   218   1      12.269999999999996      36.809999999999995      59.304999999999986
   219   1      12.269999999999996      36.809999999999995      63.394999999999989
   220   1      12.269999999999996      36.809999999999995      67.484999999999999
   221   1                  10.225      40.899999999999991      40.899999999999991
   222   1      12.269999999999996      38.854999999999997      40.899999999999991
   223   1      12.269999999999996      40.899999999999991      38.854999999999997
   224   1                  10.225      40.899999999999991      44.989999999999988
   225   1      12.269999999999996      38.854999999999997      44.989999999999988
   226   1      12.269999999999996      40.899999999999991      42.944999999999993
   227   1                  10.225      38.854999999999997      47.034999999999989
   228   1                  10.225      40.899999999999991      49.079999999999991
   229   1      12.269999999999996      38.854999999999997      49.079999999999991
   230   1      12.269999999999996      40.899999999999991      47.034999999999989
   231   1                  10.225      38.854999999999997      51.124999999999993
   232   1                  10.225      40.899999999999991      53.169999999999995
   233   1      12.269999999999996      38.854999999999997      53.169999999999995
   234   1      12.269999999999996      40.899999999999991      51.124999999999993
   235   1                  10.225      38.854999999999997      55.214999999999996
   236   1                  10.225      40.899999999999991      57.259999999999998
   237   1      12.269999999999996      38.854999999999997      57.259999999999998
   238   1      12.269999999999996      40.899999999999991      55.214999999999996
   239   1                  10.225      38.854999999999997      59.304999999999986
   240   1                  10.225      40.899999999999991      61.349999999999987
   241   1      12.269999999999996      38.854999999999997      61.349999999999987
   242   1      12.269999999999996      40.899999999999991      59.304999999999986
   243   1                  10.225      38.854999999999997      63.394999999999989
   244   1                  10.225      40.899999999999991      65.439999999999998
   245   1      12.269999999999996      38.854999999999997      65.439999999999998
   246   1      12.269999999999996      40.899999999999991      63.394999999999989
   247   1                  10.225      40.899999999999991      69.530000000000001
   248   1      12.269999999999996      38.854999999999997      69.530000000000001
   249   1      12.269999999999996      40.899999999999991      67.484999999999999
   250   1      12.269999999999996      40.899999999999991      71.574999999999989
   251   1      12.269999999999996      42.944999999999993      36.809999999999995
   252   1                  10.225      44.989999999999988      40.899999999999991
   253   1      12.269999999999996      42.944999999999993      40.899999999999991
   254   1      12.269999999999996      44.989999999999988      38.854999999999997
   255   1                  10.225      42.944999999999993      42.944999999999993
   256   1                  10.225      44.989999999999988      44.989999999999988
   257   1      12.269999999999996      42.944999999999993      44.989999999999988
   258   1      12.269999999999996      44.989999999999988      42.944999999999993
   259   1                  10.225      42.944999999999993      47.034999999999989
   260   1                  10.225      44.989999999999988      49.079999999999991
   261   1      12.269999999999996      42.944999999999993      49.079999999999991
   262   1      12.269999999999996      44.989999999999988      47.034999999999989
   263   1                  10.225      42.944999999999993      51.124999999999993
   264   1                  10.225      44.989999999999988      53.169999999999995
   265   1      12.269999999999996      42.944999999999993      53.169999999999995
   266   1      12.269999999999996      44.989999999999988      51.124999999999993
   267   1                  10.225      42.944999999999993      55.214999999999996
   268   1                  10.225      44.989999999999988      57.259999999999998
   269   1      12.269999999999996      42.944999999999993      57.259999999999998
   270   1      12.269999999999996      44.989999999999988      55.214999999999996
   271   1                  10.225      42.944999999999993      59.304999999999986
   272   1                  10.225      44.989999999999988      61.349999999999987
   273   1      12.269999999999996      42.944999999999993      61.349999999999987
   274   1      12.269999999999996      44.989999999999988      59.304999999999986
   275   1                  10.225      42.944999999999993      63.394999999999989
   276   1                  10.225      44.989999999999988      65.439999999999998
   277   1      12.269999999999996      42.944999999999993      65.439999999999998
   278   1      12.269999999999996      44.989999999999988      63.394999999999989
   279   1                  10.225      42.944999999999993      67.484999999999999
   280   1                  10.225      44.989999999999988      69.530000000000001
   281   1      12.269999999999996      42.944999999999993      69.530000000000001
   282   1      12.269999999999996      44.989999999999988      67.484999999999999
   283   1      12.269999999999996      42.944999999999993       73.61999999999999
   284   1      12.269999999999996      44.989999999999988      71.574999999999989
   285   1      12.269999999999996      47.034999999999989      36.809999999999995
   286   1      12.269999999999996      49.079999999999991      34.765000000000001
   287   1                  10.225      47.034999999999989      38.854999999999997
   288   1                  10.225      49.079999999999991      40.899999999999991
   289   1      12.269999999999996      47.034999999999989      40.899999999999991
   290   1      12.269999999999996      49.079999999999991      38.854999999999997
   291   1                  10.225      47.034999999999989      42.944999999999993
   292   1                  10.225      49.079999999999991      44.989999999999988
   293   1      12.269999999999996      47.034999999999989      44.989999999999988
   294   1      12.269999999999996      49.079999999999991      42.944999999999993
   295   1                  10.225      47.034999999999989      47.034999999999989
   296   1                  10.225      49.079999999999991      49.079999999999991
   297   1      12.269999999999996      47.034999999999989      49.079999999999991
   298   1      12.269999999999996      49.079999999999991      47.034999999999989
   299   1                  10.225      47.034999999999989      51.124999999999993
   300   1                  10.225      49.079999999999991      53.169999999999995
   301   1      12.269999999999996      47.034999999999989      53.169999999999995
   302   1      12.269999999999996      49.079999999999991      51.124999999999993
   303   1                  10.225      47.034999999999989      55.214999999999996
   304   1                  10.225      49.079999999999991      57.259999999999998
   305   1      12.269999999999996      47.034999999999989      57.259999999999998
   306   1      12.269999999999996      49.079999999999991      55.214999999999996
   307   1                  10.225      47.034999999999989      59.304999999999986
   308   1                  10.225      49.079999999999991      61.349999999999987
   309   1      12.269999999999996      47.034999999999989      61.349999999999987
   310   1      12.269999999999996      49.079999999999991      59.304999999999986
   311   1                  10.225      47.034999999999989      63.394999999999989
   312   1                  10.225      49.079999999999991      65.439999999999998
   313   1      12.269999999999996      47.034999999999989      65.439999999999998
   314   1      12.269999999999996      49.079999999999991      63.394999999999989
   315   1                  10.225      47.034999999999989      67.484999999999999
   316   1                  10.225      49.079999999999991      69.530000000000001
   317   1      12.269999999999996      47.034999999999989      69.530000000000001
   318   1      12.269999999999996      49.079999999999991      67.484999999999999
   319   1                  10.225      47.034999999999989      71.574999999999989
   320   1      12.269999999999996      47.034999999999989       73.61999999999999
   321   1      12.269999999999996      49.079999999999991      71.574999999999989
   322   1      12.269999999999996      49.079999999999991      75.664999999999992
   323   1                  10.225      53.169999999999995      36.809999999999995
   324   1      12.269999999999996      51.124999999999993      36.809999999999995
   325   1      12.269999999999996      53.169999999999995      34.765000000000001
   326   1                  10.225      51.124999999999993      38.854999999999997
   327   1                  10.225      53.169999999999995      40.899999999999991
   328   1      12.269999999999996      51.124999999999993      40.899999999999991
   329   1      12.269999999999996      53.169999999999995      38.854999999999997
   330   1                  10.225      51.124999999999993      42.944999999999993
   331   1                  10.225      53.169999999999995      44.989999999999988
   332   1      12.269999999999996      51.124999999999993      44.989999999999988
   333   1      12.269999999999996      53.169999999999995      42.944999999999993
   334   1                  10.225      51.124999999999993      47.034999999999989
   335   1                  10.225      53.169999999999995      49.079999999999991
   336   1      12.269999999999996      51.124999999999993      49.079999999999991
   337   1      12.269999999999996      53.169999999999995      47.034999999999989
   338   1                  10.225      51.124999999999993      51.124999999999993
   339   1                  10.225      53.169999999999995      53.169999999999995
   340   1      12.269999999999996      51.124999999999993      53.169999999999995
   341   1      12.269999999999996      53.169999999999995      51.124999999999993
   342   1                  10.225      51.124999999999993      55.214999999999996
   343   1                  10.225      53.169999999999995      57.259999999999998
   344   1      12.269999999999996      51.124999999999993      57.259999999999998
   345   1      12.269999999999996      53.169999999999995      55.214999999999996
   346   1                  10.225      51.124999999999993      59.304999999999986
   347   1                  10.225      53.169999999999995      61.349999999999987
   348   1      12.269999999999996      51.124999999999993      61.349999999999987
   349   1      12.269999999999996      53.169999999999995      59.304999999999986
   350   1                  10.225      51.124999999999993      63.394999999999989
   351   1                  10.225      53.169999999999995      65.439999999999998
   352   1      12.269999999999996      51.124999999999993      65.439999999999998
   353   1      12.269999999999996      53.169999999999995      63.394999999999989
   354   1                  10.225      51.124999999999993      67.484999999999999
   355   1                  10.225      53.169999999999995      69.530000000000001
   356   1      12.269999999999996      51.124999999999993      69.530000000000001
   357   1      12.269999999999996      53.169999999999995      67.484999999999999
   358   1                  10.225      51.124999999999993      71.574999999999989