model_files/Pd/Pd_30000/Pd_510/data.Pd_510_fcc_29899 (written by ASE) 

29899 	 atoms 
1  atom types
0.0                      87  xlo xhi
0.0                      87  ylo yhi
0.0                      87  zlo zhi


Atoms 

     1   1      1.9450000000000003      33.064999999999998      35.009999999999998
     2   1      1.9450000000000003      33.064999999999998      38.899999999999999
     3   1      1.9450000000000003      33.064999999999998      42.789999999999999
     4   1      1.9450000000000003      33.064999999999998                   46.68
     5   1      1.9450000000000003      33.064999999999998                   50.57
     6   1      1.9450000000000003      35.009999999999998      33.064999999999998
     7   1      1.9450000000000003      35.009999999999998      36.954999999999998
     8   1      1.9450000000000003      36.954999999999998      35.009999999999998
     9   1      1.9450000000000003      35.009999999999998      40.844999999999999
    10   1      1.9450000000000003      36.954999999999998      38.899999999999999
    11   1      1.9450000000000003      35.009999999999998      44.734999999999992
    12   1      1.9450000000000003      36.954999999999998      42.789999999999999
    13   1      1.9450000000000003      35.009999999999998                  48.625
    14   1      1.9450000000000003      36.954999999999998                   46.68
    15   1      1.9450000000000003      35.009999999999998      52.515000000000001
    16   1      1.9450000000000003      36.954999999999998                   50.57
    17   1      1.9450000000000003      38.899999999999999      33.064999999999998
    18   1      1.9450000000000003      38.899999999999999      36.954999999999998
    19   1      1.9450000000000003      40.844999999999999      35.009999999999998
    20   1      1.9450000000000003      38.899999999999999      40.844999999999999
    21   1      1.9450000000000003      40.844999999999999      38.899999999999999
    22   1      1.9450000000000003      38.899999999999999      44.734999999999992
    23   1      1.9450000000000003      40.844999999999999      42.789999999999999
    24   1      1.9450000000000003      38.899999999999999                  48.625
    25   1      1.9450000000000003      40.844999999999999                   46.68
    26   1      1.9450000000000003      38.899999999999999      52.515000000000001
    27   1      1.9450000000000003      40.844999999999999                   50.57
    28   1      1.9450000000000003      42.789999999999999      33.064999999999998
    29   1      1.9450000000000003      42.789999999999999      36.954999999999998
    30   1      1.9450000000000003      44.734999999999992      35.009999999999998
    31   1      1.9450000000000003      42.789999999999999      40.844999999999999
    32   1      1.9450000000000003      44.734999999999992      38.899999999999999
    33   1                       0      42.789999999999999      42.789999999999999
    34   1      1.9450000000000003      42.789999999999999      44.734999999999992
    35   1      1.9450000000000003      44.734999999999992      42.789999999999999
    36   1      1.9450000000000003      42.789999999999999                  48.625
    37   1      1.9450000000000003      44.734999999999992                   46.68
    38   1      1.9450000000000003      42.789999999999999      52.515000000000001
    39   1      1.9450000000000003      44.734999999999992                   50.57
    40   1      1.9450000000000003                   46.68      33.064999999999998
    41   1      1.9450000000000003                   46.68      36.954999999999998
    42   1      1.9450000000000003                  48.625      35.009999999999998
    43   1      1.9450000000000003                   46.68      40.844999999999999
    44   1      1.9450000000000003                  48.625      38.899999999999999
    45   1      1.9450000000000003                   46.68      44.734999999999992
    46   1      1.9450000000000003                  48.625      42.789999999999999
    47   1      1.9450000000000003                   46.68                  48.625
    48   1      1.9450000000000003                  48.625                   46.68
    49   1      1.9450000000000003                   46.68      52.515000000000001
    50   1      1.9450000000000003                  48.625                   50.57
    51   1      1.9450000000000003                   50.57      33.064999999999998
    52   1      1.9450000000000003                   50.57      36.954999999999998
    53   1      1.9450000000000003      52.515000000000001      35.009999999999998
    54   1      1.9450000000000003                   50.57      40.844999999999999
    55   1      1.9450000000000003      52.515000000000001      38.899999999999999
    56   1      1.9450000000000003                   50.57      44.734999999999992
    57   1      1.9450000000000003      52.515000000000001      42.789999999999999
    58   1      1.9450000000000003                   50.57                  48.625
    59   1      1.9450000000000003      52.515000000000001                   46.68
    60   1      1.9450000000000003                   50.57      52.515000000000001
    61   1      1.9450000000000003      52.515000000000001                   50.57
    62   1                   5.835      13.614999999999998      15.559999999999997
    63   1                   5.835      13.614999999999998      19.449999999999999
    64   1                   5.835      13.614999999999998                   23.34
    65   1                   5.835      13.614999999999998                   27.23
    66   1                   5.835      13.614999999999998      31.119999999999994
    67   1                   5.835      13.614999999999998      35.009999999999998
    68   1                   5.835      13.614999999999998      38.899999999999999
    69   1                   5.835      13.614999999999998      42.789999999999999
    70   1                   5.835      13.614999999999998                   46.68
    71   1                   5.835      13.614999999999998                   50.57
    72   1                   5.835      13.614999999999998      54.460000000000001
    73   1                   5.835      13.614999999999998      58.349999999999994
    74   1                   5.835      13.614999999999998      62.239999999999988
    75   1                   5.835      13.614999999999998      66.129999999999995
    76   1                   5.835      13.614999999999998      70.019999999999996
    77   1                   5.835      15.559999999999997      13.614999999999998
    78   1                   5.835      15.559999999999997      17.504999999999999
    79   1                   5.835      17.504999999999999      15.559999999999997
    80   1                   5.835      15.559999999999997                  21.395
    81   1                   5.835      17.504999999999999      19.449999999999999
    82   1                   5.835      15.559999999999997                  25.285
    83   1                   5.835      17.504999999999999                   23.34
    84   1                   5.835      15.559999999999997      29.174999999999997
    85   1                   5.835      17.504999999999999                   27.23
    86   1                   5.835      15.559999999999997      33.064999999999998
    87   1                   5.835      17.504999999999999      31.119999999999994
    88   1                   5.835      15.559999999999997      36.954999999999998
    89   1                   5.835      17.504999999999999      35.009999999999998
    90   1                   5.835      15.559999999999997      40.844999999999999
    91   1                   5.835      17.504999999999999      38.899999999999999
    92   1                   5.835      15.559999999999997      44.734999999999992
    93   1                   5.835      17.504999999999999      42.789999999999999
    94   1                   5.835      15.559999999999997                  48.625
    95   1                   5.835      17.504999999999999                   46.68
    96   1                   5.835      15.559999999999997      52.515000000000001
    97   1                   5.835      17.504999999999999                   50.57
    98   1                   5.835      15.559999999999997      56.405000000000001
    99   1                   5.835      17.504999999999999      54.460000000000001
   100   1                   5.835      15.559999999999997      60.295000000000002
   101   1                   5.835      17.504999999999999      58.349999999999994
   102   1                   5.835      15.559999999999997      64.184999999999988
   103   1                   5.835      17.504999999999999      62.239999999999988
   104   1                   5.835      15.559999999999997      68.074999999999989
   105   1                   5.835      17.504999999999999      66.129999999999995
   106   1                   5.835      15.559999999999997      71.964999999999989
   107   1                   5.835      17.504999999999999      70.019999999999996
   108   1                   5.835      19.449999999999999      13.614999999999998
   109   1                   5.835      19.449999999999999      17.504999999999999
   110   1                   5.835                  21.395      15.559999999999997
   111   1                   5.835      19.449999999999999                  21.395
   112   1                   5.835                  21.395      19.449999999999999
   113   1                   5.835      19.449999999999999                  25.285
   114   1                   5.835                  21.395                   23.34
   115   1                   5.835      19.449999999999999      29.174999999999997
   116   1                   5.835                  21.395                   27.23
   117   1                   5.835      19.449999999999999      33.064999999999998
   118   1                   5.835                  21.395      31.119999999999994
   119   1                   5.835      19.449999999999999      36.954999999999998
   120   1                   5.835                  21.395      35.009999999999998
   121   1                   5.835      19.449999999999999      40.844999999999999
   122   1                   5.835                  21.395      38.899999999999999
   123   1                   5.835      19.449999999999999      44.734999999999992
   124   1                   5.835                  21.395      42.789999999999999
   125   1                   5.835      19.449999999999999                  48.625
   126   1                   5.835                  21.395                   46.68
   127   1                   5.835      19.449999999999999      52.515000000000001
   128   1                   5.835                  21.395                   50.57
   129   1                   5.835      19.449999999999999      56.405000000000001
   130   1                   5.835                  21.395      54.460000000000001
   131   1                   5.835      19.449999999999999      60.295000000000002
   132   1                   5.835                  21.395      58.349999999999994
   133   1                   5.835      19.449999999999999      64.184999999999988
   134   1                   5.835                  21.395      62.239999999999988
   135   1                   5.835      19.449999999999999      68.074999999999989
   136   1                   5.835                  21.395      66.129999999999995
   137   1                   5.835      19.449999999999999      71.964999999999989
   138   1                   5.835                  21.395      70.019999999999996
   139   1                   5.835                   23.34      13.614999999999998
   140   1                   5.835                   23.34      17.504999999999999
   141   1                   5.835                  25.285      15.559999999999997
   142   1                   5.835                   23.34                  21.395
   143   1                   5.835                  25.285      19.449999999999999
   144   1      3.8900000000000006                   23.34                   23.34
   145   1      3.8900000000000006                  25.285                  25.285
   146   1                   5.835                   23.34                  25.285
   147   1                   5.835                  25.285                   23.34
   148   1      3.8900000000000006                   23.34                   27.23
   149   1      3.8900000000000006                  25.285      29.174999999999997
   150   1                   5.835                   23.34      29.174999999999997
   151   1                   5.835                  25.285                   27.23
   152   1      3.8900000000000006                   23.34      31.119999999999994
   153   1      3.8900000000000006                  25.285      33.064999999999998
   154   1                   5.835                   23.34      33.064999999999998
   155   1                   5.835                  25.285      31.119999999999994
   156   1      3.8900000000000006                   23.34      35.009999999999998
   157   1      3.8900000000000006                  25.285      36.954999999999998
   158   1                   5.835                   23.34      36.954999999999998
   159   1                   5.835                  25.285      35.009999999999998
   160   1      3.8900000000000006                   23.34      38.899999999999999
   161   1      3.8900000000000006                  25.285      40.844999999999999
   162   1                   5.835                   23.34      40.844999999999999
   163   1                   5.835                  25.285      38.899999999999999
   164   1      3.8900000000000006                   23.34      42.789999999999999
   165   1      3.8900000000000006                  25.285      44.734999999999992
   166   1                   5.835                   23.34      44.734999999999992
   167   1                   5.835                  25.285      42.789999999999999
   168   1      3.8900000000000006                   23.34                   46.68
   169   1      3.8900000000000006                  25.285                  48.625
   170   1                   5.835                   23.34                  48.625
   171   1                   5.835                  25.285                   46.68
   172   1      3.8900000000000006                   23.34                   50.57
   173   1      3.8900000000000006                  25.285      52.515000000000001
   174   1                   5.835                   23.34      52.515000000000001
   175   1                   5.835                  25.285                   50.57
   176   1      3.8900000000000006                   23.34      54.460000000000001
   177   1      3.8900000000000006                  25.285      56.405000000000001
   178   1                   5.835                   23.34      56.405000000000001
   179   1                   5.835                  25.285      54.460000000000001
   180   1      3.8900000000000006                   23.34      58.349999999999994
   181   1      3.8900000000000006                  25.285      60.295000000000002
   182   1                   5.835                   23.34      60.295000000000002
   183   1                   5.835                  25.285      58.349999999999994
   184   1      3.8900000000000006                   23.34      62.239999999999988
   185   1                   5.835                   23.34      64.184999999999988
   186   1                   5.835                  25.285      62.239999999999988
   187   1                   5.835                   23.34      68.074999999999989
   188   1                   5.835                  25.285      66.129999999999995
   189   1                   5.835                   23.34      71.964999999999989
   190   1                   5.835                  25.285      70.019999999999996
   191   1                   5.835                   27.23      13.614999999999998
   192   1                   5.835                   27.23      17.504999999999999
   193   1                   5.835      29.174999999999997      15.559999999999997
   194   1                   5.835                   27.23                  21.395
   195   1                   5.835      29.174999999999997      19.449999999999999
   196   1      3.8900000000000006                   27.23                   23.34
   197   1      3.8900000000000006      29.174999999999997                  25.285
   198   1                   5.835                   27.23                  25.285
   199   1                   5.835      29.174999999999997                   23.34
   200   1      3.8900000000000006                   27.23                   27.23
   201   1      3.8900000000000006      29.174999999999997      29.174999999999997
   202   1                   5.835                   27.23      29.174999999999997
   203   1                   5.835      29.174999999999997                   27.23
   204   1      3.8900000000000006                   27.23      31.119999999999994
   205   1      3.8900000000000006      29.174999999999997      33.064999999999998
   206   1                   5.835                   27.23      33.064999999999998
   207   1                   5.835      29.174999999999997      31.119999999999994
   208   1      3.8900000000000006                   27.23      35.009999999999998
   209   1      3.8900000000000006      29.174999999999997      36.954999999999998
   210   1                   5.835                   27.23      36.954999999999998
   211   1                   5.835      29.174999999999997      35.009999999999998
   212   1      3.8900000000000006                   27.23      38.899999999999999
   213   1      3.8900000000000006      29.174999999999997      40.844999999999999
   214   1                   5.835                   27.23      40.844999999999999
   215   1                   5.835      29.174999999999997      38.899999999999999
   216   1      3.8900000000000006                   27.23      42.789999999999999
   217   1      3.8900000000000006      29.174999999999997      44.734999999999992
   218   1                   5.835                   27.23      44.734999999999992
   219   1                   5.835      29.174999999999997      42.789999999999999
   220   1      3.8900000000000006                   27.23                   46.68
   221   1      3.8900000000000006      29.174999999999997                  48.625
   222   1                   5.835                   27.23                  48.625
   223   1                   5.835      29.174999999999997                   46.68
   224   1      3.8900000000000006                   27.23                   50.57
   225   1      3.8900000000000006      29.174999999999997      52.515000000000001
   226   1                   5.835                   27.23      52.515000000000001
   227   1                   5.835      29.174999999999997                   50.57
   228   1      3.8900000000000006                   27.23      54.460000000000001
   229   1      3.8900000000000006      29.174999999999997      56.405000000000001
   230   1                   5.835                   27.23      56.405000000000001
   231   1                   5.835      29.174999999999997      54.460000000000001
   232   1      3.8900000000000006                   27.23      58.349999999999994
   233   1      3.8900000000000006      29.174999999999997      60.295000000000002
   234   1                   5.835                   27.23      60.295000000000002
   235   1                   5.835      29.174999999999997      58.349999999999994
   236   1      3.8900000000000006                   27.23      62.239999999999988
   237   1                   5.835                   27.23      64.184999999999988
   238   1                   5.835      29.174999999999997      62.239999999999988
   239   1                   5.835                   27.23      68.074999999999989
   240   1                   5.835      29.174999999999997      66.129999999999995
   241   1                   5.835                   27.23      71.964999999999989
   242   1                   5.835      29.174999999999997      70.019999999999996
   243   1                   5.835      31.119999999999994      13.614999999999998
   244   1                   5.835      31.119999999999994      17.504999999999999
   245   1                   5.835      33.064999999999998      15.559999999999997
   246   1                   5.835      31.119999999999994                  21.395
   247   1                   5.835      33.064999999999998      19.449999999999999
   248   1      3.8900000000000006      31.119999999999994                   23.34
   249   1      3.8900000000000006      33.064999999999998                  25.285
   250   1                   5.835      31.119999999999994                  25.285
   251   1                   5.835      33.064999999999998                   23.34
   252   1      3.8900000000000006      31.119999999999994                   27.23
   253   1      3.8900000000000006      33.064999999999998      29.174999999999997
   254   1                   5.835      31.119999999999994      29.174999999999997
   255   1                   5.835      33.064999999999998                   27.23
   256   1      3.8900000000000006      31.119999999999994      31.119999999999994
   257   1      3.8900000000000006      33.064999999999998      33.064999999999998
   258   1                   5.835      31.119999999999994      33.064999999999998
   259   1                   5.835      33.064999999999998      31.119999999999994
   260   1      3.8900000000000006      31.119999999999994      35.009999999999998
   261   1      3.8900000000000006      33.064999999999998      36.954999999999998
   262   1                   5.835      31.119999999999994      36.954999999999998
   263   1                   5.835      33.064999999999998      35.009999999999998
   264   1      3.8900000000000006      31.119999999999994      38.899999999999999
   265   1      3.8900000000000006      33.064999999999998      40.844999999999999
   266   1                   5.835      31.119999999999994      40.844999999999999
   267   1                   5.835      33.064999999999998      38.899999999999999
   268   1      3.8900000000000006      31.119999999999994      42.789999999999999
   269   1      3.8900000000000006      33.064999999999998      44.734999999999992
   270   1                   5.835      31.119999999999994      44.734999999999992
   271   1                   5.835      33.064999999999998      42.789999999999999
   272   1      3.8900000000000006      31.119999999999994                   46.68
   273   1      3.8900000000000006      33.064999999999998                  48.625
   274   1                   5.835      31.119999999999994                  48.625
   275   1                   5.835      33.064999999999998                   46.68
   276   1      3.8900000000000006      31.119999999999994                   50.57
   277   1      3.8900000000000006      33.064999999999998      52.515000000000001
   278   1                   5.835      31.119999999999994      52.515000000000001
   279   1                   5.835      33.064999999999998                   50.57
   280   1      3.8900000000000006      31.119999999999994      54.460000000000001
   281   1      3.8900000000000006      33.064999999999998      56.405000000000001
   282   1                   5.835      31.119999999999994      56.405000000000001
   283   1                   5.835      33.064999999999998      54.460000000000001
   284   1      3.8900000000000006      31.119999999999994      58.349999999999994
   285   1      3.8900000000000006      33.064999999999998      60.295000000000002
   286   1                   5.835      31.119999999999994      60.295000000000002
   287   1                   5.835      33.064999999999998      58.349999999999994
   288   1      3.8900000000000006      31.119999999999994      62.239999999999988
   289   1                   5.835      31.119999999999994      64.184999999999988
   290   1                   5.835      33.064999999999998      62.239999999999988
   291   1                   5.835      31.119999999999994      68.074999999999989
   292   1                   5.835      33.064999999999998      66.129999999999995
   293   1                   5.835      31.119999999999994      71.964999999999989
   294   1                   5.835      33.064999999999998      70.019999999999996
   295   1                   5.835      35.009999999999998      13.614999999999998
   296   1                   5.835      35.009999999999998      17.504999999999999
   297   1                   5.835      36.954999999999998      15.559999999999997
   298   1                   5.835      35.009999999999998                  21.395
   299   1                   5.835      36.954999999999998      19.449999999999999
   300   1      3.8900000000000006      35.009999999999998                   23.34
   301   1      3.8900000000000006      36.954999999999998                  25.285
   302   1                   5.835      35.009999999999998                  25.285
   303   1                   5.835      36.954999999999998                   23.34
   304   1      3.8900000000000006      35.009999999999998                   27.23
   305   1      3.8900000000000006      36.954999999999998      29.174999999999997
   306   1                   5.835      35.009999999999998      29.174999999999997
   307   1                   5.835      36.954999999999998                   27.23
   308   1      3.8900000000000006      35.009999999999998      31.119999999999994
   309   1      3.8900000000000006      36.954999999999998      33.064999999999998
   310   1                   5.835      35.009999999999998      33.064999999999998
   311   1                   5.835      36.954999999999998      31.119999999999994
   312   1      3.8900000000000006      35.009999999999998      35.009999999999998
   313   1      3.8900000000000006      36.954999999999998      36.954999999999998
   314   1                   5.835      35.009999999999998      36.954999999999998
   315   1                   5.835      36.954999999999998      35.009999999999998
   316   1      3.8900000000000006      35.009999999999998      38.899999999999999
   317   1      3.8900000000000006      36.954999999999998      40.844999999999999
   318   1                   5.835      35.009999999999998      40.844999999999999
   319   1                   5.835      36.954999999999998      38.899999999999999
   320   1      3.8900000000000006      35.009999999999998      42.789999999999999
   321   1      3.8900000000000006      36.954999999999998      44.734999999999992
   322   1                   5.835      35.009999999999998      44.734999999999992
   323   1                   5.835      36.954999999999998      42.789999999999999
   324   1      3.8900000000000006      35.009999999999998                   46.68
   325   1      3.8900000000000006      36.954999999999998                  48.625
   326   1                   5.835      35.009999999999998                  48.625
   327   1                   5.835      36.954999999999998                   46.68
   328   1      3.8900000000000006      35.009999999999998                   50.57
   329   1      3.8900000000000006      36.954999999999998      52.515000000000001
   330   1                   5.835      35.009999999999998      52.515000000000001
   331   1                   5.835      36.954999999999998                   50.57
   332   1      3.8900000000000006      35.009999999999998      54.460000000000001
   333   1      3.8900000000000006      36.954999999999998      56.405000000000001
   334   1                   5.835      35.009999999999998      56.405000000000001
   335   1                   5.835      36.954999999999998      54.460000000000001
   336   1      3.8900000000000006      35.009999999999998      58.349999999999994
   337   1      3.8900000000000006      36.954999999999998      60.295000000000002
   338   1                   5.835      35.009999999999998      60.295000000000002
   339   1                   5.835      36.954999999999998      58.349999999999994
   340   1      3.8900000000000006      35.009999999999998      62.239999999999988
   341   1                   5.835      35.009999999999998      64.184999999999988
   342   1                   5.835      36.954999999999998      62.239999999999988
   343   1                   5.835      35.009999999999998      68.074999999999989
   344   1                   5.835      36.954999999999998      66.129999999999995
   345   1                   5.835      35.009999999999998      71.964999999999989
   346   1                   5.835      36.954999999999998      70.019999999999996
   347   1                   5.835      38.899999999999999      13.614999999999998
   348   1                   5.835      38.899999999999999      17.504999999999999
   349   1                   5.835      40.844999999999999      15.559999999999997
   350   1                   5.835      38.899999999999999                  21.395
   351   1                   5.835      40.844999999999999      19.449999999999999
   352   1      3.8900000000000006      38.899999999999999                   23.34
   353   1      3.8900000000000006      40.844999999999999                  25.285
   354   1                   5.835      38.899999999999999                  25.285
   355   1                   5.835      40.844999999999999                   23.34
   356   1      3.8900000000000006      38.899999999999999                   27.23
   357   1      3.8900000000000006      40.844999999999999      29.174999999999997
   358   1                   5.835      38.899999999999999      29.174999999999997