LAMMPS data file via write_data, version 30 Nov 2020, timestep = 0

30129 atoms
5 atom types

0 117 xlo xhi
0 117 ylo yhi
0 117 zlo zhi

Masses

1 58.69
2 58.933
3 51.96
4 55.847
5 54.94

Atoms # atomic

1 5 1.7974999999999997 55.72250000000001 57.52000000000001 0 0 0
2 5 1.7974999999999997 57.52000000000001 55.72250000000001 0 0 0
3 5 0 57.52000000000001 57.52000000000001 0 0 0
6 3 5.392500000000005 52.127500000000005 57.52000000000001 0 0 0
7 4 3.5949999999999993 55.72250000000001 55.72250000000001 0 0 0
8 2 5.392500000000005 53.92500000000001 55.72250000000001 0 0 0
9 4 5.392500000000005 55.72250000000001 53.92500000000001 0 0 0
10 5 3.5949999999999993 53.92500000000001 57.52000000000001 0 0 0
13 4 5.392500000000005 55.72250000000001 57.52000000000001 0 0 0
15 3 5.392500000000005 57.52000000000001 52.127500000000005 0 0 0
16 5 3.5949999999999993 57.52000000000001 53.92500000000001 0 0 0
18 3 5.392500000000005 57.52000000000001 55.72250000000001 0 0 0
20 5 3.5949999999999993 57.52000000000001 57.52000000000001 0 0 0
31 3 8.987500000000006 48.532500000000006 57.52000000000001 0 0 0
32 4 7.190000000000006 52.127500000000005 52.127500000000005 0 0 0
33 4 8.987500000000006 50.33000000000001 52.127500000000005 0 0 0
34 4 8.987500000000006 52.127500000000005 50.33000000000001 0 0 0
35 1 7.190000000000006 52.127500000000005 55.72250000000001 0 0 0
36 5 8.987500000000006 50.33000000000001 55.72250000000001 0 0 0
37 2 8.987500000000006 52.127500000000005 53.92500000000001 0 0 0
38 1 7.190000000000006 50.33000000000001 57.52000000000001 0 0 0
41 4 8.987500000000006 52.127500000000005 57.52000000000001 0 0 0
46 5 7.190000000000006 55.72250000000001 52.127500000000005 0 0 0
47 1 8.987500000000006 53.92500000000001 52.127500000000005 0 0 0
48 2 8.987500000000006 55.72250000000001 50.33000000000001 0 0 0
49 1 7.190000000000006 53.92500000000001 53.92500000000001 0 0 0
50 4 7.190000000000006 55.72250000000001 55.72250000000001 0 0 0
51 1 8.987500000000006 53.92500000000001 55.72250000000001 0 0 0
52 4 8.987500000000006 55.72250000000001 53.92500000000001 0 0 0
53 3 7.190000000000006 53.92500000000001 57.52000000000001 0 0 0
56 4 8.987500000000006 55.72250000000001 57.52000000000001 0 0 0
62 5 8.987500000000006 57.52000000000001 48.532500000000006 0 0 0
63 1 7.190000000000006 57.52000000000001 50.33000000000001 0 0 0
65 4 8.987500000000006 57.52000000000001 52.127500000000005 0 0 0
67 4 7.190000000000006 57.52000000000001 53.92500000000001 0 0 0
69 5 8.987500000000006 57.52000000000001 55.72250000000001 0 0 0
71 1 7.190000000000006 57.52000000000001 57.52000000000001 0 0 0
104 5 12.582500000000005 44.9375 57.52000000000001 0 0 0
105 1 10.785000000000005 48.532500000000006 48.532500000000006 0 0 0
106 4 12.582500000000005 46.735000000000014 48.532500000000006 0 0 0
107 2 12.582500000000005 48.532500000000006 46.735000000000014 0 0 0
108 2 10.785000000000005 48.532500000000006 52.127500000000005 0 0 0
109 2 12.582500000000005 46.735000000000014 52.127500000000005 0 0 0
110 1 12.582500000000005 48.532500000000006 50.33000000000001 0 0 0
111 5 10.785000000000005 48.532500000000006 55.72250000000001 0 0 0
112 5 12.582500000000005 46.735000000000014 55.72250000000001 0 0 0
113 4 12.582500000000005 48.532500000000006 53.92500000000001 0 0 0
114 3 10.785000000000005 46.735000000000014 57.52000000000001 0 0 0
117 4 12.582500000000005 48.532500000000006 57.52000000000001 0 0 0
125 4 10.785000000000005 52.127500000000005 48.532500000000006 0 0 0
126 3 12.582500000000005 50.33000000000001 48.532500000000006 0 0 0
127 5 12.582500000000005 52.127500000000005 46.735000000000014 0 0 0
128 5 10.785000000000005 50.33000000000001 50.33000000000001 0 0 0
129 4 10.785000000000005 52.127500000000005 52.127500000000005 0 0 0
130 4 12.582500000000005 50.33000000000001 52.127500000000005 0 0 0
131 2 12.582500000000005 52.127500000000005 50.33000000000001 0 0 0
132 4 10.785000000000005 50.33000000000001 53.92500000000001 0 0 0
133 4 10.785000000000005 52.127500000000005 55.72250000000001 0 0 0
134 5 12.582500000000005 50.33000000000001 55.72250000000001 0 0 0
135 3 12.582500000000005 52.127500000000005 53.92500000000001 0 0 0
136 5 10.785000000000005 50.33000000000001 57.52000000000001 0 0 0
139 4 12.582500000000005 52.127500000000005 57.52000000000001 0 0 0
149 4 10.785000000000005 55.72250000000001 48.532500000000006 0 0 0
150 4 12.582500000000005 53.92500000000001 48.532500000000006 0 0 0
151 3 12.582500000000005 55.72250000000001 46.735000000000014 0 0 0
152 4 10.785000000000005 53.92500000000001 50.33000000000001 0 0 0
153 4 10.785000000000005 55.72250000000001 52.127500000000005 0 0 0
154 3 12.582500000000005 53.92500000000001 52.127500000000005 0 0 0
155 4 12.582500000000005 55.72250000000001 50.33000000000001 0 0 0
156 1 10.785000000000005 53.92500000000001 53.92500000000001 0 0 0
157 5 10.785000000000005 55.72250000000001 55.72250000000001 0 0 0
158 5 12.582500000000005 53.92500000000001 55.72250000000001 0 0 0
159 2 12.582500000000005 55.72250000000001 53.92500000000001 0 0 0
160 3 10.785000000000005 53.92500000000001 57.52000000000001 0 0 0
163 1 12.582500000000005 55.72250000000001 57.52000000000001 0 0 0
173 4 12.582500000000005 57.52000000000001 44.9375 0 0 0
174 2 10.785000000000005 57.52000000000001 46.735000000000014 0 0 0
176 4 12.582500000000005 57.52000000000001 48.532500000000006 0 0 0
178 1 10.785000000000005 57.52000000000001 50.33000000000001 0 0 0
180 2 12.582500000000005 57.52000000000001 52.127500000000005 0 0 0
182 1 10.785000000000005 57.52000000000001 53.92500000000001 0 0 0
184 3 12.582500000000005 57.52000000000001 55.72250000000001 0 0 0
186 1 10.785000000000005 57.52000000000001 57.52000000000001 0 0 0
257 1 16.177500000000006 41.3425 57.52000000000001 0 0 0
258 2 14.380000000000004 44.9375 48.532500000000006 0 0 0
259 1 16.177500000000006 43.14000000000001 48.532500000000006 0 0 0
260 5 16.177500000000006 44.9375 46.735000000000014 0 0 0
261 4 14.380000000000004 44.9375 52.127500000000005 0 0 0
262 1 16.177500000000006 43.14000000000001 52.127500000000005 0 0 0
263 5 16.177500000000006 44.9375 50.33000000000001 0 0 0
264 5 14.380000000000004 44.9375 55.72250000000001 0 0 0
265 1 16.177500000000006 43.14000000000001 55.72250000000001 0 0 0
266 3 16.177500000000006 44.9375 53.92500000000001 0 0 0
267 5 14.380000000000004 43.14000000000001 57.52000000000001 0 0 0
270 5 16.177500000000006 44.9375 57.52000000000001 0 0 0
278 2 14.380000000000004 48.532500000000006 44.9375 0 0 0
279 1 16.177500000000006 46.735000000000014 44.9375 0 0 0
280 1 16.177500000000006 48.532500000000006 43.14000000000001 0 0 0
281 5 14.380000000000004 46.735000000000014 46.735000000000014 0 0 0
282 1 14.380000000000004 48.532500000000006 48.532500000000006 0 0 0
283 3 16.177500000000006 46.735000000000014 48.532500000000006 0 0 0
284 5 16.177500000000006 48.532500000000006 46.735000000000014 0 0 0
285 4 14.380000000000004 46.735000000000014 50.33000000000001 0 0 0
286 4 14.380000000000004 48.532500000000006 52.127500000000005 0 0 0
287 4 16.177500000000006 46.735000000000014 52.127500000000005 0 0 0
288 2 16.177500000000006 48.532500000000006 50.33000000000001 0 0 0
289 5 14.380000000000004 46.735000000000014 53.92500000000001 0 0 0
290 3 14.380000000000004 48.532500000000006 55.72250000000001 0 0 0
291 5 16.177500000000006 46.735000000000014 55.72250000000001 0 0 0
292 2 16.177500000000006 48.532500000000006 53.92500000000001 0 0 0
293 4 14.380000000000004 46.735000000000014 57.52000000000001 0 0 0
296 1 16.177500000000006 48.532500000000006 57.52000000000001 0 0 0
310 2 14.380000000000004 52.127500000000005 44.9375 0 0 0
311 1 16.177500000000006 50.33000000000001 44.9375 0 0 0
312 2 16.177500000000006 52.127500000000005 43.14000000000001 0 0 0
313 3 14.380000000000004 50.33000000000001 46.735000000000014 0 0 0
314 1 14.380000000000004 52.127500000000005 48.532500000000006 0 0 0
315 1 16.177500000000006 50.33000000000001 48.532500000000006 0 0 0
316 1 16.177500000000006 52.127500000000005 46.735000000000014 0 0 0
317 3 14.380000000000004 50.33000000000001 50.33000000000001 0 0 0
318 2 14.380000000000004 52.127500000000005 52.127500000000005 0 0 0
319 2 16.177500000000006 50.33000000000001 52.127500000000005 0 0 0
320 5 16.177500000000006 52.127500000000005 50.33000000000001 0 0 0
321 3 14.380000000000004 50.33000000000001 53.92500000000001 0 0 0
322 1 14.380000000000004 52.127500000000005 55.72250000000001 0 0 0
323 2 16.177500000000006 50.33000000000001 55.72250000000001 0 0 0
324 2 16.177500000000006 52.127500000000005 53.92500000000001 0 0 0
325 5 14.380000000000004 50.33000000000001 57.52000000000001 0 0 0
328 2 16.177500000000006 52.127500000000005 57.52000000000001 0 0 0
342 4 14.380000000000004 55.72250000000001 44.9375 0 0 0
343 4 16.177500000000006 53.92500000000001 44.9375 0 0 0
344 2 16.177500000000006 55.72250000000001 43.14000000000001 0 0 0
345 5 14.380000000000004 53.92500000000001 46.735000000000014 0 0 0
346 2 14.380000000000004 55.72250000000001 48.532500000000006 0 0 0
347 1 16.177500000000006 53.92500000000001 48.532500000000006 0 0 0
348 2 16.177500000000006 55.72250000000001 46.735000000000014 0 0 0
349 5 14.380000000000004 53.92500000000001 50.33000000000001 0 0 0
350 2 14.380000000000004 55.72250000000001 52.127500000000005 0 0 0
351 1 16.177500000000006 53.92500000000001 52.127500000000005 0 0 0
352 4 16.177500000000006 55.72250000000001 50.33000000000001 0 0 0
353 4 14.380000000000004 53.92500000000001 53.92500000000001 0 0 0
354 1 14.380000000000004 55.72250000000001 55.72250000000001 0 0 0
355 3 16.177500000000006 53.92500000000001 55.72250000000001 0 0 0
356 4 16.177500000000006 55.72250000000001 53.92500000000001 0 0 0
357 2 14.380000000000004 53.92500000000001 57.52000000000001 0 0 0
360 5 16.177500000000006 55.72250000000001 57.52000000000001 0 0 0
374 2 16.177500000000006 57.52000000000001 41.3425 0 0 0
375 2 14.380000000000004 57.52000000000001 43.14000000000001 0 0 0
377 1 16.177500000000006 57.52000000000001 44.9375 0 0 0
379 4 14.380000000000004 57.52000000000001 46.735000000000014 0 0 0
381 4 16.177500000000006 57.52000000000001 48.532500000000006 0 0 0
383 4 14.380000000000004 57.52000000000001 50.33000000000001 0 0 0
385 5 16.177500000000006 57.52000000000001 52.127500000000005 0 0 0
387 1 14.380000000000004 57.52000000000001 53.92500000000001 0 0 0
389 3 16.177500000000006 57.52000000000001 55.72250000000001 0 0 0
391 5 14.380000000000004 57.52000000000001 57.52000000000001 0 0 0
510 1 19.772500000000004 37.7475 57.52000000000001 0 0 0
511 2 19.772500000000004 41.3425 43.14000000000001 0 0 0
512 2 17.975000000000005 41.3425 48.532500000000006 0 0 0
513 2 19.772500000000004 39.54500000000001 48.532500000000006 0 0 0
514 3 19.772500000000004 41.3425 46.735000000000014 0 0 0
515 5 17.975000000000005 41.3425 52.127500000000005 0 0 0
516 3 19.772500000000004 39.54500000000001 52.127500000000005 0 0 0
517 2 19.772500000000004 41.3425 50.33000000000001 0 0 0
518 1 17.975000000000005 41.3425 55.72250000000001 0 0 0
519 2 19.772500000000004 39.54500000000001 55.72250000000001 0 0 0
520 2 19.772500000000004 41.3425 53.92500000000001 0 0 0
521 5 17.975000000000005 39.54500000000001 57.52000000000001 0 0 0
524 4 19.772500000000004 41.3425 57.52000000000001 0 0 0
533 2 19.772500000000004 43.14000000000001 41.3425 0 0 0
534 1 17.975000000000005 43.14000000000001 43.14000000000001 0 0 0
535 1 17.975000000000005 44.9375 44.9375 0 0 0
536 5 19.772500000000004 43.14000000000001 44.9375 0 0 0
537 4 19.772500000000004 44.9375 43.14000000000001 0 0 0
538 4 17.975000000000005 43.14000000000001 46.735000000000014 0 0 0
539 3 17.975000000000005 44.9375 48.532500000000006 0 0 0
540 5 19.772500000000004 43.14000000000001 48.532500000000006 0 0 0
541 4 19.772500000000004 44.9375 46.735000000000014 0 0 0
542 1 17.975000000000005 43.14000000000001 50.33000000000001 0 0 0
543 1 17.975000000000005 44.9375 52.127500000000005 0 0 0
544 2 19.772500000000004 43.14000000000001 52.127500000000005 0 0 0
545 1 19.772500000000004 44.9375 50.33000000000001 0 0 0
546 5 17.975000000000005 43.14000000000001 53.92500000000001 0 0 0
547 2 17.975000000000005 44.9375 55.72250000000001 0 0 0
548 5 19.772500000000004 43.14000000000001 55.72250000000001 0 0 0
549 1 19.772500000000004 44.9375 53.92500000000001 0 0 0
550 1 17.975000000000005 43.14000000000001 57.52000000000001 0 0 0
553 4 19.772500000000004 44.9375 57.52000000000001 0 0 0
569 3 17.975000000000005 48.532500000000006 41.3425 0 0 0
570 2 19.772500000000004 46.735000000000014 41.3425 0 0 0
571 1 19.772500000000004 48.532500000000006 39.54500000000001 0 0 0
572 1 17.975000000000005 46.735000000000014 43.14000000000001 0 0 0
573 2 17.975000000000005 48.532500000000006 44.9375 0 0 0
574 4 19.772500000000004 46.735000000000014 44.9375 0 0 0
575 3 19.772500000000004 48.532500000000006 43.14000000000001 0 0 0
576 5 17.975000000000005 46.735000000000014 46.735000000000014 0 0 0
577 3 17.975000000000005 48.532500000000006 48.532500000000006 0 0 0
578 1 19.772500000000004 46.735000000000014 48.532500000000006 0 0 0
579 4 19.772500000000004 48.532500000000006 46.735000000000014 0 0 0
580 4 17.975000000000005 46.735000000000014 50.33000000000001 0 0 0
581 5 17.975000000000005 48.532500000000006 52.127500000000005 0 0 0
582 5 19.772500000000004 46.735000000000014 52.127500000000005 0 0 0
583 2 19.772500000000004 48.532500000000006 50.33000000000001 0 0 0
584 5 17.975000000000005 46.735000000000014 53.92500000000001 0 0 0
585 1 17.975000000000005 48.532500000000006 55.72250000000001 0 0 0
586 2 19.772500000000004 46.735000000000014 55.72250000000001 0 0 0
587 3 19.772500000000004 48.532500000000006 53.92500000000001 0 0 0
588 1 17.975000000000005 46.735000000000014 57.52000000000001 0 0 0
591 3 19.772500000000004 48.532500000000006 57.52000000000001 0 0 0
609 5 17.975000000000005 52.127500000000005 41.3425 0 0 0
610 2 19.772500000000004 50.33000000000001 41.3425 0 0 0
611 1 19.772500000000004 52.127500000000005 39.54500000000001 0 0 0
612 2 17.975000000000005 50.33000000000001 43.14000000000001 0 0 0
613 3 17.975000000000005 52.127500000000005 44.9375 0 0 0
614 2 19.772500000000004 50.33000000000001 44.9375 0 0 0
615 3 19.772500000000004 52.127500000000005 43.14000000000001 0 0 0
616 2 17.975000000000005 50.33000000000001 46.735000000000014 0 0 0
617 4 17.975000000000005 52.127500000000005 48.532500000000006 0 0 0
618 4 19.772500000000004 50.33000000000001 48.532500000000006 0 0 0
619 5 19.772500000000004 52.127500000000005 46.735000000000014 0 0 0
620 3 17.975000000000005 50.33000000000001 50.33000000000001 0 0 0
621 3 17.975000000000005 52.127500000000005 52.127500000000005 0 0 0
622 4 19.772500000000004 50.33000000000001 52.127500000000005 0 0 0
623 3 19.772500000000004 52.127500000000005 50.33000000000001 0 0 0
624 4 17.975000000000005 50.33000000000001 53.92500000000001 0 0 0
625 3 17.975000000000005 52.127500000000005 55.72250000000001 0 0 0
626 4 19.772500000000004 50.33000000000001 55.72250000000001 0 0 0
627 2 19.772500000000004 52.127500000000005 53.92500000000001 0 0 0
628 4 17.975000000000005 50.33000000000001 57.52000000000001 0 0 0
631 1 19.772500000000004 52.127500000000005 57.52000000000001 0 0 0
649 4 17.975000000000005 55.72250000000001 41.3425 0 0 0
650 2 19.772500000000004 53.92500000000001 41.3425 0 0 0
651 1 19.772500000000004 55.72250000000001 39.54500000000001 0 0 0
652 2 17.975000000000005 53.92500000000001 43.14000000000001 0 0 0
653 1 17.975000000000005 55.72250000000001 44.9375 0 0 0
654 2 19.772500000000004 53.92500000000001 44.9375 0 0 0
655 5 19.772500000000004 55.72250000000001 43.14000000000001 0 0 0
656 5 17.975000000000005 53.92500000000001 46.735000000000014 0 0 0
657 1 17.975000000000005 55.72250000000001 48.532500000000006 0 0 0
658 4 19.772500000000004 53.92500000000001 48.532500000000006 0 0 0
659 4 19.772500000000004 55.72250000000001 46.735000000000014 0 0 0
660 4 17.975000000000005 53.92500000000001 50.33000000000001 0 0 0
661 1 17.975000000000005 55.72250000000001 52.127500000000005 0 0 0
662 2 19.772500000000004 53.92500000000001 52.127500000000005 0 0 0
663 3 19.772500000000004 55.72250000000001 50.33000000000001 0 0 0
664 2 17.975000000000005 53.92500000000001 53.92500000000001 0 0 0
665 2 17.975000000000005 55.72250000000001 55.72250000000001 0 0 0
666 5 19.772500000000004 53.92500000000001 55.72250000000001 0 0 0
667 4 19.772500000000004 55.72250000000001 53.92500000000001 0 0 0
668 2 17.975000000000005 53.92500000000001 57.52000000000001 0 0 0
671 3 19.772500000000004 55.72250000000001 57.52000000000001 0 0 0
689 1 19.772500000000004 57.52000000000001 37.7475 0 0 0
690 4 17.975000000000005 57.52000000000001 39.54500000000001 0 0 0
692 5 19.772500000000004 57.52000000000001 41.3425 0 0 0
694 1 17.975000000000005 57.52000000000001 43.14000000000001 0 0 0
696 2 19.772500000000004 57.52000000000001 44.9375 0 0 0
698 1 17.975000000000005 57.52000000000001 46.735000000000014 0 0 0
700 5 19.772500000000004 57.52000000000001 48.532500000000006 0 0 0
702 2 17.975000000000005 57.52000000000001 50.33000000000001 0 0 0
704 2 19.772500000000004 57.52000000000001 52.127500000000005 0 0 0
706 1 17.975000000000005 57.52000000000001 53.92500000000001 0 0 0
708 4 19.772500000000004 57.52000000000001 55.72250000000001 0 0 0
710 4 17.975000000000005 57.52000000000001 57.52000000000001 0 0 0
891 5 23.367500000000003 34.1525 57.52000000000001 0 0 0
892 3 23.367500000000003 37.7475 43.14000000000001 0 0 0
893 3 21.570000000000004 37.7475 48.532500000000006 0 0 0
894 4 23.367500000000003 35.95000000000001 48.532500000000006 0 0 0
895 4 23.367500000000003 37.7475 46.735000000000014 0 0 0
896 3 21.570000000000004 37.7475 52.127500000000005 0 0 0
897 2 23.367500000000003 35.95000000000001 52.127500000000005 0 0 0
898 3 23.367500000000003 37.7475 50.33000000000001 0 0 0
899 5 21.570000000000004 37.7475 55.72250000000001 0 0 0
900 4 23.367500000000003 35.95000000000001 55.72250000000001 0 0 0
901 2 23.367500000000003 37.7475 53.92500000000001 0 0 0
902 3 21.570000000000004 35.95000000000001 57.52000000000001 0 0 0
905 5 23.367500000000003 37.7475 57.52000000000001 0 0 0
914 1 21.570000000000004 41.3425 41.3425 0 0 0
915 3 23.367500000000003 39.54500000000001 41.3425 0 0 0
916 2 23.367500000000003 41.3425 39.54500000000001 0 0 0
917 3 21.570000000000004 39.54500000000001 43.14000000000001 0 0 0
918 5 21.570000000000004 41.3425 44.9375 0 0 0
919 5 23.367500000000003 39.54500000000001 44.9375 0 0 0
920 2 23.367500000000003 41.3425 43.14000000000001 0 0 0
921 4 21.570000000000004 39.54500000000001 46.735000000000014 0 0 0
922 3 21.570000000000004 41.3425 48.532500000000006 0 0 0
923 5 23.367500000000003 39.54500000000001 48.532500000000006 0 0 0
924 2 23.367500000000003 41.3425 46.735000000000014 0 0 0
925 3 21.570000000000004 39.54500000000001 50.33000000000001 0 0 0
926 4 21.570000000000004 41.3425 52.127500000000005 0 0 0
927 2 23.367500000000003 39.54500000000001 52.127500000000005 0 0 0
928 5 23.367500000000003 41.3425 50.33000000000001 0 0 0
929 5 21.570000000000004 39.54500000000001 53.92500000000001 0 0 0
930 1 21.570000000000004 41.3425 55.72250000000001 0 0 0
931 1 23.367500000000003 39.54500000000001 55.72250000000001 0 0 0
932 2 23.367500000000003 41.3425 53.92500000000001 0 0 0
933 4 21.570000000000004 39.54500000000001 57.52000000000001 0 0 0
936 2 23.367500000000003 41.3425 57.52000000000001 0 0 0
954 2 23.367500000000003 43.14000000000001 37.7475 0 0 0
955 5 21.570000000000004 43.14000000000001 39.54500000000001 0 0 0
956 1 21.570000000000004 44.9375 41.3425 0 0 0
957 4 23.367500000000003 43.14000000000001 41.3425 0 0 0
958 3 23.367500000000003 44.9375 39.54500000000001 0 0 0
959 1 21.570000000000004 43.14000000000001 43.14000000000001 0 0 0
960 2 21.570000000000004 44.9375 44.9375 0 0 0
961 3 23.367500000000003 43.14000000000001 44.9375 0 0 0
962 4 23.367500000000003 44.9375 43.14000000000001 0 0 0
963 2 21.570000000000004 43.14000000000001 46.735000000000014 0 0 0
964 1 21.570000000000004 44.9375 48.532500000000006 0 0 0
965 5 23.367500000000003 43.14000000000001 48.532500000000006 0 0 0
966 1 23.367500000000003 44.9375 46.735000000000014 0 0 0
967 1 21.570000000000004 43.14000000000001 50.33000000000001 0 0 0
968 4 21.570000000000004 44.9375 52.127500000000005 0 0 0
969 5 23.367500000000003 43.14000000000001 52.127500000000005 0 0 0
970 4 23.367500000000003 44.9375 50.33000000000001 0 0 0
971 5 21.570000000000004 43.14000000000001 53.92500000000001 0 0 0
972 1 21.570000000000004 44.9375 55.72250000000001 0 0 0
973 2 23.367500000000003 43.14000000000001 55.72250000000001 0 0 0
974 3 23.367500000000003 44.9375 53.92500000000001 0 0 0
975 2 21.570000000000004 43.14000000000001 57.52000000000001 0 0 0
978 2 23.367500000000003 44.9375 57.52000000000001 0 0 0
998 4 21.570000000000004 48.532500000000006 37.7475 0 0 0
999 1 23.367500000000003 46.735000000000014 37.7475 0 0 0
1000 2 23.367500000000003 48.532500000000006 35.95000000000001 0 0 0
1001 4 21.570000000000004 46.735000000000014 39.54500000000001 0 0 0
1002 3 21.570000000000004 48.532500000000006 41.3425 0 0 0
1003 4 23.367500000000003 46.735000000000014 41.3425 0 0 0
1004 1 23.367500000000003 48.532500000000006 39.54500000000001 0 0 0
1005 1 21.570000000000004 46.735000000000014 43.14000000000001 0 0 0
1006 3 21.570000000000004 48.532500000000006 44.9375 0 0 0
1007 4 23.367500000000003 46.735000000000014 44.9375 0 0 0
1008 1 23.367500000000003 48.532500000000006 43.14000000000001 0 0 0
1009 4 21.570000000000004 46.735000000000014 46.735000000000014 0 0 0
1010 5 21.570000000000004 48.532500000000006 48.532500000000006 0 0 0
1011 5 23.367500000000003 46.735000000000014 48.532500000000006 0 0 0
1012 2 23.367500000000003 48.532500000000006 46.735000000000014 0 0 0
1013 5 21.570000000000004 46.735000000000014 50.33000000000001 0 0 0
1014 5 21.570000000000004 48.532500000000006 52.127500000000005 0 0 0
1015 5 23.367500000000003 46.735000000000014 52.127500000000005 0 0 0
1016 2 23.367500000000003 48.532500000000006 50.33000000000001 0 0 0
1017 1 21.570000000000004 46.735000000000014 53.92500000000001 0 0 0
1018 1 21.570000000000004 48.532500000000006 55.72250000000001 0 0 0
1019 1 23.367500000000003 46.735000000000014 55.72250000000001 0 0 0
1020 1 23.367500000000003 48.532500000000006 53.92500000000001 0 0 0
1021 3 21.570000000000004 46.735000000000014 57.52000000000001 0 0 0
1024 3 23.367500000000003 48.532500000000006 57.52000000000001 0 0 0
1046 2 21.570000000000004 52.127500000000005 37.7475 0 0 0
1047 4 23.367500000000003 50.33000000000001 37.7475 0 0 0
1048 1 23.367500000000003 52.127500000000005 35.95000000000001 0 0 0
1049 3 21.570000000000004 50.33000000000001 39.54500000000001 0 0 0
1050 3 21.570000000000004 52.127500000000005 41.3425 0 0 0
1051 3 23.367500000000003 50.33000000000001 41.3425 0 0 0
1052 2 23.367500000000003 52.127500000000005 39.54500000000001 0 0 0
1053 2 21.570000000000004 50.33000000000001 43.14000000000001 0 0 0
1054 2 21.570000000000004 52.127500000000005 44.9375 0 0 0
1055 5 23.367500000000003 50.33000000000001 44.9375 0 0 0
1056 4 23.367500000000003 52.127500000000005 43.14000000000001 0 0 0
1057 4 21.570000000000004 50.33000000000001 46.735000000000014 0 0 0
1058 2 21.570000000000004 52.127500000000005 48.532500000000006 0 0 0
1059 2 23.367500000000003 50.33000000000001 48.532500000000006 0 0 0
1060 5 23.367500000000003 52.127500000000005 46.735000000000014 0 0 0
1061 2 21.570000000000004 50.33000000000001 50.33000000000001 0 0 0
1062 4 21.570000000000004 52.127500000000005 52.127500000000005 0 0 0
1063 2 23.367500000000003 50.33000000000001 52.127500000000005 0 0 0
1064 1 23.367500000000003 52.127500000000005 50.33000000000001 0 0 0
1065 2 21.570000000000004 50.33000000000001 53.92500000000001 0 0 0
1066 3 21.570000000000004 52.127500000000005 55.72250000000001 0 0 0
1067 4 23.367500000000003 50.33000000000001 55.72250000000001 0 0 0
1068 4 23.367500000000003 52.127500000000005 53.92500000000001 0 0 0
1069 5 21.570000000000004 50.33000000000001 57.52000000000001 0 0 0
1072 5 23.367500000000003 52.127500000000005 57.52000000000001 0 0 0
1094 5 21.570000000000004 55.72250000000001 37.7475 0 0 0
1095 4 23.367500000000003 53.92500000000001 37.7475 0 0 0
1096 1 23.367500000000003 55.72250000000001 35.95000000000001 0 0 0
1097 2 21.570000000000004 53.92500000000001 39.54500000000001 0 0 0
1098 2 21.570000000000004 55.72250000000001 41.3425 0 0 0
1099 1 23.367500000000003 53.92500000000001 41.3425 0 0 0
1100 5 23.367500000000003 55.72250000000001 39.54500000000001 0 0 0
1101 5 21.570000000000004 53.92500000000001 43.14000000000001 0 0 0
1102 1 21.570000000000004 55.72250000000001 44.9375 0 0 0
1103 1 23.367500000000003 53.92500000000001 44.9375 0 0 0
1104 3 23.367500000000003 55.72250000000001 43.14000000000001 0 0 0
1105 1 21.570000000000004 53.92500000000001 46.735000000000014 0 0 0
1106 4 21.570000000000004 55.72250000000001 48.532500000000006 0 0 0
1107 1 23.367500000000003 53.92500000000001 48.532500000000006 0 0 0
1108 5 23.367500000000003 55.72250000000001 46.735000000000014 0 0 0
1109 3 21.570000000000004 53.92500000000001 50.33000000000001 0 0 0
1110 2 21.570000000000004 55.72250000000001 52.127500000000005 0 0 0
1111 2 23.367500000000003 53.92500000000001 52.127500000000005 0 0 0
1112 5 23.367500000000003 55.72250000000001 50.33000000000001 0 0 0
1113 4 21.570000000000004 53.92500000000001 53.92500000000001 0 0 0
1114 5 21.570000000000004 55.72250000000001 55.72250000000001 0 0 0
1115 3 23.367500000000003 53.92500000000001 55.72250000000001 0 0 0
1116 3 23.367500000000003 55.72250000000001 53.92500000000001 0 0 0
1117 5 21.570000000000004 53.92500000000001 57.52000000000001 0 0 0
1120 3 23.367500000000003 55.72250000000001 57.52000000000001 0 0 0
1142 5 23.367500000000003 57.52000000000001 34.1525 0 0 0
1143 4 21.570000000000004 57.52000000000001 35.95000000000001 0 0 0
1145 5 23.367500000000003 57.52000000000001 37.7475 0 0 0
1147 1 21.570000000000004 57.52000000000001 39.54500000000001 0 0 0
1149 4 23.367500000000003 57.52000000000001 41.3425 0 0 0
1151 3 21.570000000000004 57.52000000000001 43.14000000000001 0 0 0
1153 1 23.367500000000003 57.52000000000001 44.9375 0 0 0
1155 5 21.570000000000004 57.52000000000001 46.735000000000014 0 0 0
1157 3 23.367500000000003 57.52000000000001 48.532500000000006 0 0 0
1159 2 21.570000000000004 57.52000000000001 50.33000000000001 0 0 0
1161 1 23.367500000000003 57.52000000000001 52.127500000000005 0 0 0
1163 5 21.570000000000004 57.52000000000001 53.92500000000001 0 0 0
1165 5 23.367500000000003 57.52000000000001 55.72250000000001 0 0 0
1167 2 21.570000000000004 57.52000000000001 57.52000000000001 0 0 0
1420 1 26.962500000000006 30.557500000000008 57.52000000000001 0 0 0
1421 4 26.962500000000006 34.1525 43.14000000000001 0 0 0
1422 5 25.165000000000003 34.1525 48.532500000000006 0 0 0
1423 3 26.962500000000006 32.35500000000001 48.532500000000006 0 0 0
1424 1 26.962500000000006 34.1525 46.735000000000014 0 0 0
1425 5 25.165000000000003 34.1525 52.127500000000005 0 0 0
1426 2 26.962500000000006 32.35500000000001 52.127500000000005 0 0 0
1427 4 26.962500000000006 34.1525 50.33000000000001 0 0 0
1428 1 25.165000000000003 34.1525 55.72250000000001 0 0 0
1429 5 26.962500000000006 32.35500000000001 55.72250000000001 0 0 0
1430 3 26.962500000000006 34.1525 53.92500000000001 0 0 0
1431 3 25.165000000000003 32.35500000000001 57.52000000000001 0 0 0
1434 4 26.962500000000006 34.1525 57.52000000000001 0 0 0
1443 1 25.165000000000003 37.7475 37.7475 0 0 0
1444 4 26.962500000000006 35.95000000000001 37.7475 0 0 0
1445 4 26.962500000000006 37.7475 35.95000000000001 0 0 0
1446 4 25.165000000000003 37.7475 41.3425 0 0 0
1447 5 26.962500000000006 35.95000000000001 41.3425 0 0 0
1448 5 26.962500000000006 37.7475 39.54500000000001 0 0 0
1449 5 25.165000000000003 35.95000000000001 43.14000000000001 0 0 0
1450 2 25.165000000000003 37.7475 44.9375 0 0 0
1451 1 26.962500000000006 35.95000000000001 44.9375 0 0 0
1452 5 26.962500000000006 37.7475 43.14000000000001 0 0 0
1453 5 25.165000000000003 35.95000000000001 46.735000000000014 0 0 0
1454 3 25.165000000000003 37.7475 48.532500000000006 0 0 0
1455 5 26.962500000000006 35.95000000000001 48.532500000000006 0 0 0
1456 3 26.962500000000006 37.7475 46.735000000000014 0 0 0
1457 1 25.165000000000003 35.95000000000001 50.33000000000001 0 0 0
1458 5 25.165000000000003 37.7475 52.127500000000005 0 0 0
1459 4 26.962500000000006 35.95000000000001 52.127500000000005 0 0 0
1460 2 26.962500000000006 37.7475 50.33000000000001 0 0 0
1461 2 25.165000000000003 35.95000000000001 53.92500000000001 0 0 0
1462 4 25.165000000000003 37.7475 55.72250000000001 0 0 0
1463 5 26.962500000000006 35.95000000000001 55.72250000000001 0 0 0
1464 2 26.962500000000006 37.7475 53.92500000000001 0 0 0
1465 2 25.165000000000003 35.95000000000001 57.52000000000001 0 0 0
1468 2 26.962500000000006 37.7475 57.52000000000001 0 0 0
1489 1 25.165000000000003 41.3425 37.7475 0 0 0
1490 1 26.962500000000006 39.54500000000001 37.7475 0 0 0
1491 3 26.962500000000006 41.3425 35.95000000000001 0 0 0
1492 3 25.165000000000003 39.54500000000001 39.54500000000001 0 0 0
1493 2 25.165000000000003 41.3425 41.3425 0 0 0
1494 2 26.962500000000006 39.54500000000001 41.3425 0 0 0
1495 5 26.962500000000006 41.3425 39.54500000000001 0 0 0
1496 1 25.165000000000003 39.54500000000001 43.14000000000001 0 0 0
1497 2 25.165000000000003 41.3425 44.9375 0 0 0
1498 1 26.962500000000006 39.54500000000001 44.9375 0 0 0
1499 3 26.962500000000006 41.3425 43.14000000000001 0 0 0
1500 2 25.165000000000003 39.54500000000001 46.735000000000014 0 0 0
1501 5 25.165000000000003 41.3425 48.532500000000006 0 0 0
1502 1 26.962500000000006 39.54500000000001 48.532500000000006 0 0 0
1503 1 26.962500000000006 41.3425 46.735000000000014 0 0 0
1504 4 25.165000000000003 39.54500000000001 50.33000000000001 0 0 0
1505 4 25.165000000000003 41.3425 52.127500000000005 0 0 0