model_files/NiCoCrFeMn/NiCoCrFeMn_30000/NiCoCrFeMn_441/NiCoCrFeMn_441_fcc_30129_temp.data (written by ASE) 

30129 	 atoms 
5  atom types
0.0                     117  xlo xhi
0.0                     117  ylo yhi
0.0                     117  zlo zhi


Atoms 

     1   1      1.7974999999999997      55.722500000000011       57.52000000000001
     2   1      1.7974999999999997       57.52000000000001      55.722500000000011
     3   1                       0       57.52000000000001       57.52000000000001
     4   1      1.7974999999999997       57.52000000000001      59.317500000000003
     5   1      1.7974999999999997      59.317500000000003       57.52000000000001
     6   1      5.3925000000000054      52.127500000000005       57.52000000000001
     7   1      3.5949999999999993      55.722500000000011      55.722500000000011
     8   1      5.3925000000000054      53.925000000000011      55.722500000000011
     9   1      5.3925000000000054      55.722500000000011      53.925000000000011
    10   1      3.5949999999999993      53.925000000000011       57.52000000000001
    11   1      3.5949999999999993      55.722500000000011      59.317500000000003
    12   1      5.3925000000000054      53.925000000000011      59.317500000000003
    13   1      5.3925000000000054      55.722500000000011       57.52000000000001
    14   1      5.3925000000000054      55.722500000000011      61.115000000000016
    15   1      5.3925000000000054       57.52000000000001      52.127500000000005
    16   1      3.5949999999999993       57.52000000000001      53.925000000000011
    17   1      3.5949999999999993      59.317500000000003      55.722500000000011
    18   1      5.3925000000000054       57.52000000000001      55.722500000000011
    19   1      5.3925000000000054      59.317500000000003      53.925000000000011
    20   1      3.5949999999999993       57.52000000000001       57.52000000000001
    21   1      3.5949999999999993      59.317500000000003      59.317500000000003
    22   1      5.3925000000000054       57.52000000000001      59.317500000000003
    23   1      5.3925000000000054      59.317500000000003       57.52000000000001
    24   1      3.5949999999999993       57.52000000000001      61.115000000000016
    25   1      5.3925000000000054       57.52000000000001      62.912500000000009
    26   1      5.3925000000000054      59.317500000000003      61.115000000000016
    27   1      5.3925000000000054      61.115000000000016      55.722500000000011
    28   1      3.5949999999999993      61.115000000000016       57.52000000000001
    29   1      5.3925000000000054      61.115000000000016      59.317500000000003
    30   1      5.3925000000000054      62.912500000000009       57.52000000000001
    31   1       8.987500000000006      48.532500000000006       57.52000000000001
    32   1      7.1900000000000057      52.127500000000005      52.127500000000005
    33   1       8.987500000000006      50.330000000000013      52.127500000000005
    34   1       8.987500000000006      52.127500000000005      50.330000000000013
    35   1      7.1900000000000057      52.127500000000005      55.722500000000011
    36   1       8.987500000000006      50.330000000000013      55.722500000000011
    37   1       8.987500000000006      52.127500000000005      53.925000000000011
    38   1      7.1900000000000057      50.330000000000013       57.52000000000001
    39   1      7.1900000000000057      52.127500000000005      59.317500000000003
    40   1       8.987500000000006      50.330000000000013      59.317500000000003
    41   1       8.987500000000006      52.127500000000005       57.52000000000001
    42   1      7.1900000000000057      52.127500000000005      62.912500000000009
    43   1       8.987500000000006      50.330000000000013      62.912500000000009
    44   1       8.987500000000006      52.127500000000005      61.115000000000016
    45   1       8.987500000000006      52.127500000000005      64.710000000000022
    46   1      7.1900000000000057      55.722500000000011      52.127500000000005
    47   1       8.987500000000006      53.925000000000011      52.127500000000005
    48   1       8.987500000000006      55.722500000000011      50.330000000000013
    49   1      7.1900000000000057      53.925000000000011      53.925000000000011
    50   1      7.1900000000000057      55.722500000000011      55.722500000000011
    51   1       8.987500000000006      53.925000000000011      55.722500000000011
    52   1       8.987500000000006      55.722500000000011      53.925000000000011
    53   1      7.1900000000000057      53.925000000000011       57.52000000000001
    54   1      7.1900000000000057      55.722500000000011      59.317500000000003
    55   1       8.987500000000006      53.925000000000011      59.317500000000003
    56   1       8.987500000000006      55.722500000000011       57.52000000000001
    57   1      7.1900000000000057      53.925000000000011      61.115000000000016
    58   1      7.1900000000000057      55.722500000000011      62.912500000000009
    59   1       8.987500000000006      53.925000000000011      62.912500000000009
    60   1       8.987500000000006      55.722500000000011      61.115000000000016
    61   1       8.987500000000006      55.722500000000011      64.710000000000022
    62   1       8.987500000000006       57.52000000000001      48.532500000000006
    63   1      7.1900000000000057       57.52000000000001      50.330000000000013
    64   1      7.1900000000000057      59.317500000000003      52.127500000000005
    65   1       8.987500000000006       57.52000000000001      52.127500000000005
    66   1       8.987500000000006      59.317500000000003      50.330000000000013
    67   1      7.1900000000000057       57.52000000000001      53.925000000000011
    68   1      7.1900000000000057      59.317500000000003      55.722500000000011
    69   1       8.987500000000006       57.52000000000001      55.722500000000011
    70   1       8.987500000000006      59.317500000000003      53.925000000000011
    71   1      7.1900000000000057       57.52000000000001       57.52000000000001
    72   1      7.1900000000000057      59.317500000000003      59.317500000000003
    73   1       8.987500000000006       57.52000000000001      59.317500000000003
    74   1       8.987500000000006      59.317500000000003       57.52000000000001
    75   1      7.1900000000000057       57.52000000000001      61.115000000000016
    76   1      7.1900000000000057      59.317500000000003      62.912500000000009
    77   1       8.987500000000006       57.52000000000001      62.912500000000009
    78   1       8.987500000000006      59.317500000000003      61.115000000000016
    79   1      7.1900000000000057       57.52000000000001      64.710000000000022
    80   1       8.987500000000006       57.52000000000001      66.507500000000022
    81   1       8.987500000000006      59.317500000000003      64.710000000000022
    82   1      7.1900000000000057      62.912500000000009      52.127500000000005
    83   1       8.987500000000006      61.115000000000016      52.127500000000005
    84   1       8.987500000000006      62.912500000000009      50.330000000000013
    85   1      7.1900000000000057      61.115000000000016      53.925000000000011
    86   1      7.1900000000000057      62.912500000000009      55.722500000000011
    87   1       8.987500000000006      61.115000000000016      55.722500000000011
    88   1       8.987500000000006      62.912500000000009      53.925000000000011
    89   1      7.1900000000000057      61.115000000000016       57.52000000000001
    90   1      7.1900000000000057      62.912500000000009      59.317500000000003
    91   1       8.987500000000006      61.115000000000016      59.317500000000003
    92   1       8.987500000000006      62.912500000000009       57.52000000000001
    93   1      7.1900000000000057      61.115000000000016      61.115000000000016
    94   1      7.1900000000000057      62.912500000000009      62.912500000000009
    95   1       8.987500000000006      61.115000000000016      62.912500000000009
    96   1       8.987500000000006      62.912500000000009      61.115000000000016
    97   1       8.987500000000006      62.912500000000009      64.710000000000022
    98   1       8.987500000000006      64.710000000000022      52.127500000000005
    99   1       8.987500000000006      64.710000000000022      55.722500000000011
   100   1      7.1900000000000057      64.710000000000022       57.52000000000001
   101   1       8.987500000000006      64.710000000000022      59.317500000000003
   102   1       8.987500000000006      66.507500000000022       57.52000000000001
   103   1       8.987500000000006      64.710000000000022      62.912500000000009
   104   1      12.582500000000005                 44.9375       57.52000000000001
   105   1      10.785000000000005      48.532500000000006      48.532500000000006
   106   1      12.582500000000005      46.735000000000014      48.532500000000006
   107   1      12.582500000000005      48.532500000000006      46.735000000000014
   108   1      10.785000000000005      48.532500000000006      52.127500000000005
   109   1      12.582500000000005      46.735000000000014      52.127500000000005
   110   1      12.582500000000005      48.532500000000006      50.330000000000013
   111   1      10.785000000000005      48.532500000000006      55.722500000000011
   112   1      12.582500000000005      46.735000000000014      55.722500000000011
   113   1      12.582500000000005      48.532500000000006      53.925000000000011
   114   1      10.785000000000005      46.735000000000014       57.52000000000001
   115   1      10.785000000000005      48.532500000000006      59.317500000000003
   116   1      12.582500000000005      46.735000000000014      59.317500000000003
   117   1      12.582500000000005      48.532500000000006       57.52000000000001
   118   1      10.785000000000005      48.532500000000006      62.912500000000009
   119   1      12.582500000000005      46.735000000000014      62.912500000000009
   120   1      12.582500000000005      48.532500000000006      61.115000000000016
   121   1      10.785000000000005      48.532500000000006      66.507500000000022
   122   1      12.582500000000005      46.735000000000014      66.507500000000022
   123   1      12.582500000000005      48.532500000000006      64.710000000000022
   124   1      12.582500000000005      48.532500000000006      68.305000000000007
   125   1      10.785000000000005      52.127500000000005      48.532500000000006
   126   1      12.582500000000005      50.330000000000013      48.532500000000006
   127   1      12.582500000000005      52.127500000000005      46.735000000000014
   128   1      10.785000000000005      50.330000000000013      50.330000000000013
   129   1      10.785000000000005      52.127500000000005      52.127500000000005
   130   1      12.582500000000005      50.330000000000013      52.127500000000005
   131   1      12.582500000000005      52.127500000000005      50.330000000000013
   132   1      10.785000000000005      50.330000000000013      53.925000000000011
   133   1      10.785000000000005      52.127500000000005      55.722500000000011
   134   1      12.582500000000005      50.330000000000013      55.722500000000011
   135   1      12.582500000000005      52.127500000000005      53.925000000000011
   136   1      10.785000000000005      50.330000000000013       57.52000000000001
   137   1      10.785000000000005      52.127500000000005      59.317500000000003
   138   1      12.582500000000005      50.330000000000013      59.317500000000003
   139   1      12.582500000000005      52.127500000000005       57.52000000000001
   140   1      10.785000000000005      50.330000000000013      61.115000000000016
   141   1      10.785000000000005      52.127500000000005      62.912500000000009
   142   1      12.582500000000005      50.330000000000013      62.912500000000009
   143   1      12.582500000000005      52.127500000000005      61.115000000000016
   144   1      10.785000000000005      50.330000000000013      64.710000000000022
   145   1      10.785000000000005      52.127500000000005      66.507500000000022
   146   1      12.582500000000005      50.330000000000013      66.507500000000022
   147   1      12.582500000000005      52.127500000000005      64.710000000000022
   148   1      12.582500000000005      52.127500000000005      68.305000000000007
   149   1      10.785000000000005      55.722500000000011      48.532500000000006
   150   1      12.582500000000005      53.925000000000011      48.532500000000006
   151   1      12.582500000000005      55.722500000000011      46.735000000000014
   152   1      10.785000000000005      53.925000000000011      50.330000000000013
   153   1      10.785000000000005      55.722500000000011      52.127500000000005
   154   1      12.582500000000005      53.925000000000011      52.127500000000005
   155   1      12.582500000000005      55.722500000000011      50.330000000000013
   156   1      10.785000000000005      53.925000000000011      53.925000000000011
   157   1      10.785000000000005      55.722500000000011      55.722500000000011
   158   1      12.582500000000005      53.925000000000011      55.722500000000011
   159   1      12.582500000000005      55.722500000000011      53.925000000000011
   160   1      10.785000000000005      53.925000000000011       57.52000000000001
   161   1      10.785000000000005      55.722500000000011      59.317500000000003
   162   1      12.582500000000005      53.925000000000011      59.317500000000003
   163   1      12.582500000000005      55.722500000000011       57.52000000000001
   164   1      10.785000000000005      53.925000000000011      61.115000000000016
   165   1      10.785000000000005      55.722500000000011      62.912500000000009
   166   1      12.582500000000005      53.925000000000011      62.912500000000009
   167   1      12.582500000000005      55.722500000000011      61.115000000000016
   168   1      10.785000000000005      53.925000000000011      64.710000000000022
   169   1      10.785000000000005      55.722500000000011      66.507500000000022
   170   1      12.582500000000005      53.925000000000011      66.507500000000022
   171   1      12.582500000000005      55.722500000000011      64.710000000000022
   172   1      12.582500000000005      55.722500000000011      68.305000000000007
   173   1      12.582500000000005       57.52000000000001                 44.9375
   174   1      10.785000000000005       57.52000000000001      46.735000000000014
   175   1      10.785000000000005      59.317500000000003      48.532500000000006
   176   1      12.582500000000005       57.52000000000001      48.532500000000006
   177   1      12.582500000000005      59.317500000000003      46.735000000000014
   178   1      10.785000000000005       57.52000000000001      50.330000000000013
   179   1      10.785000000000005      59.317500000000003      52.127500000000005
   180   1      12.582500000000005       57.52000000000001      52.127500000000005
   181   1      12.582500000000005      59.317500000000003      50.330000000000013
   182   1      10.785000000000005       57.52000000000001      53.925000000000011
   183   1      10.785000000000005      59.317500000000003      55.722500000000011
   184   1      12.582500000000005       57.52000000000001      55.722500000000011
   185   1      12.582500000000005      59.317500000000003      53.925000000000011
   186   1      10.785000000000005       57.52000000000001       57.52000000000001
   187   1      10.785000000000005      59.317500000000003      59.317500000000003
   188   1      12.582500000000005       57.52000000000001      59.317500000000003
   189   1      12.582500000000005      59.317500000000003       57.52000000000001
   190   1      10.785000000000005       57.52000000000001      61.115000000000016
   191   1      10.785000000000005      59.317500000000003      62.912500000000009
   192   1      12.582500000000005       57.52000000000001      62.912500000000009
   193   1      12.582500000000005      59.317500000000003      61.115000000000016
   194   1      10.785000000000005       57.52000000000001      64.710000000000022
   195   1      10.785000000000005      59.317500000000003      66.507500000000022
   196   1      12.582500000000005       57.52000000000001      66.507500000000022
   197   1      12.582500000000005      59.317500000000003      64.710000000000022
   198   1      10.785000000000005       57.52000000000001      68.305000000000007
   199   1      12.582500000000005       57.52000000000001      70.102500000000006
   200   1      12.582500000000005      59.317500000000003      68.305000000000007
   201   1      10.785000000000005      62.912500000000009      48.532500000000006
   202   1      12.582500000000005      61.115000000000016      48.532500000000006
   203   1      12.582500000000005      62.912500000000009      46.735000000000014
   204   1      10.785000000000005      61.115000000000016      50.330000000000013
   205   1      10.785000000000005      62.912500000000009      52.127500000000005
   206   1      12.582500000000005      61.115000000000016      52.127500000000005
   207   1      12.582500000000005      62.912500000000009      50.330000000000013
   208   1      10.785000000000005      61.115000000000016      53.925000000000011
   209   1      10.785000000000005      62.912500000000009      55.722500000000011
   210   1      12.582500000000005      61.115000000000016      55.722500000000011
   211   1      12.582500000000005      62.912500000000009      53.925000000000011
   212   1      10.785000000000005      61.115000000000016       57.52000000000001
   213   1      10.785000000000005      62.912500000000009      59.317500000000003
   214   1      12.582500000000005      61.115000000000016      59.317500000000003
   215   1      12.582500000000005      62.912500000000009       57.52000000000001
   216   1      10.785000000000005      61.115000000000016      61.115000000000016
   217   1      10.785000000000005      62.912500000000009      62.912500000000009
   218   1      12.582500000000005      61.115000000000016      62.912500000000009
   219   1      12.582500000000005      62.912500000000009      61.115000000000016
   220   1      10.785000000000005      61.115000000000016      64.710000000000022
   221   1      10.785000000000005      62.912500000000009      66.507500000000022
   222   1      12.582500000000005      61.115000000000016      66.507500000000022
   223   1      12.582500000000005      62.912500000000009      64.710000000000022
   224   1      12.582500000000005      62.912500000000009      68.305000000000007
   225   1      10.785000000000005      66.507500000000022      48.532500000000006
   226   1      12.582500000000005      64.710000000000022      48.532500000000006
   227   1      12.582500000000005      66.507500000000022      46.735000000000014
   228   1      10.785000000000005      64.710000000000022      50.330000000000013
   229   1      10.785000000000005      66.507500000000022      52.127500000000005
   230   1      12.582500000000005      64.710000000000022      52.127500000000005
   231   1      12.582500000000005      66.507500000000022      50.330000000000013
   232   1      10.785000000000005      64.710000000000022      53.925000000000011
   233   1      10.785000000000005      66.507500000000022      55.722500000000011
   234   1      12.582500000000005      64.710000000000022      55.722500000000011
   235   1      12.582500000000005      66.507500000000022      53.925000000000011
   236   1      10.785000000000005      64.710000000000022       57.52000000000001
   237   1      10.785000000000005      66.507500000000022      59.317500000000003
   238   1      12.582500000000005      64.710000000000022      59.317500000000003
   239   1      12.582500000000005      66.507500000000022       57.52000000000001
   240   1      10.785000000000005      64.710000000000022      61.115000000000016
   241   1      10.785000000000005      66.507500000000022      62.912500000000009
   242   1      12.582500000000005      64.710000000000022      62.912500000000009
   243   1      12.582500000000005      66.507500000000022      61.115000000000016
   244   1      10.785000000000005      64.710000000000022      64.710000000000022
   245   1      10.785000000000005      66.507500000000022      66.507500000000022
   246   1      12.582500000000005      64.710000000000022      66.507500000000022
   247   1      12.582500000000005      66.507500000000022      64.710000000000022
   248   1      12.582500000000005      66.507500000000022      68.305000000000007
   249   1      12.582500000000005      68.305000000000007      48.532500000000006
   250   1      12.582500000000005      68.305000000000007      52.127500000000005
   251   1      12.582500000000005      68.305000000000007      55.722500000000011
   252   1      10.785000000000005      68.305000000000007       57.52000000000001
   253   1      12.582500000000005      68.305000000000007      59.317500000000003
   254   1      12.582500000000005      70.102500000000006       57.52000000000001
   255   1      12.582500000000005      68.305000000000007      62.912500000000009
   256   1      12.582500000000005      68.305000000000007      66.507500000000022
   257   1      16.177500000000006      41.342500000000001       57.52000000000001
   258   1      14.380000000000004                 44.9375      48.532500000000006
   259   1      16.177500000000006      43.140000000000008      48.532500000000006
   260   1      16.177500000000006                 44.9375      46.735000000000014
   261   1      14.380000000000004                 44.9375      52.127500000000005
   262   1      16.177500000000006      43.140000000000008      52.127500000000005
   263   1      16.177500000000006                 44.9375      50.330000000000013
   264   1      14.380000000000004                 44.9375      55.722500000000011
   265   1      16.177500000000006      43.140000000000008      55.722500000000011
   266   1      16.177500000000006                 44.9375      53.925000000000011
   267   1      14.380000000000004      43.140000000000008       57.52000000000001
   268   1      14.380000000000004                 44.9375      59.317500000000003
   269   1      16.177500000000006      43.140000000000008      59.317500000000003
   270   1      16.177500000000006                 44.9375       57.52000000000001
   271   1      14.380000000000004                 44.9375      62.912500000000009
   272   1      16.177500000000006      43.140000000000008      62.912500000000009
   273   1      16.177500000000006                 44.9375      61.115000000000016
   274   1      14.380000000000004                 44.9375      66.507500000000022
   275   1      16.177500000000006      43.140000000000008      66.507500000000022
   276   1      16.177500000000006                 44.9375      64.710000000000022
   277   1      16.177500000000006                 44.9375      68.305000000000007
   278   1      14.380000000000004      48.532500000000006                 44.9375
   279   1      16.177500000000006      46.735000000000014                 44.9375
   280   1      16.177500000000006      48.532500000000006      43.140000000000008
   281   1      14.380000000000004      46.735000000000014      46.735000000000014
   282   1      14.380000000000004      48.532500000000006      48.532500000000006
   283   1      16.177500000000006      46.735000000000014      48.532500000000006
   284   1      16.177500000000006      48.532500000000006      46.735000000000014
   285   1      14.380000000000004      46.735000000000014      50.330000000000013
   286   1      14.380000000000004      48.532500000000006      52.127500000000005
   287   1      16.177500000000006      46.735000000000014      52.127500000000005
   288   1      16.177500000000006      48.532500000000006      50.330000000000013
   289   1      14.380000000000004      46.735000000000014      53.925000000000011
   290   1      14.380000000000004      48.532500000000006      55.722500000000011
   291   1      16.177500000000006      46.735000000000014      55.722500000000011
   292   1      16.177500000000006      48.532500000000006      53.925000000000011
   293   1      14.380000000000004      46.735000000000014       57.52000000000001
   294   1      14.380000000000004      48.532500000000006      59.317500000000003
   295   1      16.177500000000006      46.735000000000014      59.317500000000003
   296   1      16.177500000000006      48.532500000000006       57.52000000000001
   297   1      14.380000000000004      46.735000000000014      61.115000000000016
   298   1      14.380000000000004      48.532500000000006      62.912500000000009
   299   1      16.177500000000006      46.735000000000014      62.912500000000009
   300   1      16.177500000000006      48.532500000000006      61.115000000000016
   301   1      14.380000000000004      46.735000000000014      64.710000000000022
   302   1      14.380000000000004      48.532500000000006      66.507500000000022
   303   1      16.177500000000006      46.735000000000014      66.507500000000022
   304   1      16.177500000000006      48.532500000000006      64.710000000000022
   305   1      14.380000000000004      46.735000000000014      68.305000000000007
   306   1      14.380000000000004      48.532500000000006      70.102500000000006
   307   1      16.177500000000006      46.735000000000014      70.102500000000006
   308   1      16.177500000000006      48.532500000000006      68.305000000000007
   309   1      16.177500000000006      48.532500000000006       71.90000000000002
   310   1      14.380000000000004      52.127500000000005                 44.9375
   311   1      16.177500000000006      50.330000000000013                 44.9375
   312   1      16.177500000000006      52.127500000000005      43.140000000000008
   313   1      14.380000000000004      50.330000000000013      46.735000000000014
   314   1      14.380000000000004      52.127500000000005      48.532500000000006
   315   1      16.177500000000006      50.330000000000013      48.532500000000006
   316   1      16.177500000000006      52.127500000000005      46.735000000000014
   317   1      14.380000000000004      50.330000000000013      50.330000000000013
   318   1      14.380000000000004      52.127500000000005      52.127500000000005
   319   1      16.177500000000006      50.330000000000013      52.127500000000005
   320   1      16.177500000000006      52.127500000000005      50.330000000000013
   321   1      14.380000000000004      50.330000000000013      53.925000000000011
   322   1      14.380000000000004      52.127500000000005      55.722500000000011
   323   1      16.177500000000006      50.330000000000013      55.722500000000011
   324   1      16.177500000000006      52.127500000000005      53.925000000000011
   325   1      14.380000000000004      50.330000000000013       57.52000000000001
   326   1      14.380000000000004      52.127500000000005      59.317500000000003
   327   1      16.177500000000006      50.330000000000013      59.317500000000003
   328   1      16.177500000000006      52.127500000000005       57.52000000000001
   329   1      14.380000000000004      50.330000000000013      61.115000000000016
   330   1      14.380000000000004      52.127500000000005      62.912500000000009
   331   1      16.177500000000006      50.330000000000013      62.912500000000009
   332   1      16.177500000000006      52.127500000000005      61.115000000000016
   333   1      14.380000000000004      50.330000000000013      64.710000000000022
   334   1      14.380000000000004      52.127500000000005      66.507500000000022
   335   1      16.177500000000006      50.330000000000013      66.507500000000022
   336   1      16.177500000000006      52.127500000000005      64.710000000000022
   337   1      14.380000000000004      50.330000000000013      68.305000000000007
   338   1      14.380000000000004      52.127500000000005      70.102500000000006
   339   1      16.177500000000006      50.330000000000013      70.102500000000006
   340   1      16.177500000000006      52.127500000000005      68.305000000000007
   341   1      16.177500000000006      52.127500000000005       71.90000000000002
   342   1      14.380000000000004      55.722500000000011                 44.9375
   343   1      16.177500000000006      53.925000000000011                 44.9375
   344   1      16.177500000000006      55.722500000000011      43.140000000000008
   345   1      14.380000000000004      53.925000000000011      46.735000000000014
   346   1      14.380000000000004      55.722500000000011      48.532500000000006
   347   1      16.177500000000006      53.925000000000011      48.532500000000006
   348   1      16.177500000000006      55.722500000000011      46.735000000000014
   349   1      14.380000000000004      53.925000000000011      50.330000000000013
   350   1      14.380000000000004      55.722500000000011      52.127500000000005
   351   1      16.177500000000006      53.925000000000011      52.127500000000005
   352   1      16.177500000000006      55.722500000000011      50.330000000000013
   353   1      14.380000000000004      53.925000000000011      53.925000000000011
   354   1      14.380000000000004      55.722500000000011      55.722500000000011
   355   1      16.177500000000006      53.925000000000011      55.722500000000011
   356   1      16.177500000000006      55.722500000000011      53.925000000000011
   357   1      14.380000000000004      53.925000000000011       57.52000000000001
   358   1      14.380000000000004      55.722500000000011      59.317500000000003