LAMMPS data file via write_data, version 30 Nov 2020, timestep = 0

29957 atoms
5 atom types

0 86 xlo xhi
0 86 ylo yhi
0 86 zlo zhi

Masses

1 58.7
2 55.8
3 52
4 59
5 26

Atoms # atomic

2 2 1.8049999999999995 39.71 41.515 0 0 0
3 3 1.8049999999999995 41.515 39.71 0 0 0
19 1 5.414999999999999 25.270000000000003 41.515 0 0 0
20 2 5.414999999999999 27.075 39.71 0 0 0
24 4 5.414999999999999 28.880000000000003 37.905 0 0 0
25 4 5.414999999999999 30.685 36.1 0 0 0
26 4 3.609999999999999 30.685 41.515 0 0 0
27 5 5.414999999999999 28.880000000000003 41.515 0 0 0
28 4 5.414999999999999 30.685 39.71 0 0 0
36 4 5.414999999999999 32.49 34.295 0 0 0
37 4 5.414999999999999 34.295 32.49 0 0 0
38 1 3.609999999999999 34.295 37.905 0 0 0
39 5 5.414999999999999 32.49 37.905 0 0 0
40 4 5.414999999999999 34.295 36.1 0 0 0
41 3 3.609999999999999 32.49 39.71 0 0 0
42 4 3.609999999999999 34.295 41.515 0 0 0
43 5 5.414999999999999 32.49 41.515 0 0 0
44 3 5.414999999999999 34.295 39.71 0 0 0
56 2 5.414999999999999 36.1 30.685 0 0 0
57 1 5.414999999999999 37.905 28.880000000000003 0 0 0
58 5 3.609999999999999 37.905 34.295 0 0 0
59 3 5.414999999999999 36.1 34.295 0 0 0
60 3 5.414999999999999 37.905 32.49 0 0 0
61 5 3.609999999999999 36.1 36.1 0 0 0
62 3 3.609999999999999 37.905 37.905 0 0 0
63 1 5.414999999999999 36.1 37.905 0 0 0
64 4 5.414999999999999 37.905 36.1 0 0 0
65 4 3.609999999999999 36.1 39.71 0 0 0
66 1 3.609999999999999 37.905 41.515 0 0 0
67 4 5.414999999999999 36.1 41.515 0 0 0
68 3 5.414999999999999 37.905 39.71 0 0 0
84 2 5.414999999999999 39.71 27.075 0 0 0
85 2 5.414999999999999 41.515 25.270000000000003 0 0 0
86 2 3.609999999999999 41.515 30.685 0 0 0
87 1 5.414999999999999 39.71 30.685 0 0 0
88 4 5.414999999999999 41.515 28.880000000000003 0 0 0
89 3 3.609999999999999 39.71 32.49 0 0 0
90 2 3.609999999999999 41.515 34.295 0 0 0
91 4 5.414999999999999 39.71 34.295 0 0 0
92 5 5.414999999999999 41.515 32.49 0 0 0
93 3 3.609999999999999 39.71 36.1 0 0 0
94 2 3.609999999999999 41.515 37.905 0 0 0
95 5 5.414999999999999 39.71 37.905 0 0 0
96 3 5.414999999999999 41.515 36.1 0 0 0
97 4 3.609999999999999 39.71 39.71 0 0 0
98 3 3.609999999999999 41.515 41.515 0 0 0
99 4 5.414999999999999 39.71 41.515 0 0 0
100 1 5.414999999999999 41.515 39.71 0 0 0
244 5 9.024999999999999 10.829999999999998 41.515 0 0 0
245 5 9.024999999999999 12.635000000000002 39.71 0 0 0
249 3 9.024999999999999 14.440000000000001 37.905 0 0 0
250 4 9.024999999999999 16.245 36.1 0 0 0
251 5 7.219999999999998 16.245 41.515 0 0 0
252 4 9.024999999999999 14.440000000000001 41.515 0 0 0
253 5 9.024999999999999 16.245 39.71 0 0 0
261 3 9.024999999999999 18.05 34.295 0 0 0
262 2 9.024999999999999 19.855 32.49 0 0 0
263 4 7.219999999999998 19.855 37.905 0 0 0
264 4 9.024999999999999 18.05 37.905 0 0 0
265 5 9.024999999999999 19.855 36.1 0 0 0
266 5 7.219999999999998 18.05 39.71 0 0 0
267 2 7.219999999999998 19.855 41.515 0 0 0
268 2 9.024999999999999 18.05 41.515 0 0 0
269 1 9.024999999999999 19.855 39.71 0 0 0
281 3 9.024999999999999 21.66 30.685 0 0 0
282 1 9.024999999999999 23.465 28.880000000000003 0 0 0
283 2 7.219999999999998 23.465 34.295 0 0 0
284 5 9.024999999999999 21.66 34.295 0 0 0
285 3 9.024999999999999 23.465 32.49 0 0 0
286 5 7.219999999999998 21.66 36.1 0 0 0
287 2 7.219999999999998 23.465 37.905 0 0 0
288 5 9.024999999999999 21.66 37.905 0 0 0
289 3 9.024999999999999 23.465 36.1 0 0 0
290 3 7.219999999999998 21.66 39.71 0 0 0
291 2 7.219999999999998 23.465 41.515 0 0 0
292 4 9.024999999999999 21.66 41.515 0 0 0
293 2 9.024999999999999 23.465 39.71 0 0 0
309 5 9.024999999999999 25.270000000000003 27.075 0 0 0
310 3 9.024999999999999 27.075 25.270000000000003 0 0 0
311 4 7.219999999999998 27.075 30.685 0 0 0
312 2 9.024999999999999 25.270000000000003 30.685 0 0 0
313 3 9.024999999999999 27.075 28.880000000000003 0 0 0
314 1 7.219999999999998 25.270000000000003 32.49 0 0 0
315 1 7.219999999999998 27.075 34.295 0 0 0
316 4 9.024999999999999 25.270000000000003 34.295 0 0 0
317 5 9.024999999999999 27.075 32.49 0 0 0
318 5 7.219999999999998 25.270000000000003 36.1 0 0 0
319 1 7.219999999999998 27.075 37.905 0 0 0
320 1 9.024999999999999 25.270000000000003 37.905 0 0 0
321 3 9.024999999999999 27.075 36.1 0 0 0
322 2 7.219999999999998 25.270000000000003 39.71 0 0 0
323 1 7.219999999999998 27.075 41.515 0 0 0
324 3 9.024999999999999 25.270000000000003 41.515 0 0 0
325 1 9.024999999999999 27.075 39.71 0 0 0
345 1 9.024999999999999 28.880000000000003 23.465 0 0 0
346 5 9.024999999999999 30.685 21.66 0 0 0
347 2 7.219999999999998 30.685 27.075 0 0 0
348 4 9.024999999999999 28.880000000000003 27.075 0 0 0
349 1 9.024999999999999 30.685 25.270000000000003 0 0 0
350 2 7.219999999999998 28.880000000000003 28.880000000000003 0 0 0
351 1 7.219999999999998 30.685 30.685 0 0 0
352 4 9.024999999999999 28.880000000000003 30.685 0 0 0
353 5 9.024999999999999 30.685 28.880000000000003 0 0 0
354 5 7.219999999999998 28.880000000000003 32.49 0 0 0
355 2 7.219999999999998 30.685 34.295 0 0 0
356 4 9.024999999999999 28.880000000000003 34.295 0 0 0
357 1 9.024999999999999 30.685 32.49 0 0 0
358 2 7.219999999999998 28.880000000000003 36.1 0 0 0
359 1 7.219999999999998 30.685 37.905 0 0 0
360 5 9.024999999999999 28.880000000000003 37.905 0 0 0
361 5 9.024999999999999 30.685 36.1 0 0 0
362 3 7.219999999999998 28.880000000000003 39.71 0 0 0
363 4 7.219999999999998 30.685 41.515 0 0 0
364 1 9.024999999999999 28.880000000000003 41.515 0 0 0
365 3 9.024999999999999 30.685 39.71 0 0 0
389 2 9.024999999999999 32.49 19.855 0 0 0
390 4 9.024999999999999 34.295 18.05 0 0 0
391 1 7.219999999999998 34.295 23.465 0 0 0
392 5 9.024999999999999 32.49 23.465 0 0 0
393 3 9.024999999999999 34.295 21.66 0 0 0
394 1 7.219999999999998 32.49 25.270000000000003 0 0 0
395 4 7.219999999999998 34.295 27.075 0 0 0
396 2 9.024999999999999 32.49 27.075 0 0 0
397 5 9.024999999999999 34.295 25.270000000000003 0 0 0
398 3 7.219999999999998 32.49 28.880000000000003 0 0 0
399 4 7.219999999999998 34.295 30.685 0 0 0
400 4 9.024999999999999 32.49 30.685 0 0 0
401 4 9.024999999999999 34.295 28.880000000000003 0 0 0
402 5 7.219999999999998 32.49 32.49 0 0 0
403 5 7.219999999999998 34.295 34.295 0 0 0
404 2 9.024999999999999 32.49 34.295 0 0 0
405 1 9.024999999999999 34.295 32.49 0 0 0
406 5 7.219999999999998 32.49 36.1 0 0 0
407 4 7.219999999999998 34.295 37.905 0 0 0
408 5 9.024999999999999 32.49 37.905 0 0 0
409 5 9.024999999999999 34.295 36.1 0 0 0
410 2 7.219999999999998 32.49 39.71 0 0 0
411 4 7.219999999999998 34.295 41.515 0 0 0
412 4 9.024999999999999 32.49 41.515 0 0 0
413 4 9.024999999999999 34.295 39.71 0 0 0
441 3 9.024999999999999 36.1 16.245 0 0 0
442 1 9.024999999999999 37.905 14.440000000000001 0 0 0
443 4 7.219999999999998 37.905 19.855 0 0 0
444 1 9.024999999999999 36.1 19.855 0 0 0
445 4 9.024999999999999 37.905 18.05 0 0 0
446 1 7.219999999999998 36.1 21.66 0 0 0
447 1 7.219999999999998 37.905 23.465 0 0 0
448 3 9.024999999999999 36.1 23.465 0 0 0
449 3 9.024999999999999 37.905 21.66 0 0 0
450 2 7.219999999999998 36.1 25.270000000000003 0 0 0
451 2 7.219999999999998 37.905 27.075 0 0 0
452 1 9.024999999999999 36.1 27.075 0 0 0
453 3 9.024999999999999 37.905 25.270000000000003 0 0 0
454 5 7.219999999999998 36.1 28.880000000000003 0 0 0
455 3 7.219999999999998 37.905 30.685 0 0 0
456 3 9.024999999999999 36.1 30.685 0 0 0
457 5 9.024999999999999 37.905 28.880000000000003 0 0 0
458 5 7.219999999999998 36.1 32.49 0 0 0
459 2 7.219999999999998 37.905 34.295 0 0 0
460 2 9.024999999999999 36.1 34.295 0 0 0
461 3 9.024999999999999 37.905 32.49 0 0 0
462 5 7.219999999999998 36.1 36.1 0 0 0
463 4 7.219999999999998 37.905 37.905 0 0 0
464 3 9.024999999999999 36.1 37.905 0 0 0
465 2 9.024999999999999 37.905 36.1 0 0 0
466 3 7.219999999999998 36.1 39.71 0 0 0
467 1 7.219999999999998 37.905 41.515 0 0 0
468 3 9.024999999999999 36.1 41.515 0 0 0
469 2 9.024999999999999 37.905 39.71 0 0 0
501 2 9.024999999999999 39.71 12.635000000000002 0 0 0
502 2 9.024999999999999 41.515 10.829999999999998 0 0 0
503 4 7.219999999999998 41.515 16.245 0 0 0
504 1 9.024999999999999 39.71 16.245 0 0 0
505 5 9.024999999999999 41.515 14.440000000000001 0 0 0
506 4 7.219999999999998 39.71 18.05 0 0 0
507 3 7.219999999999998 41.515 19.855 0 0 0
508 1 9.024999999999999 39.71 19.855 0 0 0
509 2 9.024999999999999 41.515 18.05 0 0 0
510 1 7.219999999999998 39.71 21.66 0 0 0
511 5 7.219999999999998 41.515 23.465 0 0 0
512 5 9.024999999999999 39.71 23.465 0 0 0
513 4 9.024999999999999 41.515 21.66 0 0 0
514 1 7.219999999999998 39.71 25.270000000000003 0 0 0
515 4 7.219999999999998 41.515 27.075 0 0 0
516 3 9.024999999999999 39.71 27.075 0 0 0
517 1 9.024999999999999 41.515 25.270000000000003 0 0 0
518 4 7.219999999999998 39.71 28.880000000000003 0 0 0
519 4 7.219999999999998 41.515 30.685 0 0 0
520 3 9.024999999999999 39.71 30.685 0 0 0
521 1 9.024999999999999 41.515 28.880000000000003 0 0 0
522 3 7.219999999999998 39.71 32.49 0 0 0
523 4 7.219999999999998 41.515 34.295 0 0 0
524 5 9.024999999999999 39.71 34.295 0 0 0
525 5 9.024999999999999 41.515 32.49 0 0 0
526 1 7.219999999999998 39.71 36.1 0 0 0
527 4 7.219999999999998 41.515 37.905 0 0 0
528 1 9.024999999999999 39.71 37.905 0 0 0
529 1 9.024999999999999 41.515 36.1 0 0 0
530 4 7.219999999999998 39.71 39.71 0 0 0
531 5 7.219999999999998 41.515 41.515 0 0 0
532 2 9.024999999999999 39.71 41.515 0 0 0
533 2 9.024999999999999 41.515 39.71 0 0 0
932 3 10.829999999999998 9.024999999999999 41.515 0 0 0
933 5 12.635000000000002 9.024999999999999 39.71 0 0 0
937 3 12.635000000000002 12.635000000000002 25.270000000000003 0 0 0
938 3 10.829999999999998 12.635000000000002 30.685 0 0 0
939 5 12.635000000000002 10.829999999999998 30.685 0 0 0
940 5 12.635000000000002 12.635000000000002 28.880000000000003 0 0 0
941 1 10.829999999999998 10.829999999999998 32.49 0 0 0
942 4 10.829999999999998 12.635000000000002 34.295 0 0 0
943 3 12.635000000000002 10.829999999999998 34.295 0 0 0
944 4 12.635000000000002 12.635000000000002 32.49 0 0 0
945 2 10.829999999999998 10.829999999999998 36.1 0 0 0
946 3 10.829999999999998 12.635000000000002 37.905 0 0 0
947 4 12.635000000000002 10.829999999999998 37.905 0 0 0
948 5 12.635000000000002 12.635000000000002 36.1 0 0 0
949 2 10.829999999999998 10.829999999999998 39.71 0 0 0
950 1 10.829999999999998 12.635000000000002 41.515 0 0 0
951 1 12.635000000000002 10.829999999999998 41.515 0 0 0
952 4 12.635000000000002 12.635000000000002 39.71 0 0 0
971 1 12.635000000000002 14.440000000000001 23.465 0 0 0
972 3 12.635000000000002 16.245 21.66 0 0 0
973 3 10.829999999999998 16.245 27.075 0 0 0
974 4 12.635000000000002 14.440000000000001 27.075 0 0 0
975 4 12.635000000000002 16.245 25.270000000000003 0 0 0
976 5 10.829999999999998 14.440000000000001 28.880000000000003 0 0 0
977 3 10.829999999999998 16.245 30.685 0 0 0
978 1 12.635000000000002 14.440000000000001 30.685 0 0 0
979 4 12.635000000000002 16.245 28.880000000000003 0 0 0
980 1 10.829999999999998 14.440000000000001 32.49 0 0 0
981 5 10.829999999999998 16.245 34.295 0 0 0
982 1 12.635000000000002 14.440000000000001 34.295 0 0 0
983 2 12.635000000000002 16.245 32.49 0 0 0
984 1 10.829999999999998 14.440000000000001 36.1 0 0 0
985 3 10.829999999999998 16.245 37.905 0 0 0
986 5 12.635000000000002 14.440000000000001 37.905 0 0 0
987 1 12.635000000000002 16.245 36.1 0 0 0
988 5 10.829999999999998 14.440000000000001 39.71 0 0 0
989 3 10.829999999999998 16.245 41.515 0 0 0
990 1 12.635000000000002 14.440000000000001 41.515 0 0 0
991 5 12.635000000000002 16.245 39.71 0 0 0
1015 3 12.635000000000002 18.05 19.855 0 0 0
1016 1 12.635000000000002 19.855 18.05 0 0 0
1017 4 10.829999999999998 19.855 23.465 0 0 0
1018 5 12.635000000000002 18.05 23.465 0 0 0
1019 2 12.635000000000002 19.855 21.66 0 0 0
1020 4 10.829999999999998 18.05 25.270000000000003 0 0 0
1021 3 10.829999999999998 19.855 27.075 0 0 0
1022 5 12.635000000000002 18.05 27.075 0 0 0
1023 5 12.635000000000002 19.855 25.270000000000003 0 0 0
1024 2 10.829999999999998 18.05 28.880000000000003 0 0 0
1025 4 10.829999999999998 19.855 30.685 0 0 0
1026 1 12.635000000000002 18.05 30.685 0 0 0
1027 1 12.635000000000002 19.855 28.880000000000003 0 0 0
1028 3 10.829999999999998 18.05 32.49 0 0 0
1029 2 10.829999999999998 19.855 34.295 0 0 0
1030 1 12.635000000000002 18.05 34.295 0 0 0
1031 2 12.635000000000002 19.855 32.49 0 0 0
1032 2 10.829999999999998 18.05 36.1 0 0 0
1033 4 10.829999999999998 19.855 37.905 0 0 0
1034 5 12.635000000000002 18.05 37.905 0 0 0
1035 2 12.635000000000002 19.855 36.1 0 0 0
1036 3 10.829999999999998 18.05 39.71 0 0 0
1037 3 10.829999999999998 19.855 41.515 0 0 0
1038 4 12.635000000000002 18.05 41.515 0 0 0
1039 2 12.635000000000002 19.855 39.71 0 0 0
1067 4 12.635000000000002 21.66 16.245 0 0 0
1068 1 12.635000000000002 23.465 14.440000000000001 0 0 0
1069 4 10.829999999999998 23.465 19.855 0 0 0
1070 5 12.635000000000002 21.66 19.855 0 0 0
1071 1 12.635000000000002 23.465 18.05 0 0 0
1072 5 10.829999999999998 21.66 21.66 0 0 0
1073 2 10.829999999999998 23.465 23.465 0 0 0
1074 5 12.635000000000002 21.66 23.465 0 0 0
1075 5 12.635000000000002 23.465 21.66 0 0 0
1076 4 10.829999999999998 21.66 25.270000000000003 0 0 0
1077 5 10.829999999999998 23.465 27.075 0 0 0
1078 1 12.635000000000002 21.66 27.075 0 0 0
1079 1 12.635000000000002 23.465 25.270000000000003 0 0 0
1080 2 10.829999999999998 21.66 28.880000000000003 0 0 0
1081 5 10.829999999999998 23.465 30.685 0 0 0
1082 5 12.635000000000002 21.66 30.685 0 0 0
1083 1 12.635000000000002 23.465 28.880000000000003 0 0 0
1084 5 10.829999999999998 21.66 32.49 0 0 0
1085 2 10.829999999999998 23.465 34.295 0 0 0
1086 5 12.635000000000002 21.66 34.295 0 0 0
1087 3 12.635000000000002 23.465 32.49 0 0 0
1088 2 10.829999999999998 21.66 36.1 0 0 0
1089 3 10.829999999999998 23.465 37.905 0 0 0
1090 5 12.635000000000002 21.66 37.905 0 0 0
1091 1 12.635000000000002 23.465 36.1 0 0 0
1092 3 10.829999999999998 21.66 39.71 0 0 0
1093 3 10.829999999999998 23.465 41.515 0 0 0
1094 2 12.635000000000002 21.66 41.515 0 0 0
1095 5 12.635000000000002 23.465 39.71 0 0 0
1127 3 12.635000000000002 25.270000000000003 12.635000000000002 0 0 0
1128 5 10.829999999999998 27.075 16.245 0 0 0
1129 1 12.635000000000002 25.270000000000003 16.245 0 0 0
1130 5 12.635000000000002 27.075 14.440000000000001 0 0 0
1131 5 10.829999999999998 25.270000000000003 18.05 0 0 0
1132 2 10.829999999999998 27.075 19.855 0 0 0
1133 2 12.635000000000002 25.270000000000003 19.855 0 0 0
1134 3 12.635000000000002 27.075 18.05 0 0 0
1135 5 10.829999999999998 25.270000000000003 21.66 0 0 0
1136 2 10.829999999999998 27.075 23.465 0 0 0
1137 3 12.635000000000002 25.270000000000003 23.465 0 0 0
1138 5 12.635000000000002 27.075 21.66 0 0 0
1139 4 10.829999999999998 25.270000000000003 25.270000000000003 0 0 0
1140 5 10.829999999999998 27.075 27.075 0 0 0
1141 2 12.635000000000002 25.270000000000003 27.075 0 0 0
1142 4 12.635000000000002 27.075 25.270000000000003 0 0 0
1143 4 10.829999999999998 25.270000000000003 28.880000000000003 0 0 0
1144 4 10.829999999999998 27.075 30.685 0 0 0
1145 5 12.635000000000002 25.270000000000003 30.685 0 0 0
1146 1 12.635000000000002 27.075 28.880000000000003 0 0 0
1147 4 10.829999999999998 25.270000000000003 32.49 0 0 0
1148 2 10.829999999999998 27.075 34.295 0 0 0
1149 2 12.635000000000002 25.270000000000003 34.295 0 0 0
1150 2 12.635000000000002 27.075 32.49 0 0 0
1151 5 10.829999999999998 25.270000000000003 36.1 0 0 0
1152 2 10.829999999999998 27.075 37.905 0 0 0
1153 5 12.635000000000002 25.270000000000003 37.905 0 0 0
1154 2 12.635000000000002 27.075 36.1 0 0 0
1155 2 10.829999999999998 25.270000000000003 39.71 0 0 0
1156 3 10.829999999999998 27.075 41.515 0 0 0
1157 4 12.635000000000002 25.270000000000003 41.515 0 0 0
1158 2 12.635000000000002 27.075 39.71 0 0 0
1193 2 10.829999999999998 30.685 12.635000000000002 0 0 0
1194 2 12.635000000000002 28.880000000000003 12.635000000000002 0 0 0
1195 2 12.635000000000002 30.685 10.829999999999998 0 0 0
1196 2 10.829999999999998 28.880000000000003 14.440000000000001 0 0 0
1197 1 10.829999999999998 30.685 16.245 0 0 0
1198 2 12.635000000000002 28.880000000000003 16.245 0 0 0
1199 1 12.635000000000002 30.685 14.440000000000001 0 0 0
1200 5 10.829999999999998 28.880000000000003 18.05 0 0 0
1201 4 10.829999999999998 30.685 19.855 0 0 0
1202 3 12.635000000000002 28.880000000000003 19.855 0 0 0
1203 5 12.635000000000002 30.685 18.05 0 0 0
1204 4 10.829999999999998 28.880000000000003 21.66 0 0 0
1205 5 10.829999999999998 30.685 23.465 0 0 0
1206 5 12.635000000000002 28.880000000000003 23.465 0 0 0
1207 5 12.635000000000002 30.685 21.66 0 0 0
1208 2 10.829999999999998 28.880000000000003 25.270000000000003 0 0 0
1209 1 10.829999999999998 30.685 27.075 0 0 0
1210 1 12.635000000000002 28.880000000000003 27.075 0 0 0
1211 3 12.635000000000002 30.685 25.270000000000003 0 0 0
1212 3 10.829999999999998 28.880000000000003 28.880000000000003 0 0 0
1213 4 10.829999999999998 30.685 30.685 0 0 0
1214 1 12.635000000000002 28.880000000000003 30.685 0 0 0
1215 3 12.635000000000002 30.685 28.880000000000003 0 0 0
1216 4 10.829999999999998 28.880000000000003 32.49 0 0 0
1217 5 10.829999999999998 30.685 34.295 0 0 0
1218 3 12.635000000000002 28.880000000000003 34.295 0 0 0
1219 4 12.635000000000002 30.685 32.49 0 0 0
1220 1 10.829999999999998 28.880000000000003 36.1 0 0 0
1221 1 10.829999999999998 30.685 37.905 0 0 0
1222 3 12.635000000000002 28.880000000000003 37.905 0 0 0
1223 3 12.635000000000002 30.685 36.1 0 0 0
1224 3 10.829999999999998 28.880000000000003 39.71 0 0 0
1225 1 10.829999999999998 30.685 41.515 0 0 0
1226 5 12.635000000000002 28.880000000000003 41.515 0 0 0
1227 1 12.635000000000002 30.685 39.71 0 0 0
1265 5 10.829999999999998 32.49 10.829999999999998 0 0 0
1266 2 10.829999999999998 34.295 12.635000000000002 0 0 0
1267 1 12.635000000000002 32.49 12.635000000000002 0 0 0
1268 2 12.635000000000002 34.295 10.829999999999998 0 0 0
1269 1 10.829999999999998 32.49 14.440000000000001 0 0 0
1270 3 10.829999999999998 34.295 16.245 0 0 0
1271 2 12.635000000000002 32.49 16.245 0 0 0
1272 5 12.635000000000002 34.295 14.440000000000001 0 0 0
1273 3 10.829999999999998 32.49 18.05 0 0 0
1274 2 10.829999999999998 34.295 19.855 0 0 0
1275 1 12.635000000000002 32.49 19.855 0 0 0
1276 2 12.635000000000002 34.295 18.05 0 0 0
1277 4 10.829999999999998 32.49 21.66 0 0 0
1278 2 10.829999999999998 34.295 23.465 0 0 0
1279 2 12.635000000000002 32.49 23.465 0 0 0
1280 2 12.635000000000002 34.295 21.66 0 0 0
1281 5 10.829999999999998 32.49 25.270000000000003 0 0 0
1282 5 10.829999999999998 34.295 27.075 0 0 0
1283 5 12.635000000000002 32.49 27.075 0 0 0
1284 2 12.635000000000002 34.295 25.270000000000003 0 0 0
1285 5 10.829999999999998 32.49 28.880000000000003 0 0 0
1286 5 10.829999999999998 34.295 30.685 0 0 0
1287 5 12.635000000000002 32.49 30.685 0 0 0
1288 4 12.635000000000002 34.295 28.880000000000003 0 0 0
1289 4 10.829999999999998 32.49 32.49 0 0 0
1290 4 10.829999999999998 34.295 34.295 0 0 0
1291 2 12.635000000000002 32.49 34.295 0 0 0
1292 3 12.635000000000002 34.295 32.49 0 0 0
1293 3 10.829999999999998 32.49 36.1 0 0 0
1294 1 10.829999999999998 34.295 37.905 0 0 0
1295 5 12.635000000000002 32.49 37.905 0 0 0
1296 2 12.635000000000002 34.295 36.1 0 0 0
1297 2 10.829999999999998 32.49 39.71 0 0 0
1298 4 10.829999999999998 34.295 41.515 0 0 0
1299 3 12.635000000000002 32.49 41.515 0 0 0
1300 3 12.635000000000002 34.295 39.71 0 0 0
1339 2 10.829999999999998 36.1 10.829999999999998 0 0 0
1340 4 10.829999999999998 37.905 12.635000000000002 0 0 0
1341 2 12.635000000000002 36.1 12.635000000000002 0 0 0
1342 3 12.635000000000002 37.905 10.829999999999998 0 0 0
1343 3 10.829999999999998 36.1 14.440000000000001 0 0 0
1344 4 10.829999999999998 37.905 16.245 0 0 0
1345 5 12.635000000000002 36.1 16.245 0 0 0
1346 3 12.635000000000002 37.905 14.440000000000001 0 0 0
1347 5 10.829999999999998 36.1 18.05 0 0 0
1348 2 10.829999999999998 37.905 19.855 0 0 0
1349 4 12.635000000000002 36.1 19.855 0 0 0
1350 5 12.635000000000002 37.905 18.05 0 0 0
1351 1 10.829999999999998 36.1 21.66 0 0 0
1352 3 10.829999999999998 37.905 23.465 0 0 0
1353 3 12.635000000000002 36.1 23.465 0 0 0
1354 1 12.635000000000002 37.905 21.66 0 0 0
1355 5 10.829999999999998 36.1 25.270000000000003 0 0 0
1356 4 10.829999999999998 37.905 27.075 0 0 0
1357 2 12.635000000000002 36.1 27.075 0 0 0
1358 3 12.635000000000002 37.905 25.270000000000003 0 0 0
1359 2 10.829999999999998 36.1 28.880000000000003 0 0 0
1360 5 10.829999999999998 37.905 30.685 0 0 0
1361 3 12.635000000000002 36.1 30.685 0 0 0
1362 3 12.635000000000002 37.905 28.880000000000003 0 0 0
1363 5 10.829999999999998 36.1 32.49 0 0 0
1364 5 10.829999999999998 37.905 34.295 0 0 0
1365 3 12.635000000000002 36.1 34.295 0 0 0
1366 4 12.635000000000002 37.905 32.49 0 0 0
1367 1 10.829999999999998 36.1 36.1 0 0 0
1368 4 10.829999999999998 37.905 37.905 0 0 0
1369 1 12.635000000000002 36.1 37.905 0 0 0
1370 5 12.635000000000002 37.905 36.1 0 0 0
1371 5 10.829999999999998 36.1 39.71 0 0 0
1372 5 10.829999999999998 37.905 41.515 0 0 0
1373 3 12.635000000000002 36.1 41.515 0 0 0
1374 2 12.635000000000002 37.905 39.71 0 0 0
1413 1 10.829999999999998 41.515 9.024999999999999 0 0 0
1414 2 12.635000000000002 39.71 9.024999999999999 0 0 0
1415 3 10.829999999999998 39.71 10.829999999999998 0 0 0
1416 4 10.829999999999998 41.515 12.635000000000002 0 0 0
1417 4 12.635000000000002 39.71 12.635000000000002 0 0 0
1418 3 12.635000000000002 41.515 10.829999999999998 0 0 0
1419 5 10.829999999999998 39.71 14.440000000000001 0 0 0
1420 2 10.829999999999998 41.515 16.245 0 0 0
1421 4 12.635000000000002 39.71 16.245 0 0 0
1422 4 12.635000000000002 41.515 14.440000000000001 0 0 0
1423 4 10.829999999999998 39.71 18.05 0 0 0
1424 2 10.829999999999998 41.515 19.855 0 0 0
1425 4 12.635000000000002 39.71 19.855 0 0 0
1426 4 12.635000000000002 41.515 18.05 0 0 0
1427 2 10.829999999999998 39.71 21.66 0 0 0
1428 3 10.829999999999998 41.515 23.465 0 0 0
1429 1 12.635000000000002 39.71 23.465 0 0 0
1430 1 12.635000000000002 41.515 21.66 0 0 0
1431 1 10.829999999999998 39.71 25.270000000000003 0 0 0
1432 4 10.829999999999998 41.515 27.075 0 0 0
1433 1 12.635000000000002 39.71 27.075 0 0 0
1434 5 12.635000000000002 41.515 25.270000000000003 0 0 0
1435 4 10.829999999999998 39.71 28.880000000000003 0 0 0
1436 3 10.829999999999998 41.515 30.685 0 0 0
1437 1 12.635000000000002 39.71 30.685 0 0 0
1438 5 12.635000000000002 41.515 28.880000000000003 0 0 0
1439 5 10.829999999999998 39.71 32.49 0 0 0
1440 3 10.829999999999998 41.515 34.295 0 0 0
1441 4 12.635000000000002 39.71 34.295 0 0 0
1442 2 12.635000000000002 41.515 32.49 0 0 0
1443 3 10.829999999999998 39.71 36.1 0 0 0
1444 2 10.829999999999998 41.515 37.905 0 0 0
1445 2 12.635000000000002 39.71 37.905 0 0 0
1446 4 12.635000000000002 41.515 36.1 0 0 0
1447 2 10.829999999999998 39.71 39.71 0 0 0
1448 5 10.829999999999998 41.515 41.515 0 0 0
1449 5 12.635000000000002 39.71 41.515 0 0 0
1450 1 12.635000000000002 41.515 39.71 0 0 0
2089 2 14.440000000000001 9.024999999999999 37.905 0 0 0
2090 3 16.245 9.024999999999999 36.1 0 0 0
2091 5 14.440000000000001 9.024999999999999 41.515 0 0 0
2092 4 16.245 7.219999999999998 41.515 0 0 0
2093 2 16.245 9.024999999999999 39.71 0 0 0
2101 1 14.440000000000001 12.635000000000002 23.465 0 0 0
2102 4 16.245 12.635000000000002 21.66 0 0 0
2103 4 14.440000000000001 12.635000000000002 27.075 0 0 0
2104 4 16.245 10.829999999999998 27.075 0 0 0
2105 3 16.245 12.635000000000002 25.270000000000003 0 0 0
2106 2 14.440000000000001 10.829999999999998 28.880000000000003 0 0 0
2107 2 14.440000000000001 12.635000000000002 30.685 0 0 0
2108 5 16.245 10.829999999999998 30.685 0 0 0
2109 4 16.245 12.635000000000002 28.880000000000003 0 0 0
2110 3 14.440000000000001 10.829999999999998 32.49 0 0 0
2111 4 14.440000000000001 12.635000000000002 34.295 0 0 0
2112 3 16.245 10.829999999999998 34.295 0 0 0
2113 5 16.245 12.635000000000002 32.49 0 0 0
2114 2 14.440000000000001 10.829999999999998 36.1 0 0 0
2115 1 14.440000000000001 12.635000000000002 37.905 0 0 0
2116 5 16.245 10.829999999999998 37.905 0 0 0
2117 1 16.245 12.635000000000002 36.1 0 0 0
2118 3 14.440000000000001 10.829999999999998 39.71 0 0 0
2119 4 14.440000000000001 12.635000000000002 41.515 0 0 0
2120 5 16.245 10.829999999999998 41.515 0 0 0
2121 4 16.245 12.635000000000002 39.71 0 0 0
2145 3 14.440000000000001 14.440000000000001 14.440000000000001 0 0 0
2146 3 14.440000000000001 16.245 16.245 0 0 0
2147 4 16.245 14.440000000000001 16.245 0 0 0
2148 4 16.245 16.245 14.440000000000001 0 0 0
2149 5 14.440000000000001 14.440000000000001 18.05 0 0 0
2150 5 14.440000000000001 16.245 19.855 0 0 0
2151 1 16.245 14.440000000000001 19.855 0 0 0
2152 1 16.245 16.245 18.05 0 0 0
2153 4 14.440000000000001 14.440000000000001 21.66 0 0 0
2154 2 14.440000000000001 16.245 23.465 0 0 0
2155 5 16.245 14.440000000000001 23.465 0 0 0
2156 5 16.245 16.245 21.66 0 0 0
2157 3 14.440000000000001 14.440000000000001 25.270000000000003 0 0 0
2158 4 14.440000000000001 16.245 27.075 0 0 0
2159 5 16.245 14.440000000000001 27.075 0 0 0
2160 1 16.245 16.245 25.270000000000003 0 0 0
2161 4 14.440000000000001 14.440000000000001 28.880000000000003 0 0 0
2162 1 14.440000000000001 16.245 30.685 0 0 0
2163 2 16.245 14.440000000000001 30.685 0 0 0
2164 3 16.245 16.245 28.880000000000003 0 0 0
2165 5 14.440000000000001 14.440000000000001 32.49 0 0 0
2166 4 14.440000000000001 16.245 34.295 0 0 0
2167 2 16.245 14.440000000000001 34.295 0 0 0
2168 2 16.245 16.245 32.49 0 0 0
2169 3 14.440000000000001 14.440000000000001 36.1 0 0 0
2170 3 14.440000000000001 16.245 37.905 0 0 0
2171 4 16.245 14.440000000000001 37.905 0 0 0
2172 3 16.245 16.245 36.1 0 0 0
2173 5 14.440000000000001 14.440000000000001 39.71 0 0 0
2174 4 14.440000000000001 16.245 41.515 0 0 0
2175 3 16.245 14.440000000000001 41.515 0 0 0
2176 2 16.245 16.245 39.71 0 0 0
2211 3 14.440000000000001 18.05 14.440000000000001 0 0 0
2212 2 14.440000000000001 19.855 16.245 0 0 0
2213 2 16.245 18.05 16.245 0 0 0
2214 2 16.245 19.855 14.440000000000001 0 0 0
2215 2 14.440000000000001 18.05 18.05 0 0 0
2216 2 14.440000000000001 19.855 19.855 0 0 0
2217 5 16.245 18.05 19.855 0 0 0
2218 4 16.245 19.855 18.05 0 0 0
2219 3 14.440000000000001 18.05 21.66 0 0 0
2220 2 14.440000000000001 19.855 23.465 0 0 0
2221 4 16.245 18.05 23.465 0 0 0
2222 1 16.245 19.855 21.66 0 0 0
2223 4 14.440000000000001 18.05 25.270000000000003 0 0 0
2224 1 14.440000000000001 19.855 27.075 0 0 0
2225 1 16.245 18.05 27.075 0 0 0
2226 5 16.245 19.855 25.270000000000003 0 0 0
2227 4 14.440000000000001 18.05 28.880000000000003 0 0 0
2228 3 14.440000000000001 19.855 30.685 0 0 0
2229 4 16.245 18.05 30.685 0 0 0
2230 4 16.245 19.855 28.880000000000003 0 0 0
2231 2 14.440000000000001 18.05 32.49 0 0 0
2232 1 14.440000000000001 19.855 34.295 0 0 0
2233 2 16.245 18.05 34.295 0 0 0
2234 2 16.245 19.855 32.49 0 0 0
2235 3 14.440000000000001 18.05 36.1 0 0 0
2236 3 14.440000000000001 19.855 37.905 0 0 0
2237 5 16.245 18.05 37.905 0 0 0
2238 4 16.245 19.855 36.1 0 0 0
2239 4 14.440000000000001 18.05 39.71 0 0 0
2240 4 14.440000000000001 19.855 41.515 0 0 0
2241 4 16.245 18.05 41.515 0 0 0
2242 1 16.245 19.855 39.71 0 0 0
2277 4 14.440000000000001 23.465 12.635000000000002 0 0 0
2278 1 16.245 21.66 12.635000000000002 0 0 0
2279 5 14.440000000000001 21.66 14.440000000000001 0 0 0
2280 4 14.440000000000001 23.465 16.245 0 0 0
2281 5 16.245 21.66 16.245 0 0 0
2282 5 16.245 23.465 14.440000000000001 0 0 0
2283 2 14.440000000000001 21.66 18.05 0 0 0
2284 5 14.440000000000001 23.465 19.855 0 0 0
2285 2 16.245 21.66 19.855 0 0 0
2286 4 16.245 23.465 18.05 0 0 0
2287 1 14.440000000000001 21.66 21.66 0 0 0
2288 4 14.440000000000001 23.465 23.465 0 0 0
2289 1 16.245 21.66 23.465 0 0 0
2290 2 16.245 23.465 21.66 0 0 0
2291 1 14.440000000000001 21.66 25.270000000000003 0 0 0
2292 3 14.440000000000001 23.465 27.075 0 0 0
2293 4 16.245 21.66 27.075 0 0 0
2294 2 16.245 23.465 25.270000000000003 0 0 0
2295 4 14.440000000000001 21.66 28.880000000000003 0 0 0
2296 2 14.440000000000001 23.465 30.685 0 0 0
2297 4 16.245 21.66 30.685 0 0 0
2298 2 16.245 23.465 28.880000000000003 0 0 0
2299 1 14.440000000000001 21.66 32.49 0 0 0
2300 2 14.440000000000001 23.465 34.295 0 0 0
2301 1 16.245 21.66 34.295 0 0 0
2302 4 16.245 23.465 32.49 0 0 0
2303 4 14.440000000000001 21.66 36.1 0 0 0
2304 4 14.440000000000001 23.465 37.905 0 0 0
2305 3 16.245 21.66 37.905 0 0 0
2306 5 16.245 23.465 36.1 0 0 0
2307 5 14.440000000000001 21.66 39.71 0 0 0
2308 4 14.440000000000001 23.465 41.515 0 0 0
2309 2 16.245 21.66 41.515 0 0 0
2310 5 16.245 23.465 39.71 0 0 0
2347 1 14.440000000000001 27.075 12.635000000000002 0 0 0
2348 5 16.245 25.270000000000003 12.635000000000002 0 0 0
2349 1 16.245 27.075 10.829999999999998 0 0 0
2350 2 14.440000000000001 25.270000000000003 14.440000000000001 0 0 0
2351 5 14.440000000000001 27.075 16.245 0 0 0
2352 1 16.245 25.270000000000003 16.245 0 0 0
2353 1 16.245 27.075 14.440000000000001 0 0 0
2354 4 14.440000000000001 25.270000000000003 18.05 0 0 0
2355 5 14.440000000000001 27.075 19.855 0 0 0
2356 2 16.245 25.270000000000003 19.855 0 0 0
2357 5 16.245 27.075 18.05 0 0 0
2358 2 14.440000000000001 25.270000000000003 21.66 0 0 0
2359 2 14.440000000000001 27.075 23.465 0 0 0
2360 5 16.245 25.270000000000003 23.465 0 0 0
2361 1 16.245 27.075 21.66 0 0 0
2362 5 14.440000000000001 25.270000000000003 25.270000000000003 0 0 0
2363 3 14.440000000000001 27.075 27.075 0 0 0
2364 5 16.245 25.270000000000003 27.075 0 0 0
2365 1 16.245 27.075 25.270000000000003 0 0 0
2366 5 14.440000000000001 25.270000000000003 28.880000000000003 0 0 0
2367 5 14.440000000000001 27.075 30.685 0 0 0
2368 3 16.245 25.270000000000003 30.685 0 0 0
2369 5 16.245 27.075 28.880000000000003 0 0 0
2370 4 14.440000000000001 25.270000000000003 32.49 0 0 0
2371 5 14.440000000000001 27.075 34.295 0 0 0