model_files/Au/Au_30000/Au_321/data.Au_321_fcc_29817 (written by ASE) 

29817 	 atoms 
1  atom types
0.0                     114  xlo xhi
0.0                     114  ylo yhi
0.0                     114  zlo zhi


Atoms 

     1   1      2.0399999999999991      50.999999999999993      57.120000000000005
     2   1                       0      55.079999999999998      55.079999999999998
     3   1      2.0399999999999991      53.040000000000006      55.079999999999998
     4   1      2.0399999999999991      55.079999999999998      53.040000000000006
     5   1                       0      55.079999999999998      59.159999999999997
     6   1      2.0399999999999991      53.040000000000006      59.159999999999997
     7   1      2.0399999999999991      55.079999999999998      57.120000000000005
     8   1      2.0399999999999991      55.079999999999998      61.200000000000003
     9   1      2.0399999999999991      57.120000000000005      50.999999999999993
    10   1                       0      59.159999999999997      55.079999999999998
    11   1      2.0399999999999991      57.120000000000005      55.079999999999998
    12   1      2.0399999999999991      59.159999999999997      53.040000000000006
    13   1                       0      57.120000000000005      57.120000000000005
    14   1                       0      59.159999999999997      59.159999999999997
    15   1      2.0399999999999991      57.120000000000005      59.159999999999997
    16   1      2.0399999999999991      59.159999999999997      57.120000000000005
    17   1      2.0399999999999991      57.120000000000005      63.240000000000002
    18   1      2.0399999999999991      59.159999999999997      61.200000000000003
    19   1      2.0399999999999991      61.200000000000003      55.079999999999998
    20   1      2.0399999999999991      61.200000000000003      59.159999999999997
    21   1      2.0399999999999991      63.240000000000002      57.120000000000005
    22   1      6.1200000000000045      46.920000000000002      53.040000000000006
    23   1      6.1200000000000045      46.920000000000002      57.120000000000005
    24   1      6.1200000000000045      46.920000000000002      61.200000000000003
    25   1      4.0799999999999983      50.999999999999993      50.999999999999993
    26   1      6.1200000000000045      48.959999999999994      50.999999999999993
    27   1      6.1200000000000045      50.999999999999993      48.959999999999994
    28   1      4.0799999999999983      50.999999999999993      55.079999999999998
    29   1      6.1200000000000045      48.959999999999994      55.079999999999998
    30   1      6.1200000000000045      50.999999999999993      53.040000000000006
    31   1      4.0799999999999983      48.959999999999994      57.120000000000005
    32   1      4.0799999999999983      50.999999999999993      59.159999999999997
    33   1      6.1200000000000045      48.959999999999994      59.159999999999997
    34   1      6.1200000000000045      50.999999999999993      57.120000000000005
    35   1      4.0799999999999983      50.999999999999993      63.240000000000002
    36   1      6.1200000000000045      48.959999999999994      63.240000000000002
    37   1      6.1200000000000045      50.999999999999993      61.200000000000003
    38   1      6.1200000000000045      50.999999999999993      65.280000000000001
    39   1      6.1200000000000045      53.040000000000006      46.920000000000002
    40   1      4.0799999999999983      55.079999999999998      50.999999999999993
    41   1      6.1200000000000045      53.040000000000006      50.999999999999993
    42   1      6.1200000000000045      55.079999999999998      48.959999999999994
    43   1      4.0799999999999983      53.040000000000006      53.040000000000006
    44   1      4.0799999999999983      55.079999999999998      55.079999999999998
    45   1      6.1200000000000045      53.040000000000006      55.079999999999998
    46   1      6.1200000000000045      55.079999999999998      53.040000000000006
    47   1      4.0799999999999983      53.040000000000006      57.120000000000005
    48   1      4.0799999999999983      55.079999999999998      59.159999999999997
    49   1      6.1200000000000045      53.040000000000006      59.159999999999997
    50   1      6.1200000000000045      55.079999999999998      57.120000000000005
    51   1      4.0799999999999983      53.040000000000006      61.200000000000003
    52   1      4.0799999999999983      55.079999999999998      63.240000000000002
    53   1      6.1200000000000045      53.040000000000006      63.240000000000002
    54   1      6.1200000000000045      55.079999999999998      61.200000000000003
    55   1      6.1200000000000045      53.040000000000006      67.319999999999993
    56   1      6.1200000000000045      55.079999999999998      65.280000000000001
    57   1      6.1200000000000045      57.120000000000005      46.920000000000002
    58   1      4.0799999999999983      57.120000000000005      48.959999999999994
    59   1      4.0799999999999983      59.159999999999997      50.999999999999993
    60   1      6.1200000000000045      57.120000000000005      50.999999999999993
    61   1      6.1200000000000045      59.159999999999997      48.959999999999994
    62   1      4.0799999999999983      57.120000000000005      53.040000000000006
    63   1      4.0799999999999983      59.159999999999997      55.079999999999998
    64   1      6.1200000000000045      57.120000000000005      55.079999999999998
    65   1      6.1200000000000045      59.159999999999997      53.040000000000006
    66   1      4.0799999999999983      57.120000000000005      57.120000000000005
    67   1      4.0799999999999983      59.159999999999997      59.159999999999997
    68   1      6.1200000000000045      57.120000000000005      59.159999999999997
    69   1      6.1200000000000045      59.159999999999997      57.120000000000005
    70   1      4.0799999999999983      57.120000000000005      61.200000000000003
    71   1      4.0799999999999983      59.159999999999997      63.240000000000002
    72   1      6.1200000000000045      57.120000000000005      63.240000000000002
    73   1      6.1200000000000045      59.159999999999997      61.200000000000003
    74   1      4.0799999999999983      57.120000000000005      65.280000000000001
    75   1      6.1200000000000045      57.120000000000005      67.319999999999993
    76   1      6.1200000000000045      59.159999999999997      65.280000000000001
    77   1      6.1200000000000045      61.200000000000003      46.920000000000002
    78   1      4.0799999999999983      63.240000000000002      50.999999999999993
    79   1      6.1200000000000045      61.200000000000003      50.999999999999993
    80   1      6.1200000000000045      63.240000000000002      48.959999999999994
    81   1      4.0799999999999983      61.200000000000003      53.040000000000006
    82   1      4.0799999999999983      63.240000000000002      55.079999999999998
    83   1      6.1200000000000045      61.200000000000003      55.079999999999998
    84   1      6.1200000000000045      63.240000000000002      53.040000000000006
    85   1      4.0799999999999983      61.200000000000003      57.120000000000005
    86   1      4.0799999999999983      63.240000000000002      59.159999999999997
    87   1      6.1200000000000045      61.200000000000003      59.159999999999997
    88   1      6.1200000000000045      63.240000000000002      57.120000000000005
    89   1      4.0799999999999983      61.200000000000003      61.200000000000003
    90   1      4.0799999999999983      63.240000000000002      63.240000000000002
    91   1      6.1200000000000045      61.200000000000003      63.240000000000002
    92   1      6.1200000000000045      63.240000000000002      61.200000000000003
    93   1      6.1200000000000045      61.200000000000003      67.319999999999993
    94   1      6.1200000000000045      63.240000000000002      65.280000000000001
    95   1      6.1200000000000045      65.280000000000001      50.999999999999993
    96   1      6.1200000000000045      65.280000000000001      55.079999999999998
    97   1      6.1200000000000045      67.319999999999993      53.040000000000006
    98   1      4.0799999999999983      65.280000000000001      57.120000000000005
    99   1      6.1200000000000045      65.280000000000001      59.159999999999997
   100   1      6.1200000000000045      67.319999999999993      57.120000000000005
   101   1      6.1200000000000045      65.280000000000001      63.240000000000002
   102   1      6.1200000000000045      67.319999999999993      61.200000000000003
   103   1      10.200000000000001      38.759999999999998      57.120000000000005
   104   1      10.200000000000001      42.840000000000003      48.959999999999994
   105   1      8.1600000000000019      42.840000000000003      55.079999999999998
   106   1      10.200000000000001      40.799999999999997      55.079999999999998
   107   1      10.200000000000001      42.840000000000003      53.040000000000006
   108   1      8.1600000000000019      42.840000000000003      59.159999999999997
   109   1      10.200000000000001      40.799999999999997      59.159999999999997
   110   1      10.200000000000001      42.840000000000003      57.120000000000005
   111   1      10.200000000000001      42.840000000000003      61.200000000000003
   112   1      10.200000000000001      42.840000000000003      65.280000000000001
   113   1      8.1600000000000019      46.920000000000002      46.920000000000002
   114   1      10.200000000000001      44.880000000000003      46.920000000000002
   115   1      10.200000000000001      46.920000000000002      44.880000000000003
   116   1      8.1600000000000019      46.920000000000002      50.999999999999993
   117   1      10.200000000000001      44.880000000000003      50.999999999999993
   118   1      10.200000000000001      46.920000000000002      48.959999999999994
   119   1      8.1600000000000019      44.880000000000003      53.040000000000006
   120   1      8.1600000000000019      46.920000000000002      55.079999999999998
   121   1      10.200000000000001      44.880000000000003      55.079999999999998
   122   1      10.200000000000001      46.920000000000002      53.040000000000006
   123   1      8.1600000000000019      44.880000000000003      57.120000000000005
   124   1      8.1600000000000019      46.920000000000002      59.159999999999997
   125   1      10.200000000000001      44.880000000000003      59.159999999999997
   126   1      10.200000000000001      46.920000000000002      57.120000000000005
   127   1      8.1600000000000019      44.880000000000003      61.200000000000003
   128   1      8.1600000000000019      46.920000000000002      63.240000000000002
   129   1      10.200000000000001      44.880000000000003      63.240000000000002
   130   1      10.200000000000001      46.920000000000002      61.200000000000003
   131   1      8.1600000000000019      46.920000000000002      67.319999999999993
   132   1      10.200000000000001      44.880000000000003      67.319999999999993
   133   1      10.200000000000001      46.920000000000002      65.280000000000001
   134   1      10.200000000000001      46.920000000000002      69.359999999999985
   135   1      10.200000000000001      48.959999999999994      42.840000000000003
   136   1      8.1600000000000019      50.999999999999993      46.920000000000002
   137   1      10.200000000000001      48.959999999999994      46.920000000000002
   138   1      10.200000000000001      50.999999999999993      44.880000000000003
   139   1      8.1600000000000019      48.959999999999994      48.959999999999994
   140   1      8.1600000000000019      50.999999999999993      50.999999999999993
   141   1      10.200000000000001      48.959999999999994      50.999999999999993
   142   1      10.200000000000001      50.999999999999993      48.959999999999994
   143   1      8.1600000000000019      48.959999999999994      53.040000000000006
   144   1      8.1600000000000019      50.999999999999993      55.079999999999998
   145   1      10.200000000000001      48.959999999999994      55.079999999999998
   146   1      10.200000000000001      50.999999999999993      53.040000000000006
   147   1      8.1600000000000019      48.959999999999994      57.120000000000005
   148   1      8.1600000000000019      50.999999999999993      59.159999999999997
   149   1      10.200000000000001      48.959999999999994      59.159999999999997
   150   1      10.200000000000001      50.999999999999993      57.120000000000005
   151   1      8.1600000000000019      48.959999999999994      61.200000000000003
   152   1      8.1600000000000019      50.999999999999993      63.240000000000002
   153   1      10.200000000000001      48.959999999999994      63.240000000000002
   154   1      10.200000000000001      50.999999999999993      61.200000000000003
   155   1      8.1600000000000019      48.959999999999994      65.280000000000001
   156   1      8.1600000000000019      50.999999999999993      67.319999999999993
   157   1      10.200000000000001      48.959999999999994      67.319999999999993
   158   1      10.200000000000001      50.999999999999993      65.280000000000001
   159   1      10.200000000000001      48.959999999999994      71.400000000000006
   160   1      10.200000000000001      50.999999999999993      69.359999999999985
   161   1      8.1600000000000019      55.079999999999998      42.840000000000003
   162   1      10.200000000000001      53.040000000000006      42.840000000000003
   163   1      10.200000000000001      55.079999999999998      40.799999999999997
   164   1      8.1600000000000019      53.040000000000006      44.880000000000003
   165   1      8.1600000000000019      55.079999999999998      46.920000000000002
   166   1      10.200000000000001      53.040000000000006      46.920000000000002
   167   1      10.200000000000001      55.079999999999998      44.880000000000003
   168   1      8.1600000000000019      53.040000000000006      48.959999999999994
   169   1      8.1600000000000019      55.079999999999998      50.999999999999993
   170   1      10.200000000000001      53.040000000000006      50.999999999999993
   171   1      10.200000000000001      55.079999999999998      48.959999999999994
   172   1      8.1600000000000019      53.040000000000006      53.040000000000006
   173   1      8.1600000000000019      55.079999999999998      55.079999999999998
   174   1      10.200000000000001      53.040000000000006      55.079999999999998
   175   1      10.200000000000001      55.079999999999998      53.040000000000006
   176   1      8.1600000000000019      53.040000000000006      57.120000000000005
   177   1      8.1600000000000019      55.079999999999998      59.159999999999997
   178   1      10.200000000000001      53.040000000000006      59.159999999999997
   179   1      10.200000000000001      55.079999999999998      57.120000000000005
   180   1      8.1600000000000019      53.040000000000006      61.200000000000003
   181   1      8.1600000000000019      55.079999999999998      63.240000000000002
   182   1      10.200000000000001      53.040000000000006      63.240000000000002
   183   1      10.200000000000001      55.079999999999998      61.200000000000003
   184   1      8.1600000000000019      53.040000000000006      65.280000000000001
   185   1      8.1600000000000019      55.079999999999998      67.319999999999993
   186   1      10.200000000000001      53.040000000000006      67.319999999999993
   187   1      10.200000000000001      55.079999999999998      65.280000000000001
   188   1      8.1600000000000019      53.040000000000006      69.359999999999985
   189   1      8.1600000000000019      55.079999999999998      71.400000000000006
   190   1      10.200000000000001      53.040000000000006      71.400000000000006
   191   1      10.200000000000001      55.079999999999998      69.359999999999985
   192   1      10.200000000000001      55.079999999999998      73.439999999999998
   193   1      10.200000000000001      57.120000000000005      38.759999999999998
   194   1      8.1600000000000019      59.159999999999997      42.840000000000003
   195   1      10.200000000000001      57.120000000000005      42.840000000000003
   196   1      10.200000000000001      59.159999999999997      40.799999999999997
   197   1      8.1600000000000019      57.120000000000005      44.880000000000003
   198   1      8.1600000000000019      59.159999999999997      46.920000000000002
   199   1      10.200000000000001      57.120000000000005      46.920000000000002
   200   1      10.200000000000001      59.159999999999997      44.880000000000003
   201   1      8.1600000000000019      57.120000000000005      48.959999999999994
   202   1      8.1600000000000019      59.159999999999997      50.999999999999993
   203   1      10.200000000000001      57.120000000000005      50.999999999999993
   204   1      10.200000000000001      59.159999999999997      48.959999999999994
   205   1      8.1600000000000019      57.120000000000005      53.040000000000006
   206   1      8.1600000000000019      59.159999999999997      55.079999999999998
   207   1      10.200000000000001      57.120000000000005      55.079999999999998
   208   1      10.200000000000001      59.159999999999997      53.040000000000006
   209   1      8.1600000000000019      57.120000000000005      57.120000000000005
   210   1      8.1600000000000019      59.159999999999997      59.159999999999997
   211   1      10.200000000000001      57.120000000000005      59.159999999999997
   212   1      10.200000000000001      59.159999999999997      57.120000000000005
   213   1      8.1600000000000019      57.120000000000005      61.200000000000003
   214   1      8.1600000000000019      59.159999999999997      63.240000000000002
   215   1      10.200000000000001      57.120000000000005      63.240000000000002
   216   1      10.200000000000001      59.159999999999997      61.200000000000003
   217   1      8.1600000000000019      57.120000000000005      65.280000000000001
   218   1      8.1600000000000019      59.159999999999997      67.319999999999993
   219   1      10.200000000000001      57.120000000000005      67.319999999999993
   220   1      10.200000000000001      59.159999999999997      65.280000000000001
   221   1      8.1600000000000019      57.120000000000005      69.359999999999985
   222   1      8.1600000000000019      59.159999999999997      71.400000000000006
   223   1      10.200000000000001      57.120000000000005      71.400000000000006
   224   1      10.200000000000001      59.159999999999997      69.359999999999985
   225   1      10.200000000000001      57.120000000000005      75.480000000000004
   226   1      10.200000000000001      59.159999999999997      73.439999999999998
   227   1      10.200000000000001      61.200000000000003      42.840000000000003
   228   1      8.1600000000000019      61.200000000000003      44.880000000000003
   229   1      8.1600000000000019      63.240000000000002      46.920000000000002
   230   1      10.200000000000001      61.200000000000003      46.920000000000002
   231   1      10.200000000000001      63.240000000000002      44.880000000000003
   232   1      8.1600000000000019      61.200000000000003      48.959999999999994
   233   1      8.1600000000000019      63.240000000000002      50.999999999999993
   234   1      10.200000000000001      61.200000000000003      50.999999999999993
   235   1      10.200000000000001      63.240000000000002      48.959999999999994
   236   1      8.1600000000000019      61.200000000000003      53.040000000000006
   237   1      8.1600000000000019      63.240000000000002      55.079999999999998
   238   1      10.200000000000001      61.200000000000003      55.079999999999998
   239   1      10.200000000000001      63.240000000000002      53.040000000000006
   240   1      8.1600000000000019      61.200000000000003      57.120000000000005
   241   1      8.1600000000000019      63.240000000000002      59.159999999999997
   242   1      10.200000000000001      61.200000000000003      59.159999999999997
   243   1      10.200000000000001      63.240000000000002      57.120000000000005
   244   1      8.1600000000000019      61.200000000000003      61.200000000000003
   245   1      8.1600000000000019      63.240000000000002      63.240000000000002
   246   1      10.200000000000001      61.200000000000003      63.240000000000002
   247   1      10.200000000000001      63.240000000000002      61.200000000000003
   248   1      8.1600000000000019      61.200000000000003      65.280000000000001
   249   1      8.1600000000000019      63.240000000000002      67.319999999999993
   250   1      10.200000000000001      61.200000000000003      67.319999999999993
   251   1      10.200000000000001      63.240000000000002      65.280000000000001
   252   1      8.1600000000000019      61.200000000000003      69.359999999999985
   253   1      10.200000000000001      61.200000000000003      71.400000000000006
   254   1      10.200000000000001      63.240000000000002      69.359999999999985
   255   1      10.200000000000001      65.280000000000001      42.840000000000003
   256   1      8.1600000000000019      67.319999999999993      46.920000000000002
   257   1      10.200000000000001      65.280000000000001      46.920000000000002
   258   1      10.200000000000001      67.319999999999993      44.880000000000003
   259   1      8.1600000000000019      65.280000000000001      48.959999999999994
   260   1      8.1600000000000019      67.319999999999993      50.999999999999993
   261   1      10.200000000000001      65.280000000000001      50.999999999999993
   262   1      10.200000000000001      67.319999999999993      48.959999999999994
   263   1      8.1600000000000019      65.280000000000001      53.040000000000006
   264   1      8.1600000000000019      67.319999999999993      55.079999999999998
   265   1      10.200000000000001      65.280000000000001      55.079999999999998
   266   1      10.200000000000001      67.319999999999993      53.040000000000006
   267   1      8.1600000000000019      65.280000000000001      57.120000000000005
   268   1      8.1600000000000019      67.319999999999993      59.159999999999997
   269   1      10.200000000000001      65.280000000000001      59.159999999999997
   270   1      10.200000000000001      67.319999999999993      57.120000000000005
   271   1      8.1600000000000019      65.280000000000001      61.200000000000003
   272   1      8.1600000000000019      67.319999999999993      63.240000000000002
   273   1      10.200000000000001      65.280000000000001      63.240000000000002
   274   1      10.200000000000001      67.319999999999993      61.200000000000003
   275   1      8.1600000000000019      65.280000000000001      65.280000000000001
   276   1      8.1600000000000019      67.319999999999993      67.319999999999993
   277   1      10.200000000000001      65.280000000000001      67.319999999999993
   278   1      10.200000000000001      67.319999999999993      65.280000000000001
   279   1      10.200000000000001      65.280000000000001      71.400000000000006
   280   1      10.200000000000001      67.319999999999993      69.359999999999985
   281   1      10.200000000000001      69.359999999999985      46.920000000000002
   282   1      10.200000000000001      69.359999999999985      50.999999999999993
   283   1      10.200000000000001      71.400000000000006      48.959999999999994
   284   1      8.1600000000000019      69.359999999999985      53.040000000000006
   285   1      8.1600000000000019      71.400000000000006      55.079999999999998
   286   1      10.200000000000001      69.359999999999985      55.079999999999998
   287   1      10.200000000000001      71.400000000000006      53.040000000000006
   288   1      8.1600000000000019      69.359999999999985      57.120000000000005
   289   1      8.1600000000000019      71.400000000000006      59.159999999999997
   290   1      10.200000000000001      69.359999999999985      59.159999999999997
   291   1      10.200000000000001      71.400000000000006      57.120000000000005
   292   1      8.1600000000000019      69.359999999999985      61.200000000000003
   293   1      10.200000000000001      69.359999999999985      63.240000000000002
   294   1      10.200000000000001      71.400000000000006      61.200000000000003
   295   1      10.200000000000001      69.359999999999985      67.319999999999993
   296   1      10.200000000000001      71.400000000000006      65.280000000000001
   297   1      10.200000000000001      73.439999999999998      55.079999999999998
   298   1      10.200000000000001      73.439999999999998      59.159999999999997
   299   1      10.200000000000001      75.480000000000004      57.120000000000005
   300   1      14.280000000000001      34.679999999999993      53.040000000000006
   301   1      14.280000000000001      34.679999999999993      57.120000000000005
   302   1      14.280000000000001      34.679999999999993      61.200000000000003
   303   1      14.280000000000001      38.759999999999998      44.880000000000003
   304   1                   12.24      38.759999999999998      50.999999999999993
   305   1      14.280000000000001      36.719999999999999      50.999999999999993
   306   1      14.280000000000001      38.759999999999998      48.959999999999994
   307   1                   12.24      38.759999999999998      55.079999999999998
   308   1      14.280000000000001      36.719999999999999      55.079999999999998
   309   1      14.280000000000001      38.759999999999998      53.040000000000006
   310   1                   12.24      36.719999999999999      57.120000000000005
   311   1                   12.24      38.759999999999998      59.159999999999997
   312   1      14.280000000000001      36.719999999999999      59.159999999999997
   313   1      14.280000000000001      38.759999999999998      57.120000000000005
   314   1                   12.24      38.759999999999998      63.240000000000002
   315   1      14.280000000000001      36.719999999999999      63.240000000000002
   316   1      14.280000000000001      38.759999999999998      61.200000000000003
   317   1      14.280000000000001      38.759999999999998      65.280000000000001
   318   1      14.280000000000001      38.759999999999998      69.359999999999985
   319   1                   12.24      42.840000000000003      42.840000000000003
   320   1      14.280000000000001      40.799999999999997      42.840000000000003
   321   1      14.280000000000001      42.840000000000003      40.799999999999997
   322   1                   12.24      42.840000000000003      46.920000000000002
   323   1      14.280000000000001      40.799999999999997      46.920000000000002
   324   1      14.280000000000001      42.840000000000003      44.880000000000003
   325   1                   12.24      40.799999999999997      48.959999999999994
   326   1                   12.24      42.840000000000003      50.999999999999993
   327   1      14.280000000000001      40.799999999999997      50.999999999999993
   328   1      14.280000000000001      42.840000000000003      48.959999999999994
   329   1                   12.24      40.799999999999997      53.040000000000006
   330   1                   12.24      42.840000000000003      55.079999999999998
   331   1      14.280000000000001      40.799999999999997      55.079999999999998
   332   1      14.280000000000001      42.840000000000003      53.040000000000006
   333   1                   12.24      40.799999999999997      57.120000000000005
   334   1                   12.24      42.840000000000003      59.159999999999997
   335   1      14.280000000000001      40.799999999999997      59.159999999999997
   336   1      14.280000000000001      42.840000000000003      57.120000000000005
   337   1                   12.24      40.799999999999997      61.200000000000003
   338   1                   12.24      42.840000000000003      63.240000000000002
   339   1      14.280000000000001      40.799999999999997      63.240000000000002
   340   1      14.280000000000001      42.840000000000003      61.200000000000003
   341   1                   12.24      40.799999999999997      65.280000000000001
   342   1                   12.24      42.840000000000003      67.319999999999993
   343   1      14.280000000000001      40.799999999999997      67.319999999999993
   344   1      14.280000000000001      42.840000000000003      65.280000000000001
   345   1                   12.24      42.840000000000003      71.400000000000006
   346   1      14.280000000000001      40.799999999999997      71.400000000000006
   347   1      14.280000000000001      42.840000000000003      69.359999999999985
   348   1      14.280000000000001      42.840000000000003      73.439999999999998
   349   1      14.280000000000001      44.880000000000003      38.759999999999998
   350   1                   12.24      46.920000000000002      42.840000000000003
   351   1      14.280000000000001      44.880000000000003      42.840000000000003
   352   1      14.280000000000001      46.920000000000002      40.799999999999997
   353   1                   12.24      44.880000000000003      44.880000000000003
   354   1                   12.24      46.920000000000002      46.920000000000002
   355   1      14.280000000000001      44.880000000000003      46.920000000000002
   356   1      14.280000000000001      46.920000000000002      44.880000000000003
   357   1                   12.24      44.880000000000003      48.959999999999994
   358   1                   12.24      46.920000000000002      50.999999999999993