model_files/Pt/Pt_10000/Pt_320/data.Pt_320_fcc_10091 (written by ASE) 

10091 	 atoms 
1  atom types
0.0                      70  xlo xhi
0.0                      70  ylo yhi
0.0                      70  zlo zhi


Atoms 

     1   1      1.9600000000000009      29.399999999999999      31.359999999999996
     2   1      1.9600000000000009      29.399999999999999      35.280000000000001
     3   1      1.9600000000000009      29.399999999999999      39.199999999999996
     4   1      1.9600000000000009      31.359999999999996      29.399999999999999
     5   1                       0                   33.32                   33.32
     6   1      1.9600000000000009      31.359999999999996                   33.32
     7   1      1.9600000000000009                   33.32      31.359999999999996
     8   1                       0                   33.32      37.240000000000002
     9   1      1.9600000000000009      31.359999999999996      37.240000000000002
    10   1      1.9600000000000009                   33.32      35.280000000000001
    11   1      1.9600000000000009      31.359999999999996      41.159999999999997
    12   1      1.9600000000000009                   33.32      39.199999999999996
    13   1      1.9600000000000009      35.280000000000001      29.399999999999999
    14   1                       0      37.240000000000002                   33.32
    15   1      1.9600000000000009      35.280000000000001                   33.32
    16   1      1.9600000000000009      37.240000000000002      31.359999999999996
    17   1                       0      35.280000000000001      35.280000000000001
    18   1                       0      37.240000000000002      37.240000000000002
    19   1      1.9600000000000009      35.280000000000001      37.240000000000002
    20   1      1.9600000000000009      37.240000000000002      35.280000000000001
    21   1      1.9600000000000009      35.280000000000001      41.159999999999997
    22   1      1.9600000000000009      37.240000000000002      39.199999999999996
    23   1      1.9600000000000009      39.199999999999996      29.399999999999999
    24   1      1.9600000000000009      39.199999999999996                   33.32
    25   1      1.9600000000000009      41.159999999999997      31.359999999999996
    26   1      1.9600000000000009      39.199999999999996      37.240000000000002
    27   1      1.9600000000000009      41.159999999999997      35.280000000000001
    28   1      1.9600000000000009      39.199999999999996      41.159999999999997
    29   1      1.9600000000000009      41.159999999999997      39.199999999999996
    30   1      5.8799999999999981      23.519999999999992      25.479999999999997
    31   1      5.8799999999999981      25.479999999999997      23.519999999999992
    32   1      5.8799999999999981      23.519999999999992      29.399999999999999
    33   1      5.8799999999999981      25.479999999999997      27.439999999999998
    34   1      5.8799999999999981      23.519999999999992                   33.32
    35   1      5.8799999999999981      25.479999999999997      31.359999999999996
    36   1      5.8799999999999981      23.519999999999992      37.240000000000002
    37   1      5.8799999999999981      25.479999999999997      35.280000000000001
    38   1      5.8799999999999981      23.519999999999992      41.159999999999997
    39   1      5.8799999999999981      25.479999999999997      39.199999999999996
    40   1      5.8799999999999981      23.519999999999992      45.079999999999991
    41   1      5.8799999999999981      25.479999999999997      43.119999999999997
    42   1      5.8799999999999981      25.479999999999997      47.039999999999992
    43   1      5.8799999999999981      27.439999999999998      25.479999999999997
    44   1      5.8799999999999981      29.399999999999999      23.519999999999992
    45   1      3.9199999999999982      27.439999999999998      27.439999999999998
    46   1      3.9199999999999982      29.399999999999999      29.399999999999999
    47   1      5.8799999999999981      27.439999999999998      29.399999999999999
    48   1      5.8799999999999981      29.399999999999999      27.439999999999998
    49   1      3.9199999999999982      27.439999999999998      31.359999999999996
    50   1      3.9199999999999982      29.399999999999999                   33.32
    51   1      5.8799999999999981      27.439999999999998                   33.32
    52   1      5.8799999999999981      29.399999999999999      31.359999999999996
    53   1      3.9199999999999982      27.439999999999998      35.280000000000001
    54   1      3.9199999999999982      29.399999999999999      37.240000000000002
    55   1      5.8799999999999981      27.439999999999998      37.240000000000002
    56   1      5.8799999999999981      29.399999999999999      35.280000000000001
    57   1      3.9199999999999982      27.439999999999998      39.199999999999996
    58   1      3.9199999999999982      29.399999999999999      41.159999999999997
    59   1      5.8799999999999981      27.439999999999998      41.159999999999997
    60   1      5.8799999999999981      29.399999999999999      39.199999999999996
    61   1      3.9199999999999982      27.439999999999998      43.119999999999997
    62   1      5.8799999999999981      27.439999999999998      45.079999999999991
    63   1      5.8799999999999981      29.399999999999999      43.119999999999997
    64   1      5.8799999999999981      29.399999999999999      47.039999999999992
    65   1      5.8799999999999981      31.359999999999996      25.479999999999997
    66   1      5.8799999999999981                   33.32      23.519999999999992
    67   1      3.9199999999999982      31.359999999999996      27.439999999999998
    68   1      3.9199999999999982                   33.32      29.399999999999999
    69   1      5.8799999999999981      31.359999999999996      29.399999999999999
    70   1      5.8799999999999981                   33.32      27.439999999999998
    71   1      3.9199999999999982      31.359999999999996      31.359999999999996
    72   1      3.9199999999999982                   33.32                   33.32
    73   1      5.8799999999999981      31.359999999999996                   33.32
    74   1      5.8799999999999981                   33.32      31.359999999999996
    75   1      3.9199999999999982      31.359999999999996      35.280000000000001
    76   1      3.9199999999999982                   33.32      37.240000000000002
    77   1      5.8799999999999981      31.359999999999996      37.240000000000002
    78   1      5.8799999999999981                   33.32      35.280000000000001
    79   1      3.9199999999999982      31.359999999999996      39.199999999999996
    80   1      3.9199999999999982                   33.32      41.159999999999997
    81   1      5.8799999999999981      31.359999999999996      41.159999999999997
    82   1      5.8799999999999981                   33.32      39.199999999999996
    83   1      3.9199999999999982      31.359999999999996      43.119999999999997
    84   1      5.8799999999999981      31.359999999999996      45.079999999999991
    85   1      5.8799999999999981                   33.32      43.119999999999997
    86   1      5.8799999999999981                   33.32      47.039999999999992
    87   1      5.8799999999999981      35.280000000000001      25.479999999999997
    88   1      5.8799999999999981      37.240000000000002      23.519999999999992
    89   1      3.9199999999999982      35.280000000000001      27.439999999999998
    90   1      3.9199999999999982      37.240000000000002      29.399999999999999
    91   1      5.8799999999999981      35.280000000000001      29.399999999999999
    92   1      5.8799999999999981      37.240000000000002      27.439999999999998
    93   1      3.9199999999999982      35.280000000000001      31.359999999999996
    94   1      3.9199999999999982      37.240000000000002                   33.32
    95   1      5.8799999999999981      35.280000000000001                   33.32
    96   1      5.8799999999999981      37.240000000000002      31.359999999999996
    97   1      3.9199999999999982      35.280000000000001      35.280000000000001
    98   1      3.9199999999999982      37.240000000000002      37.240000000000002
    99   1      5.8799999999999981      35.280000000000001      37.240000000000002
   100   1      5.8799999999999981      37.240000000000002      35.280000000000001
   101   1      3.9199999999999982      35.280000000000001      39.199999999999996
   102   1      3.9199999999999982      37.240000000000002      41.159999999999997
   103   1      5.8799999999999981      35.280000000000001      41.159999999999997
   104   1      5.8799999999999981      37.240000000000002      39.199999999999996
   105   1      3.9199999999999982      35.280000000000001      43.119999999999997
   106   1      5.8799999999999981      35.280000000000001      45.079999999999991
   107   1      5.8799999999999981      37.240000000000002      43.119999999999997
   108   1      5.8799999999999981      37.240000000000002      47.039999999999992
   109   1      5.8799999999999981      39.199999999999996      25.479999999999997
   110   1      5.8799999999999981      41.159999999999997      23.519999999999992
   111   1      3.9199999999999982      39.199999999999996      27.439999999999998
   112   1      3.9199999999999982      41.159999999999997      29.399999999999999
   113   1      5.8799999999999981      39.199999999999996      29.399999999999999
   114   1      5.8799999999999981      41.159999999999997      27.439999999999998
   115   1      3.9199999999999982      39.199999999999996      31.359999999999996
   116   1      3.9199999999999982      41.159999999999997                   33.32
   117   1      5.8799999999999981      39.199999999999996                   33.32
   118   1      5.8799999999999981      41.159999999999997      31.359999999999996
   119   1      3.9199999999999982      39.199999999999996      35.280000000000001
   120   1      3.9199999999999982      41.159999999999997      37.240000000000002
   121   1      5.8799999999999981      39.199999999999996      37.240000000000002
   122   1      5.8799999999999981      41.159999999999997      35.280000000000001
   123   1      3.9199999999999982      39.199999999999996      39.199999999999996
   124   1      3.9199999999999982      41.159999999999997      41.159999999999997
   125   1      5.8799999999999981      39.199999999999996      41.159999999999997
   126   1      5.8799999999999981      41.159999999999997      39.199999999999996
   127   1      3.9199999999999982      39.199999999999996      43.119999999999997
   128   1      5.8799999999999981      39.199999999999996      45.079999999999991
   129   1      5.8799999999999981      41.159999999999997      43.119999999999997
   130   1      5.8799999999999981      41.159999999999997      47.039999999999992
   131   1      5.8799999999999981      43.119999999999997      25.479999999999997
   132   1      5.8799999999999981      45.079999999999991      23.519999999999992
   133   1      3.9199999999999982      43.119999999999997      27.439999999999998
   134   1      5.8799999999999981      43.119999999999997      29.399999999999999
   135   1      5.8799999999999981      45.079999999999991      27.439999999999998
   136   1      3.9199999999999982      43.119999999999997      31.359999999999996
   137   1      5.8799999999999981      43.119999999999997                   33.32
   138   1      5.8799999999999981      45.079999999999991      31.359999999999996
   139   1      3.9199999999999982      43.119999999999997      35.280000000000001
   140   1      5.8799999999999981      43.119999999999997      37.240000000000002
   141   1      5.8799999999999981      45.079999999999991      35.280000000000001
   142   1      3.9199999999999982      43.119999999999997      39.199999999999996
   143   1      5.8799999999999981      43.119999999999997      41.159999999999997
   144   1      5.8799999999999981      45.079999999999991      39.199999999999996
   145   1      3.9199999999999982      43.119999999999997      43.119999999999997
   146   1      5.8799999999999981      43.119999999999997      45.079999999999991
   147   1      5.8799999999999981      45.079999999999991      43.119999999999997
   148   1      5.8799999999999981      45.079999999999991      47.039999999999992
   149   1      5.8799999999999981      47.039999999999992      25.479999999999997
   150   1      5.8799999999999981      47.039999999999992      29.399999999999999
   151   1      5.8799999999999981      47.039999999999992                   33.32
   152   1      5.8799999999999981      47.039999999999992      37.240000000000002
   153   1      5.8799999999999981      47.039999999999992      41.159999999999997
   154   1      5.8799999999999981      47.039999999999992      45.079999999999991
   155   1      9.7999999999999972      17.640000000000001      19.599999999999998
   156   1      9.7999999999999972      17.640000000000001      23.519999999999992
   157   1      9.7999999999999972      17.640000000000001      27.439999999999998
   158   1      9.7999999999999972      17.640000000000001      31.359999999999996
   159   1      9.7999999999999972      17.640000000000001      35.280000000000001
   160   1      9.7999999999999972      17.640000000000001      39.199999999999996
   161   1      9.7999999999999972      17.640000000000001      43.119999999999997
   162   1      9.7999999999999972      17.640000000000001      47.039999999999992
   163   1      9.7999999999999972      17.640000000000001      50.959999999999994
   164   1      9.7999999999999972      19.599999999999998      17.640000000000001
   165   1      7.8399999999999963      21.559999999999999      21.559999999999999
   166   1      9.7999999999999972      19.599999999999998      21.559999999999999
   167   1      9.7999999999999972      21.559999999999999      19.599999999999998
   168   1      7.8399999999999963      21.559999999999999      25.479999999999997
   169   1      9.7999999999999972      19.599999999999998      25.479999999999997
   170   1      9.7999999999999972      21.559999999999999      23.519999999999992
   171   1      7.8399999999999963      21.559999999999999      29.399999999999999
   172   1      9.7999999999999972      19.599999999999998      29.399999999999999
   173   1      9.7999999999999972      21.559999999999999      27.439999999999998
   174   1      7.8399999999999963      21.559999999999999                   33.32
   175   1      9.7999999999999972      19.599999999999998                   33.32
   176   1      9.7999999999999972      21.559999999999999      31.359999999999996
   177   1      7.8399999999999963      21.559999999999999      37.240000000000002
   178   1      9.7999999999999972      19.599999999999998      37.240000000000002
   179   1      9.7999999999999972      21.559999999999999      35.280000000000001
   180   1      7.8399999999999963      21.559999999999999      41.159999999999997
   181   1      9.7999999999999972      19.599999999999998      41.159999999999997
   182   1      9.7999999999999972      21.559999999999999      39.199999999999996
   183   1      7.8399999999999963      21.559999999999999      45.079999999999991
   184   1      9.7999999999999972      19.599999999999998      45.079999999999991
   185   1      9.7999999999999972      21.559999999999999      43.119999999999997
   186   1      7.8399999999999963      21.559999999999999                      49
   187   1      9.7999999999999972      19.599999999999998                      49
   188   1      9.7999999999999972      21.559999999999999      47.039999999999992
   189   1      9.7999999999999972      19.599999999999998      52.919999999999995
   190   1      9.7999999999999972      21.559999999999999      50.959999999999994
   191   1      9.7999999999999972      23.519999999999992      17.640000000000001
   192   1      7.8399999999999963      25.479999999999997      21.559999999999999
   193   1      9.7999999999999972      23.519999999999992      21.559999999999999
   194   1      9.7999999999999972      25.479999999999997      19.599999999999998
   195   1      7.8399999999999963      23.519999999999992      23.519999999999992
   196   1      7.8399999999999963      25.479999999999997      25.479999999999997
   197   1      9.7999999999999972      23.519999999999992      25.479999999999997
   198   1      9.7999999999999972      25.479999999999997      23.519999999999992
   199   1      7.8399999999999963      23.519999999999992      27.439999999999998
   200   1      7.8399999999999963      25.479999999999997      29.399999999999999
   201   1      9.7999999999999972      23.519999999999992      29.399999999999999
   202   1      9.7999999999999972      25.479999999999997      27.439999999999998
   203   1      7.8399999999999963      23.519999999999992      31.359999999999996
   204   1      7.8399999999999963      25.479999999999997                   33.32
   205   1      9.7999999999999972      23.519999999999992                   33.32
   206   1      9.7999999999999972      25.479999999999997      31.359999999999996
   207   1      7.8399999999999963      23.519999999999992      35.280000000000001
   208   1      7.8399999999999963      25.479999999999997      37.240000000000002
   209   1      9.7999999999999972      23.519999999999992      37.240000000000002
   210   1      9.7999999999999972      25.479999999999997      35.280000000000001
   211   1      7.8399999999999963      23.519999999999992      39.199999999999996
   212   1      7.8399999999999963      25.479999999999997      41.159999999999997
   213   1      9.7999999999999972      23.519999999999992      41.159999999999997
   214   1      9.7999999999999972      25.479999999999997      39.199999999999996
   215   1      7.8399999999999963      23.519999999999992      43.119999999999997
   216   1      7.8399999999999963      25.479999999999997      45.079999999999991
   217   1      9.7999999999999972      23.519999999999992      45.079999999999991
   218   1      9.7999999999999972      25.479999999999997      43.119999999999997
   219   1      7.8399999999999963      23.519999999999992      47.039999999999992
   220   1      7.8399999999999963      25.479999999999997                      49
   221   1      9.7999999999999972      23.519999999999992                      49
   222   1      9.7999999999999972      25.479999999999997      47.039999999999992
   223   1      9.7999999999999972      23.519999999999992      52.919999999999995
   224   1      9.7999999999999972      25.479999999999997      50.959999999999994
   225   1      9.7999999999999972      27.439999999999998      17.640000000000001
   226   1      7.8399999999999963      29.399999999999999      21.559999999999999
   227   1      9.7999999999999972      27.439999999999998      21.559999999999999
   228   1      9.7999999999999972      29.399999999999999      19.599999999999998
   229   1      7.8399999999999963      27.439999999999998      23.519999999999992
   230   1      7.8399999999999963      29.399999999999999      25.479999999999997
   231   1      9.7999999999999972      27.439999999999998      25.479999999999997
   232   1      9.7999999999999972      29.399999999999999      23.519999999999992
   233   1      7.8399999999999963      27.439999999999998      27.439999999999998
   234   1      7.8399999999999963      29.399999999999999      29.399999999999999
   235   1      9.7999999999999972      27.439999999999998      29.399999999999999
   236   1      9.7999999999999972      29.399999999999999      27.439999999999998
   237   1      7.8399999999999963      27.439999999999998      31.359999999999996
   238   1      7.8399999999999963      29.399999999999999                   33.32
   239   1      9.7999999999999972      27.439999999999998                   33.32
   240   1      9.7999999999999972      29.399999999999999      31.359999999999996
   241   1      7.8399999999999963      27.439999999999998      35.280000000000001
   242   1      7.8399999999999963      29.399999999999999      37.240000000000002
   243   1      9.7999999999999972      27.439999999999998      37.240000000000002
   244   1      9.7999999999999972      29.399999999999999      35.280000000000001
   245   1      7.8399999999999963      27.439999999999998      39.199999999999996
   246   1      7.8399999999999963      29.399999999999999      41.159999999999997
   247   1      9.7999999999999972      27.439999999999998      41.159999999999997
   248   1      9.7999999999999972      29.399999999999999      39.199999999999996
   249   1      7.8399999999999963      27.439999999999998      43.119999999999997
   250   1      7.8399999999999963      29.399999999999999      45.079999999999991
   251   1      9.7999999999999972      27.439999999999998      45.079999999999991
   252   1      9.7999999999999972      29.399999999999999      43.119999999999997
   253   1      7.8399999999999963      27.439999999999998      47.039999999999992
   254   1      7.8399999999999963      29.399999999999999                      49
   255   1      9.7999999999999972      27.439999999999998                      49
   256   1      9.7999999999999972      29.399999999999999      47.039999999999992
   257   1      9.7999999999999972      27.439999999999998      52.919999999999995
   258   1      9.7999999999999972      29.399999999999999      50.959999999999994
   259   1      9.7999999999999972      31.359999999999996      17.640000000000001
   260   1      7.8399999999999963                   33.32      21.559999999999999
   261   1      9.7999999999999972      31.359999999999996      21.559999999999999
   262   1      9.7999999999999972                   33.32      19.599999999999998
   263   1      7.8399999999999963      31.359999999999996      23.519999999999992
   264   1      7.8399999999999963                   33.32      25.479999999999997
   265   1      9.7999999999999972      31.359999999999996      25.479999999999997
   266   1      9.7999999999999972                   33.32      23.519999999999992
   267   1      7.8399999999999963      31.359999999999996      27.439999999999998
   268   1      7.8399999999999963                   33.32      29.399999999999999
   269   1      9.7999999999999972      31.359999999999996      29.399999999999999
   270   1      9.7999999999999972                   33.32      27.439999999999998
   271   1      7.8399999999999963      31.359999999999996      31.359999999999996
   272   1      7.8399999999999963                   33.32                   33.32
   273   1      9.7999999999999972      31.359999999999996                   33.32
   274   1      9.7999999999999972                   33.32      31.359999999999996
   275   1      7.8399999999999963      31.359999999999996      35.280000000000001
   276   1      7.8399999999999963                   33.32      37.240000000000002
   277   1      9.7999999999999972      31.359999999999996      37.240000000000002
   278   1      9.7999999999999972                   33.32      35.280000000000001
   279   1      7.8399999999999963      31.359999999999996      39.199999999999996
   280   1      7.8399999999999963                   33.32      41.159999999999997
   281   1      9.7999999999999972      31.359999999999996      41.159999999999997
   282   1      9.7999999999999972                   33.32      39.199999999999996
   283   1      7.8399999999999963      31.359999999999996      43.119999999999997
   284   1      7.8399999999999963                   33.32      45.079999999999991
   285   1      9.7999999999999972      31.359999999999996      45.079999999999991
   286   1      9.7999999999999972                   33.32      43.119999999999997
   287   1      7.8399999999999963      31.359999999999996      47.039999999999992
   288   1      7.8399999999999963                   33.32                      49
   289   1      9.7999999999999972      31.359999999999996                      49
   290   1      9.7999999999999972                   33.32      47.039999999999992
   291   1      9.7999999999999972      31.359999999999996      52.919999999999995
   292   1      9.7999999999999972                   33.32      50.959999999999994
   293   1      9.7999999999999972      35.280000000000001      17.640000000000001
   294   1      7.8399999999999963      37.240000000000002      21.559999999999999
   295   1      9.7999999999999972      35.280000000000001      21.559999999999999
   296   1      9.7999999999999972      37.240000000000002      19.599999999999998
   297   1      7.8399999999999963      35.280000000000001      23.519999999999992
   298   1      7.8399999999999963      37.240000000000002      25.479999999999997
   299   1      9.7999999999999972      35.280000000000001      25.479999999999997
   300   1      9.7999999999999972      37.240000000000002      23.519999999999992
   301   1      7.8399999999999963      35.280000000000001      27.439999999999998
   302   1      7.8399999999999963      37.240000000000002      29.399999999999999
   303   1      9.7999999999999972      35.280000000000001      29.399999999999999
   304   1      9.7999999999999972      37.240000000000002      27.439999999999998
   305   1      7.8399999999999963      35.280000000000001      31.359999999999996
   306   1      7.8399999999999963      37.240000000000002                   33.32
   307   1      9.7999999999999972      35.280000000000001                   33.32
   308   1      9.7999999999999972      37.240000000000002      31.359999999999996
   309   1      7.8399999999999963      35.280000000000001      35.280000000000001
   310   1      7.8399999999999963      37.240000000000002      37.240000000000002
   311   1      9.7999999999999972      35.280000000000001      37.240000000000002
   312   1      9.7999999999999972      37.240000000000002      35.280000000000001
   313   1      7.8399999999999963      35.280000000000001      39.199999999999996
   314   1      7.8399999999999963      37.240000000000002      41.159999999999997
   315   1      9.7999999999999972      35.280000000000001      41.159999999999997
   316   1      9.7999999999999972      37.240000000000002      39.199999999999996
   317   1      7.8399999999999963      35.280000000000001      43.119999999999997
   318   1      7.8399999999999963      37.240000000000002      45.079999999999991
   319   1      9.7999999999999972      35.280000000000001      45.079999999999991
   320   1      9.7999999999999972      37.240000000000002      43.119999999999997
   321   1      7.8399999999999963      35.280000000000001      47.039999999999992
   322   1      7.8399999999999963      37.240000000000002                      49
   323   1      9.7999999999999972      35.280000000000001                      49
   324   1      9.7999999999999972      37.240000000000002      47.039999999999992
   325   1      9.7999999999999972      35.280000000000001      52.919999999999995
   326   1      9.7999999999999972      37.240000000000002      50.959999999999994
   327   1      9.7999999999999972      39.199999999999996      17.640000000000001
   328   1      7.8399999999999963      41.159999999999997      21.559999999999999
   329   1      9.7999999999999972      39.199999999999996      21.559999999999999
   330   1      9.7999999999999972      41.159999999999997      19.599999999999998
   331   1      7.8399999999999963      39.199999999999996      23.519999999999992
   332   1      7.8399999999999963      41.159999999999997      25.479999999999997
   333   1      9.7999999999999972      39.199999999999996      25.479999999999997
   334   1      9.7999999999999972      41.159999999999997      23.519999999999992
   335   1      7.8399999999999963      39.199999999999996      27.439999999999998
   336   1      7.8399999999999963      41.159999999999997      29.399999999999999
   337   1      9.7999999999999972      39.199999999999996      29.399999999999999
   338   1      9.7999999999999972      41.159999999999997      27.439999999999998
   339   1      7.8399999999999963      39.199999999999996      31.359999999999996
   340   1      7.8399999999999963      41.159999999999997                   33.32
   341   1      9.7999999999999972      39.199999999999996                   33.32
   342   1      9.7999999999999972      41.159999999999997      31.359999999999996
   343   1      7.8399999999999963      39.199999999999996      35.280000000000001
   344   1      7.8399999999999963      41.159999999999997      37.240000000000002
   345   1      9.7999999999999972      39.199999999999996      37.240000000000002
   346   1      9.7999999999999972      41.159999999999997      35.280000000000001
   347   1      7.8399999999999963      39.199999999999996      39.199999999999996
   348   1      7.8399999999999963      41.159999999999997      41.159999999999997
   349   1      9.7999999999999972      39.199999999999996      41.159999999999997
   350   1      9.7999999999999972      41.159999999999997      39.199999999999996
   351   1      7.8399999999999963      39.199999999999996      43.119999999999997
   352   1      7.8399999999999963      41.159999999999997      45.079999999999991
   353   1      9.7999999999999972      39.199999999999996      45.079999999999991
   354   1      9.7999999999999972      41.159999999999997      43.119999999999997
   355   1      7.8399999999999963      39.199999999999996      47.039999999999992
   356   1      7.8399999999999963      41.159999999999997                      49
   357   1      9.7999999999999972      39.199999999999996                      49
   358   1      9.7999999999999972      41.159999999999997      47.039999999999992