model_files/PtNi/PtNi_30000/PtNi_110/PtNi_110_fcc_31263_temp.data (written by ASE) 

31263 	 atoms 
2  atom types
0.0                     114  xlo xhi
0.0                     114  ylo yhi
0.0                     114  zlo zhi


Atoms 

     1   1                       0      55.535000000000004      55.535000000000004
     2   1      1.9149999999999991      53.619999999999997      55.535000000000004
     3   1      1.9149999999999991      55.535000000000004      53.619999999999997
     4   1                       0      55.535000000000004      59.364999999999995
     5   1      1.9149999999999991      53.619999999999997      59.364999999999995
     6   1      1.9149999999999991      55.535000000000004      57.449999999999996
     7   1      1.9149999999999991      55.535000000000004      61.279999999999994
     8   1                       0      59.364999999999995      55.535000000000004
     9   1      1.9149999999999991      57.449999999999996      55.535000000000004
    10   1      1.9149999999999991      59.364999999999995      53.619999999999997
    11   1                       0      57.449999999999996      57.449999999999996
    12   1                       0      59.364999999999995      59.364999999999995
    13   1      1.9149999999999991      57.449999999999996      59.364999999999995
    14   1      1.9149999999999991      59.364999999999995      57.449999999999996
    15   1      1.9149999999999991      59.364999999999995      61.279999999999994
    16   1      1.9149999999999991      61.279999999999994      55.535000000000004
    17   1      1.9149999999999991      61.279999999999994      59.364999999999995
    18   1      3.8299999999999983      51.704999999999998      51.704999999999998
    19   1      5.7450000000000037      49.789999999999999      51.704999999999998
    20   1      5.7450000000000037      51.704999999999998      49.789999999999999
    21   1      3.8299999999999983      51.704999999999998      55.535000000000004
    22   1      5.7450000000000037      49.789999999999999      55.535000000000004
    23   1      5.7450000000000037      51.704999999999998      53.619999999999997
    24   1      3.8299999999999983      51.704999999999998      59.364999999999995
    25   1      5.7450000000000037      49.789999999999999      59.364999999999995
    26   1      5.7450000000000037      51.704999999999998      57.449999999999996
    27   1      3.8299999999999983      51.704999999999998      63.195000000000007
    28   1      5.7450000000000037      49.789999999999999      63.195000000000007
    29   1      5.7450000000000037      51.704999999999998      61.279999999999994
    30   1      5.7450000000000037      51.704999999999998      65.109999999999999
    31   1      3.8299999999999983      55.535000000000004      51.704999999999998
    32   1      5.7450000000000037      53.619999999999997      51.704999999999998
    33   1      5.7450000000000037      55.535000000000004      49.789999999999999
    34   1      3.8299999999999983      53.619999999999997      53.619999999999997
    35   1      3.8299999999999983      55.535000000000004      55.535000000000004
    36   1      5.7450000000000037      53.619999999999997      55.535000000000004
    37   1      5.7450000000000037      55.535000000000004      53.619999999999997
    38   1      3.8299999999999983      53.619999999999997      57.449999999999996
    39   1      3.8299999999999983      55.535000000000004      59.364999999999995
    40   1      5.7450000000000037      53.619999999999997      59.364999999999995
    41   1      5.7450000000000037      55.535000000000004      57.449999999999996
    42   1      3.8299999999999983      53.619999999999997      61.279999999999994
    43   1      3.8299999999999983      55.535000000000004      63.195000000000007
    44   1      5.7450000000000037      53.619999999999997      63.195000000000007
    45   1      5.7450000000000037      55.535000000000004      61.279999999999994
    46   1      5.7450000000000037      55.535000000000004      65.109999999999999
    47   1      3.8299999999999983      59.364999999999995      51.704999999999998
    48   1      5.7450000000000037      57.449999999999996      51.704999999999998
    49   1      5.7450000000000037      59.364999999999995      49.789999999999999
    50   1      3.8299999999999983      57.449999999999996      53.619999999999997
    51   1      3.8299999999999983      59.364999999999995      55.535000000000004
    52   1      5.7450000000000037      57.449999999999996      55.535000000000004
    53   1      5.7450000000000037      59.364999999999995      53.619999999999997
    54   1      3.8299999999999983      57.449999999999996      57.449999999999996
    55   1      3.8299999999999983      59.364999999999995      59.364999999999995
    56   1      5.7450000000000037      57.449999999999996      59.364999999999995
    57   1      5.7450000000000037      59.364999999999995      57.449999999999996
    58   1      3.8299999999999983      57.449999999999996      61.279999999999994
    59   1      3.8299999999999983      59.364999999999995      63.195000000000007
    60   1      5.7450000000000037      57.449999999999996      63.195000000000007
    61   1      5.7450000000000037      59.364999999999995      61.279999999999994
    62   1      5.7450000000000037      59.364999999999995      65.109999999999999
    63   1      3.8299999999999983      63.195000000000007      51.704999999999998
    64   1      5.7450000000000037      61.279999999999994      51.704999999999998
    65   1      5.7450000000000037      63.195000000000007      49.789999999999999
    66   1      3.8299999999999983      61.279999999999994      53.619999999999997
    67   1      3.8299999999999983      63.195000000000007      55.535000000000004
    68   1      5.7450000000000037      61.279999999999994      55.535000000000004
    69   1      5.7450000000000037      63.195000000000007      53.619999999999997
    70   1      3.8299999999999983      61.279999999999994      57.449999999999996
    71   1      3.8299999999999983      63.195000000000007      59.364999999999995
    72   1      5.7450000000000037      61.279999999999994      59.364999999999995
    73   1      5.7450000000000037      63.195000000000007      57.449999999999996
    74   1      3.8299999999999983      61.279999999999994      61.279999999999994
    75   1      3.8299999999999983      63.195000000000007      63.195000000000007
    76   1      5.7450000000000037      61.279999999999994      63.195000000000007
    77   1      5.7450000000000037      63.195000000000007      61.279999999999994
    78   1      5.7450000000000037      63.195000000000007      65.109999999999999
    79   1      5.7450000000000037      65.109999999999999      51.704999999999998
    80   1      5.7450000000000037      65.109999999999999      55.535000000000004
    81   1      5.7450000000000037      65.109999999999999      59.364999999999995
    82   1      5.7450000000000037      65.109999999999999      63.195000000000007
    83   1      7.6600000000000028                  47.875                  47.875
    84   1      9.5750000000000028      45.960000000000001                  47.875
    85   1      9.5750000000000028                  47.875      45.960000000000001
    86   1      7.6600000000000028                  47.875      51.704999999999998
    87   1      9.5750000000000028      45.960000000000001      51.704999999999998
    88   1      9.5750000000000028                  47.875      49.789999999999999
    89   1      7.6600000000000028                  47.875      55.535000000000004
    90   1      9.5750000000000028      45.960000000000001      55.535000000000004
    91   1      9.5750000000000028                  47.875      53.619999999999997
    92   1      7.6600000000000028                  47.875      59.364999999999995
    93   1      9.5750000000000028      45.960000000000001      59.364999999999995
    94   1      9.5750000000000028                  47.875      57.449999999999996
    95   1      7.6600000000000028                  47.875      63.195000000000007
    96   1      9.5750000000000028      45.960000000000001      63.195000000000007
    97   1      9.5750000000000028                  47.875      61.279999999999994
    98   1      7.6600000000000028                  47.875      67.024999999999991
    99   1      9.5750000000000028      45.960000000000001      67.024999999999991
   100   1      9.5750000000000028                  47.875      65.109999999999999
   101   1      9.5750000000000028                  47.875      68.939999999999998
   102   1      7.6600000000000028      51.704999999999998                  47.875
   103   1      9.5750000000000028      49.789999999999999                  47.875
   104   1      9.5750000000000028      51.704999999999998      45.960000000000001
   105   1      7.6600000000000028      49.789999999999999      49.789999999999999
   106   1      7.6600000000000028      51.704999999999998      51.704999999999998
   107   1      9.5750000000000028      49.789999999999999      51.704999999999998
   108   1      9.5750000000000028      51.704999999999998      49.789999999999999
   109   1      7.6600000000000028      49.789999999999999      53.619999999999997
   110   1      7.6600000000000028      51.704999999999998      55.535000000000004
   111   1      9.5750000000000028      49.789999999999999      55.535000000000004
   112   1      9.5750000000000028      51.704999999999998      53.619999999999997
   113   1      7.6600000000000028      49.789999999999999      57.449999999999996
   114   1      7.6600000000000028      51.704999999999998      59.364999999999995
   115   1      9.5750000000000028      49.789999999999999      59.364999999999995
   116   1      9.5750000000000028      51.704999999999998      57.449999999999996
   117   1      7.6600000000000028      49.789999999999999      61.279999999999994
   118   1      7.6600000000000028      51.704999999999998      63.195000000000007
   119   1      9.5750000000000028      49.789999999999999      63.195000000000007
   120   1      9.5750000000000028      51.704999999999998      61.279999999999994
   121   1      7.6600000000000028      49.789999999999999      65.109999999999999
   122   1      7.6600000000000028      51.704999999999998      67.024999999999991
   123   1      9.5750000000000028      49.789999999999999      67.024999999999991
   124   1      9.5750000000000028      51.704999999999998      65.109999999999999
   125   1      9.5750000000000028      51.704999999999998      68.939999999999998
   126   1      7.6600000000000028      55.535000000000004                  47.875
   127   1      9.5750000000000028      53.619999999999997                  47.875
   128   1      9.5750000000000028      55.535000000000004      45.960000000000001
   129   1      7.6600000000000028      53.619999999999997      49.789999999999999
   130   1      7.6600000000000028      55.535000000000004      51.704999999999998
   131   1      9.5750000000000028      53.619999999999997      51.704999999999998
   132   1      9.5750000000000028      55.535000000000004      49.789999999999999
   133   1      7.6600000000000028      53.619999999999997      53.619999999999997
   134   1      7.6600000000000028      55.535000000000004      55.535000000000004
   135   1      9.5750000000000028      53.619999999999997      55.535000000000004
   136   1      9.5750000000000028      55.535000000000004      53.619999999999997
   137   1      7.6600000000000028      53.619999999999997      57.449999999999996
   138   1      7.6600000000000028      55.535000000000004      59.364999999999995
   139   1      9.5750000000000028      53.619999999999997      59.364999999999995
   140   1      9.5750000000000028      55.535000000000004      57.449999999999996
   141   1      7.6600000000000028      53.619999999999997      61.279999999999994
   142   1      7.6600000000000028      55.535000000000004      63.195000000000007
   143   1      9.5750000000000028      53.619999999999997      63.195000000000007
   144   1      9.5750000000000028      55.535000000000004      61.279999999999994
   145   1      7.6600000000000028      53.619999999999997      65.109999999999999
   146   1      7.6600000000000028      55.535000000000004      67.024999999999991
   147   1      9.5750000000000028      53.619999999999997      67.024999999999991
   148   1      9.5750000000000028      55.535000000000004      65.109999999999999
   149   1      9.5750000000000028      55.535000000000004      68.939999999999998
   150   1      7.6600000000000028      59.364999999999995                  47.875
   151   1      9.5750000000000028      57.449999999999996                  47.875
   152   1      9.5750000000000028      59.364999999999995      45.960000000000001
   153   1      7.6600000000000028      57.449999999999996      49.789999999999999
   154   1      7.6600000000000028      59.364999999999995      51.704999999999998
   155   1      9.5750000000000028      57.449999999999996      51.704999999999998
   156   1      9.5750000000000028      59.364999999999995      49.789999999999999
   157   1      7.6600000000000028      57.449999999999996      53.619999999999997
   158   1      7.6600000000000028      59.364999999999995      55.535000000000004
   159   1      9.5750000000000028      57.449999999999996      55.535000000000004
   160   1      9.5750000000000028      59.364999999999995      53.619999999999997
   161   1      7.6600000000000028      57.449999999999996      57.449999999999996
   162   1      7.6600000000000028      59.364999999999995      59.364999999999995
   163   1      9.5750000000000028      57.449999999999996      59.364999999999995
   164   1      9.5750000000000028      59.364999999999995      57.449999999999996
   165   1      7.6600000000000028      57.449999999999996      61.279999999999994
   166   1      7.6600000000000028      59.364999999999995      63.195000000000007
   167   1      9.5750000000000028      57.449999999999996      63.195000000000007
   168   1      9.5750000000000028      59.364999999999995      61.279999999999994
   169   1      7.6600000000000028      57.449999999999996      65.109999999999999
   170   1      7.6600000000000028      59.364999999999995      67.024999999999991
   171   1      9.5750000000000028      57.449999999999996      67.024999999999991
   172   1      9.5750000000000028      59.364999999999995      65.109999999999999
   173   1      9.5750000000000028      59.364999999999995      68.939999999999998
   174   1      7.6600000000000028      63.195000000000007                  47.875
   175   1      9.5750000000000028      61.279999999999994                  47.875
   176   1      9.5750000000000028      63.195000000000007      45.960000000000001
   177   1      7.6600000000000028      61.279999999999994      49.789999999999999
   178   1      7.6600000000000028      63.195000000000007      51.704999999999998
   179   1      9.5750000000000028      61.279999999999994      51.704999999999998
   180   1      9.5750000000000028      63.195000000000007      49.789999999999999
   181   1      7.6600000000000028      61.279999999999994      53.619999999999997
   182   1      7.6600000000000028      63.195000000000007      55.535000000000004
   183   1      9.5750000000000028      61.279999999999994      55.535000000000004
   184   1      9.5750000000000028      63.195000000000007      53.619999999999997
   185   1      7.6600000000000028      61.279999999999994      57.449999999999996
   186   1      7.6600000000000028      63.195000000000007      59.364999999999995
   187   1      9.5750000000000028      61.279999999999994      59.364999999999995
   188   1      9.5750000000000028      63.195000000000007      57.449999999999996
   189   1      7.6600000000000028      61.279999999999994      61.279999999999994
   190   1      7.6600000000000028      63.195000000000007      63.195000000000007
   191   1      9.5750000000000028      61.279999999999994      63.195000000000007
   192   1      9.5750000000000028      63.195000000000007      61.279999999999994
   193   1      7.6600000000000028      61.279999999999994      65.109999999999999
   194   1      7.6600000000000028      63.195000000000007      67.024999999999991
   195   1      9.5750000000000028      61.279999999999994      67.024999999999991
   196   1      9.5750000000000028      63.195000000000007      65.109999999999999
   197   1      9.5750000000000028      63.195000000000007      68.939999999999998
   198   1      7.6600000000000028      67.024999999999991                  47.875
   199   1      9.5750000000000028      65.109999999999999                  47.875
   200   1      9.5750000000000028      67.024999999999991      45.960000000000001
   201   1      7.6600000000000028      65.109999999999999      49.789999999999999
   202   1      7.6600000000000028      67.024999999999991      51.704999999999998
   203   1      9.5750000000000028      65.109999999999999      51.704999999999998
   204   1      9.5750000000000028      67.024999999999991      49.789999999999999
   205   1      7.6600000000000028      65.109999999999999      53.619999999999997
   206   1      7.6600000000000028      67.024999999999991      55.535000000000004
   207   1      9.5750000000000028      65.109999999999999      55.535000000000004
   208   1      9.5750000000000028      67.024999999999991      53.619999999999997
   209   1      7.6600000000000028      65.109999999999999      57.449999999999996
   210   1      7.6600000000000028      67.024999999999991      59.364999999999995
   211   1      9.5750000000000028      65.109999999999999      59.364999999999995
   212   1      9.5750000000000028      67.024999999999991      57.449999999999996
   213   1      7.6600000000000028      65.109999999999999      61.279999999999994
   214   1      7.6600000000000028      67.024999999999991      63.195000000000007
   215   1      9.5750000000000028      65.109999999999999      63.195000000000007
   216   1      9.5750000000000028      67.024999999999991      61.279999999999994
   217   1      7.6600000000000028      65.109999999999999      65.109999999999999
   218   1      7.6600000000000028      67.024999999999991      67.024999999999991
   219   1      9.5750000000000028      65.109999999999999      67.024999999999991
   220   1      9.5750000000000028      67.024999999999991      65.109999999999999
   221   1      9.5750000000000028      67.024999999999991      68.939999999999998
   222   1      9.5750000000000028      68.939999999999998                  47.875
   223   1      9.5750000000000028      68.939999999999998      51.704999999999998
   224   1      9.5750000000000028      68.939999999999998      55.535000000000004
   225   1      9.5750000000000028      68.939999999999998      59.364999999999995
   226   1      9.5750000000000028      68.939999999999998      63.195000000000007
   227   1      9.5750000000000028      68.939999999999998      67.024999999999991
   228   1      11.490000000000002      44.045000000000002      44.045000000000002
   229   1      13.404999999999999      42.130000000000003      44.045000000000002
   230   1      13.404999999999999      44.045000000000002      42.130000000000003
   231   1      11.490000000000002      44.045000000000002                  47.875
   232   1      13.404999999999999      42.130000000000003                  47.875
   233   1      13.404999999999999      44.045000000000002      45.960000000000001
   234   1      11.490000000000002      44.045000000000002      51.704999999999998
   235   1      13.404999999999999      42.130000000000003      51.704999999999998
   236   1      13.404999999999999      44.045000000000002      49.789999999999999
   237   1      11.490000000000002      44.045000000000002      55.535000000000004
   238   1      13.404999999999999      42.130000000000003      55.535000000000004
   239   1      13.404999999999999      44.045000000000002      53.619999999999997
   240   1      11.490000000000002      44.045000000000002      59.364999999999995
   241   1      13.404999999999999      42.130000000000003      59.364999999999995
   242   1      13.404999999999999      44.045000000000002      57.449999999999996
   243   1      11.490000000000002      44.045000000000002      63.195000000000007
   244   1      13.404999999999999      42.130000000000003      63.195000000000007
   245   1      13.404999999999999      44.045000000000002      61.279999999999994
   246   1      11.490000000000002      44.045000000000002      67.024999999999991
   247   1      13.404999999999999      42.130000000000003      67.024999999999991
   248   1      13.404999999999999      44.045000000000002      65.109999999999999
   249   1      11.490000000000002      44.045000000000002       70.85499999999999
   250   1      13.404999999999999      42.130000000000003       70.85499999999999
   251   1      13.404999999999999      44.045000000000002      68.939999999999998
   252   1      13.404999999999999      44.045000000000002      72.769999999999996
   253   1      11.490000000000002                  47.875      44.045000000000002
   254   1      13.404999999999999      45.960000000000001      44.045000000000002
   255   1      13.404999999999999                  47.875      42.130000000000003
   256   1      11.490000000000002      45.960000000000001      45.960000000000001
   257   1      11.490000000000002                  47.875                  47.875
   258   1      13.404999999999999      45.960000000000001                  47.875
   259   1      13.404999999999999                  47.875      45.960000000000001
   260   1      11.490000000000002      45.960000000000001      49.789999999999999
   261   1      11.490000000000002                  47.875      51.704999999999998
   262   1      13.404999999999999      45.960000000000001      51.704999999999998
   263   1      13.404999999999999                  47.875      49.789999999999999
   264   1      11.490000000000002      45.960000000000001      53.619999999999997
   265   1      11.490000000000002                  47.875      55.535000000000004
   266   1      13.404999999999999      45.960000000000001      55.535000000000004
   267   1      13.404999999999999                  47.875      53.619999999999997
   268   1      11.490000000000002      45.960000000000001      57.449999999999996
   269   1      11.490000000000002                  47.875      59.364999999999995
   270   1      13.404999999999999      45.960000000000001      59.364999999999995
   271   1      13.404999999999999                  47.875      57.449999999999996
   272   1      11.490000000000002      45.960000000000001      61.279999999999994
   273   1      11.490000000000002                  47.875      63.195000000000007
   274   1      13.404999999999999      45.960000000000001      63.195000000000007
   275   1      13.404999999999999                  47.875      61.279999999999994
   276   1      11.490000000000002      45.960000000000001      65.109999999999999
   277   1      11.490000000000002                  47.875      67.024999999999991
   278   1      13.404999999999999      45.960000000000001      67.024999999999991
   279   1      13.404999999999999                  47.875      65.109999999999999
   280   1      11.490000000000002      45.960000000000001      68.939999999999998
   281   1      11.490000000000002                  47.875       70.85499999999999
   282   1      13.404999999999999      45.960000000000001       70.85499999999999
   283   1      13.404999999999999                  47.875      68.939999999999998
   284   1      13.404999999999999                  47.875      72.769999999999996
   285   1      11.490000000000002      51.704999999999998      44.045000000000002
   286   1      13.404999999999999      49.789999999999999      44.045000000000002
   287   1      13.404999999999999      51.704999999999998      42.130000000000003
   288   1      11.490000000000002      49.789999999999999      45.960000000000001
   289   1      11.490000000000002      51.704999999999998                  47.875
   290   1      13.404999999999999      49.789999999999999                  47.875
   291   1      13.404999999999999      51.704999999999998      45.960000000000001
   292   1      11.490000000000002      49.789999999999999      49.789999999999999
   293   1      11.490000000000002      51.704999999999998      51.704999999999998
   294   1      13.404999999999999      49.789999999999999      51.704999999999998
   295   1      13.404999999999999      51.704999999999998      49.789999999999999
   296   1      11.490000000000002      49.789999999999999      53.619999999999997
   297   1      11.490000000000002      51.704999999999998      55.535000000000004
   298   1      13.404999999999999      49.789999999999999      55.535000000000004
   299   1      13.404999999999999      51.704999999999998      53.619999999999997
   300   1      11.490000000000002      49.789999999999999      57.449999999999996
   301   1      11.490000000000002      51.704999999999998      59.364999999999995
   302   1      13.404999999999999      49.789999999999999      59.364999999999995
   303   1      13.404999999999999      51.704999999999998      57.449999999999996
   304   1      11.490000000000002      49.789999999999999      61.279999999999994
   305   1      11.490000000000002      51.704999999999998      63.195000000000007
   306   1      13.404999999999999      49.789999999999999      63.195000000000007
   307   1      13.404999999999999      51.704999999999998      61.279999999999994
   308   1      11.490000000000002      49.789999999999999      65.109999999999999
   309   1      11.490000000000002      51.704999999999998      67.024999999999991
   310   1      13.404999999999999      49.789999999999999      67.024999999999991
   311   1      13.404999999999999      51.704999999999998      65.109999999999999
   312   1      11.490000000000002      49.789999999999999      68.939999999999998
   313   1      11.490000000000002      51.704999999999998       70.85499999999999
   314   1      13.404999999999999      49.789999999999999       70.85499999999999
   315   1      13.404999999999999      51.704999999999998      68.939999999999998
   316   1      13.404999999999999      51.704999999999998      72.769999999999996
   317   1      11.490000000000002      55.535000000000004      44.045000000000002
   318   1      13.404999999999999      53.619999999999997      44.045000000000002
   319   1      13.404999999999999      55.535000000000004      42.130000000000003
   320   1      11.490000000000002      53.619999999999997      45.960000000000001
   321   1      11.490000000000002      55.535000000000004                  47.875
   322   1      13.404999999999999      53.619999999999997                  47.875
   323   1      13.404999999999999      55.535000000000004      45.960000000000001
   324   1      11.490000000000002      53.619999999999997      49.789999999999999
   325   1      11.490000000000002      55.535000000000004      51.704999999999998
   326   1      13.404999999999999      53.619999999999997      51.704999999999998
   327   1      13.404999999999999      55.535000000000004      49.789999999999999
   328   1      11.490000000000002      53.619999999999997      53.619999999999997
   329   1      11.490000000000002      55.535000000000004      55.535000000000004
   330   1      13.404999999999999      53.619999999999997      55.535000000000004
   331   1      13.404999999999999      55.535000000000004      53.619999999999997
   332   1      11.490000000000002      53.619999999999997      57.449999999999996
   333   1      11.490000000000002      55.535000000000004      59.364999999999995
   334   1      13.404999999999999      53.619999999999997      59.364999999999995
   335   1      13.404999999999999      55.535000000000004      57.449999999999996
   336   1      11.490000000000002      53.619999999999997      61.279999999999994
   337   1      11.490000000000002      55.535000000000004      63.195000000000007
   338   1      13.404999999999999      53.619999999999997      63.195000000000007
   339   1      13.404999999999999      55.535000000000004      61.279999999999994
   340   1      11.490000000000002      53.619999999999997      65.109999999999999
   341   1      11.490000000000002      55.535000000000004      67.024999999999991
   342   1      13.404999999999999      53.619999999999997      67.024999999999991
   343   1      13.404999999999999      55.535000000000004      65.109999999999999
   344   1      11.490000000000002      53.619999999999997      68.939999999999998
   345   1      11.490000000000002      55.535000000000004       70.85499999999999
   346   1      13.404999999999999      53.619999999999997       70.85499999999999
   347   1      13.404999999999999      55.535000000000004      68.939999999999998
   348   1      13.404999999999999      55.535000000000004      72.769999999999996
   349   1      11.490000000000002      59.364999999999995      44.045000000000002
   350   1      13.404999999999999      57.449999999999996      44.045000000000002
   351   1      13.404999999999999      59.364999999999995      42.130000000000003
   352   1      11.490000000000002      57.449999999999996      45.960000000000001
   353   1      11.490000000000002      59.364999999999995                  47.875
   354   1      13.404999999999999      57.449999999999996                  47.875
   355   1      13.404999999999999      59.364999999999995      45.960000000000001
   356   1      11.490000000000002      57.449999999999996      49.789999999999999
   357   1      11.490000000000002      59.364999999999995      51.704999999999998
   358   1      13.404999999999999      57.449999999999996      51.704999999999998