model_files/CuNi/CuNi_30000/CuNi_320/CuNi_320_fcc_29879_temp.data (written by ASE) 

29879 	 atoms 
2  atom types
0.0                      92  xlo xhi
0.0                      92  ylo yhi
0.0                      92  zlo zhi


Atoms 

     1   1      1.7830000000000013                  41.009      42.792000000000002
     2   1      1.7830000000000013                  41.009      46.358000000000004
     3   1      1.7830000000000013                  41.009      49.923999999999992
     4   1      1.7830000000000013      42.792000000000002                  41.009
     5   1                       0      42.792000000000002      42.792000000000002
     6   1                       0      44.575000000000003      44.575000000000003
     7   1      1.7830000000000013      42.792000000000002      44.575000000000003
     8   1      1.7830000000000013      44.575000000000003      42.792000000000002
     9   1                       0      42.792000000000002      46.358000000000004
    10   1                       0      44.575000000000003      48.140999999999998
    11   1      1.7830000000000013      42.792000000000002      48.140999999999998
    12   1      1.7830000000000013      44.575000000000003      46.358000000000004
    13   1                       0      42.792000000000002      49.923999999999992
    14   1      1.7830000000000013      42.792000000000002      51.707000000000001
    15   1      1.7830000000000013      44.575000000000003      49.923999999999992
    16   1      1.7830000000000013      46.358000000000004                  41.009
    17   1                       0      46.358000000000004      42.792000000000002
    18   1                       0      48.140999999999998      44.575000000000003
    19   1      1.7830000000000013      46.358000000000004      44.575000000000003
    20   1      1.7830000000000013      48.140999999999998      42.792000000000002
    21   1                       0      46.358000000000004      46.358000000000004
    22   1                       0      48.140999999999998      48.140999999999998
    23   1      1.7830000000000013      46.358000000000004      48.140999999999998
    24   1      1.7830000000000013      48.140999999999998      46.358000000000004
    25   1                       0      46.358000000000004      49.923999999999992
    26   1      1.7830000000000013      46.358000000000004      51.707000000000001
    27   1      1.7830000000000013      48.140999999999998      49.923999999999992
    28   1      1.7830000000000013      49.923999999999992                  41.009
    29   1                       0      49.923999999999992      42.792000000000002
    30   1      1.7830000000000013      49.923999999999992      44.575000000000003
    31   1      1.7830000000000013      51.707000000000001      42.792000000000002
    32   1                       0      49.923999999999992      46.358000000000004
    33   1      1.7830000000000013      49.923999999999992      48.140999999999998
    34   1      1.7830000000000013      51.707000000000001      46.358000000000004
    35   1                       0      49.923999999999992      49.923999999999992
    36   1      1.7830000000000013      49.923999999999992      51.707000000000001
    37   1      1.7830000000000013      51.707000000000001      49.923999999999992
    38   1      3.5659999999999954      37.443000000000005      37.443000000000005
    39   1      5.3489999999999966      35.660000000000004      37.443000000000005
    40   1      5.3489999999999966      37.443000000000005      35.660000000000004
    41   1      3.5659999999999954      37.443000000000005                  41.009
    42   1      5.3489999999999966      35.660000000000004                  41.009
    43   1      5.3489999999999966      37.443000000000005      39.225999999999999
    44   1      3.5659999999999954      37.443000000000005      44.575000000000003
    45   1      5.3489999999999966      35.660000000000004      44.575000000000003
    46   1      5.3489999999999966      37.443000000000005      42.792000000000002
    47   1      3.5659999999999954      37.443000000000005      48.140999999999998
    48   1      5.3489999999999966      35.660000000000004      48.140999999999998
    49   1      5.3489999999999966      37.443000000000005      46.358000000000004
    50   1      3.5659999999999954      37.443000000000005      51.707000000000001
    51   1      5.3489999999999966      35.660000000000004      51.707000000000001
    52   1      5.3489999999999966      37.443000000000005      49.923999999999992
    53   1      3.5659999999999954      37.443000000000005      55.273000000000003
    54   1      5.3489999999999966      35.660000000000004      55.273000000000003
    55   1      5.3489999999999966      37.443000000000005      53.489999999999995
    56   1      5.3489999999999966      37.443000000000005      57.055999999999997
    57   1      3.5659999999999954                  41.009      37.443000000000005
    58   1      5.3489999999999966      39.225999999999999      37.443000000000005
    59   1      5.3489999999999966                  41.009      35.660000000000004
    60   1      3.5659999999999954      39.225999999999999      39.225999999999999
    61   1      3.5659999999999954                  41.009                  41.009
    62   1      5.3489999999999966      39.225999999999999                  41.009
    63   1      5.3489999999999966                  41.009      39.225999999999999
    64   1      3.5659999999999954      39.225999999999999      42.792000000000002
    65   1      3.5659999999999954                  41.009      44.575000000000003
    66   1      5.3489999999999966      39.225999999999999      44.575000000000003
    67   1      5.3489999999999966                  41.009      42.792000000000002
    68   1      3.5659999999999954      39.225999999999999      46.358000000000004
    69   1      3.5659999999999954                  41.009      48.140999999999998
    70   1      5.3489999999999966      39.225999999999999      48.140999999999998
    71   1      5.3489999999999966                  41.009      46.358000000000004
    72   1      3.5659999999999954      39.225999999999999      49.923999999999992
    73   1      3.5659999999999954                  41.009      51.707000000000001
    74   1      5.3489999999999966      39.225999999999999      51.707000000000001
    75   1      5.3489999999999966                  41.009      49.923999999999992
    76   1      3.5659999999999954      39.225999999999999      53.489999999999995
    77   1      3.5659999999999954                  41.009      55.273000000000003
    78   1      5.3489999999999966      39.225999999999999      55.273000000000003
    79   1      5.3489999999999966                  41.009      53.489999999999995
    80   1      5.3489999999999966                  41.009      57.055999999999997
    81   1      3.5659999999999954      44.575000000000003      37.443000000000005
    82   1      5.3489999999999966      42.792000000000002      37.443000000000005
    83   1      5.3489999999999966      44.575000000000003      35.660000000000004
    84   1      3.5659999999999954      42.792000000000002      39.225999999999999
    85   1      3.5659999999999954      44.575000000000003                  41.009
    86   1      5.3489999999999966      42.792000000000002                  41.009
    87   1      5.3489999999999966      44.575000000000003      39.225999999999999
    88   1      3.5659999999999954      42.792000000000002      42.792000000000002
    89   1      3.5659999999999954      44.575000000000003      44.575000000000003
    90   1      5.3489999999999966      42.792000000000002      44.575000000000003
    91   1      5.3489999999999966      44.575000000000003      42.792000000000002
    92   1      3.5659999999999954      42.792000000000002      46.358000000000004
    93   1      3.5659999999999954      44.575000000000003      48.140999999999998
    94   1      5.3489999999999966      42.792000000000002      48.140999999999998
    95   1      5.3489999999999966      44.575000000000003      46.358000000000004
    96   1      3.5659999999999954      42.792000000000002      49.923999999999992
    97   1      3.5659999999999954      44.575000000000003      51.707000000000001
    98   1      5.3489999999999966      42.792000000000002      51.707000000000001
    99   1      5.3489999999999966      44.575000000000003      49.923999999999992
   100   1      3.5659999999999954      42.792000000000002      53.489999999999995
   101   1      3.5659999999999954      44.575000000000003      55.273000000000003
   102   1      5.3489999999999966      42.792000000000002      55.273000000000003
   103   1      5.3489999999999966      44.575000000000003      53.489999999999995
   104   1      5.3489999999999966      44.575000000000003      57.055999999999997
   105   1      3.5659999999999954      48.140999999999998      37.443000000000005
   106   1      5.3489999999999966      46.358000000000004      37.443000000000005
   107   1      5.3489999999999966      48.140999999999998      35.660000000000004
   108   1      3.5659999999999954      46.358000000000004      39.225999999999999
   109   1      3.5659999999999954      48.140999999999998                  41.009
   110   1      5.3489999999999966      46.358000000000004                  41.009
   111   1      5.3489999999999966      48.140999999999998      39.225999999999999
   112   1      3.5659999999999954      46.358000000000004      42.792000000000002
   113   1      3.5659999999999954      48.140999999999998      44.575000000000003
   114   1      5.3489999999999966      46.358000000000004      44.575000000000003
   115   1      5.3489999999999966      48.140999999999998      42.792000000000002
   116   1      3.5659999999999954      46.358000000000004      46.358000000000004
   117   1      3.5659999999999954      48.140999999999998      48.140999999999998
   118   1      5.3489999999999966      46.358000000000004      48.140999999999998
   119   1      5.3489999999999966      48.140999999999998      46.358000000000004
   120   1      3.5659999999999954      46.358000000000004      49.923999999999992
   121   1      3.5659999999999954      48.140999999999998      51.707000000000001
   122   1      5.3489999999999966      46.358000000000004      51.707000000000001
   123   1      5.3489999999999966      48.140999999999998      49.923999999999992
   124   1      3.5659999999999954      46.358000000000004      53.489999999999995
   125   1      3.5659999999999954      48.140999999999998      55.273000000000003
   126   1      5.3489999999999966      46.358000000000004      55.273000000000003
   127   1      5.3489999999999966      48.140999999999998      53.489999999999995
   128   1      5.3489999999999966      48.140999999999998      57.055999999999997
   129   1      3.5659999999999954      51.707000000000001      37.443000000000005
   130   1      5.3489999999999966      49.923999999999992      37.443000000000005
   131   1      5.3489999999999966      51.707000000000001      35.660000000000004
   132   1      3.5659999999999954      49.923999999999992      39.225999999999999
   133   1      3.5659999999999954      51.707000000000001                  41.009
   134   1      5.3489999999999966      49.923999999999992                  41.009
   135   1      5.3489999999999966      51.707000000000001      39.225999999999999
   136   1      3.5659999999999954      49.923999999999992      42.792000000000002
   137   1      3.5659999999999954      51.707000000000001      44.575000000000003
   138   1      5.3489999999999966      49.923999999999992      44.575000000000003
   139   1      5.3489999999999966      51.707000000000001      42.792000000000002
   140   1      3.5659999999999954      49.923999999999992      46.358000000000004
   141   1      3.5659999999999954      51.707000000000001      48.140999999999998
   142   1      5.3489999999999966      49.923999999999992      48.140999999999998
   143   1      5.3489999999999966      51.707000000000001      46.358000000000004
   144   1      3.5659999999999954      49.923999999999992      49.923999999999992
   145   1      3.5659999999999954      51.707000000000001      51.707000000000001
   146   1      5.3489999999999966      49.923999999999992      51.707000000000001
   147   1      5.3489999999999966      51.707000000000001      49.923999999999992
   148   1      3.5659999999999954      49.923999999999992      53.489999999999995
   149   1      3.5659999999999954      51.707000000000001      55.273000000000003
   150   1      5.3489999999999966      49.923999999999992      55.273000000000003
   151   1      5.3489999999999966      51.707000000000001      53.489999999999995
   152   1      5.3489999999999966      51.707000000000001      57.055999999999997
   153   1      3.5659999999999954      55.273000000000003      37.443000000000005
   154   1      5.3489999999999966      53.489999999999995      37.443000000000005
   155   1      5.3489999999999966      55.273000000000003      35.660000000000004
   156   1      3.5659999999999954      53.489999999999995      39.225999999999999
   157   1      3.5659999999999954      55.273000000000003                  41.009
   158   1      5.3489999999999966      53.489999999999995                  41.009
   159   1      5.3489999999999966      55.273000000000003      39.225999999999999
   160   1      3.5659999999999954      53.489999999999995      42.792000000000002
   161   1      3.5659999999999954      55.273000000000003      44.575000000000003
   162   1      5.3489999999999966      53.489999999999995      44.575000000000003
   163   1      5.3489999999999966      55.273000000000003      42.792000000000002
   164   1      3.5659999999999954      53.489999999999995      46.358000000000004
   165   1      3.5659999999999954      55.273000000000003      48.140999999999998
   166   1      5.3489999999999966      53.489999999999995      48.140999999999998
   167   1      5.3489999999999966      55.273000000000003      46.358000000000004
   168   1      3.5659999999999954      53.489999999999995      49.923999999999992
   169   1      3.5659999999999954      55.273000000000003      51.707000000000001
   170   1      5.3489999999999966      53.489999999999995      51.707000000000001
   171   1      5.3489999999999966      55.273000000000003      49.923999999999992
   172   1      3.5659999999999954      53.489999999999995      53.489999999999995
   173   1      3.5659999999999954      55.273000000000003      55.273000000000003
   174   1      5.3489999999999966      53.489999999999995      55.273000000000003
   175   1      5.3489999999999966      55.273000000000003      53.489999999999995
   176   1      5.3489999999999966      55.273000000000003      57.055999999999997
   177   1      5.3489999999999966      57.055999999999997      37.443000000000005
   178   1      5.3489999999999966      57.055999999999997                  41.009
   179   1      5.3489999999999966      57.055999999999997      44.575000000000003
   180   1      5.3489999999999966      57.055999999999997      48.140999999999998
   181   1      5.3489999999999966      57.055999999999997      51.707000000000001
   182   1      5.3489999999999966      57.055999999999997      55.273000000000003
   183   1      8.9149999999999991                  30.311      32.094000000000001
   184   1      8.9149999999999991                  30.311      35.660000000000004
   185   1      8.9149999999999991                  30.311      39.225999999999999
   186   1      8.9149999999999991                  30.311      42.792000000000002
   187   1      8.9149999999999991                  30.311      46.358000000000004
   188   1      8.9149999999999991                  30.311      49.923999999999992
   189   1      8.9149999999999991                  30.311      53.489999999999995
   190   1      8.9149999999999991                  30.311      57.055999999999997
   191   1      8.9149999999999991                  30.311                  60.622
   192   1      8.9149999999999991      32.094000000000001                  30.311
   193   1       7.131999999999997      32.094000000000001      32.094000000000001
   194   1       7.131999999999997      33.877000000000002      33.877000000000002
   195   1      8.9149999999999991      32.094000000000001      33.877000000000002
   196   1      8.9149999999999991      33.877000000000002      32.094000000000001
   197   1       7.131999999999997      32.094000000000001      35.660000000000004
   198   1       7.131999999999997      33.877000000000002      37.443000000000005
   199   1      8.9149999999999991      32.094000000000001      37.443000000000005
   200   1      8.9149999999999991      33.877000000000002      35.660000000000004
   201   1       7.131999999999997      32.094000000000001      39.225999999999999
   202   1       7.131999999999997      33.877000000000002                  41.009
   203   1      8.9149999999999991      32.094000000000001                  41.009
   204   1      8.9149999999999991      33.877000000000002      39.225999999999999
   205   1       7.131999999999997      32.094000000000001      42.792000000000002
   206   1       7.131999999999997      33.877000000000002      44.575000000000003
   207   1      8.9149999999999991      32.094000000000001      44.575000000000003
   208   1      8.9149999999999991      33.877000000000002      42.792000000000002
   209   1       7.131999999999997      32.094000000000001      46.358000000000004
   210   1       7.131999999999997      33.877000000000002      48.140999999999998
   211   1      8.9149999999999991      32.094000000000001      48.140999999999998
   212   1      8.9149999999999991      33.877000000000002      46.358000000000004
   213   1       7.131999999999997      32.094000000000001      49.923999999999992
   214   1       7.131999999999997      33.877000000000002      51.707000000000001
   215   1      8.9149999999999991      32.094000000000001      51.707000000000001
   216   1      8.9149999999999991      33.877000000000002      49.923999999999992
   217   1       7.131999999999997      32.094000000000001      53.489999999999995
   218   1       7.131999999999997      33.877000000000002      55.273000000000003
   219   1      8.9149999999999991      32.094000000000001      55.273000000000003
   220   1      8.9149999999999991      33.877000000000002      53.489999999999995
   221   1       7.131999999999997      32.094000000000001      57.055999999999997
   222   1       7.131999999999997      33.877000000000002      58.839000000000006
   223   1      8.9149999999999991      32.094000000000001      58.839000000000006
   224   1      8.9149999999999991      33.877000000000002      57.055999999999997
   225   1       7.131999999999997      32.094000000000001                  60.622
   226   1      8.9149999999999991      32.094000000000001      62.404999999999994
   227   1      8.9149999999999991      33.877000000000002                  60.622
   228   1      8.9149999999999991      35.660000000000004                  30.311
   229   1       7.131999999999997      35.660000000000004      32.094000000000001
   230   1       7.131999999999997      37.443000000000005      33.877000000000002
   231   1      8.9149999999999991      35.660000000000004      33.877000000000002
   232   1      8.9149999999999991      37.443000000000005      32.094000000000001
   233   1       7.131999999999997      35.660000000000004      35.660000000000004
   234   1       7.131999999999997      37.443000000000005      37.443000000000005
   235   1      8.9149999999999991      35.660000000000004      37.443000000000005
   236   1      8.9149999999999991      37.443000000000005      35.660000000000004
   237   1       7.131999999999997      35.660000000000004      39.225999999999999
   238   1       7.131999999999997      37.443000000000005                  41.009
   239   1      8.9149999999999991      35.660000000000004                  41.009
   240   1      8.9149999999999991      37.443000000000005      39.225999999999999
   241   1       7.131999999999997      35.660000000000004      42.792000000000002
   242   1       7.131999999999997      37.443000000000005      44.575000000000003
   243   1      8.9149999999999991      35.660000000000004      44.575000000000003
   244   1      8.9149999999999991      37.443000000000005      42.792000000000002
   245   1       7.131999999999997      35.660000000000004      46.358000000000004
   246   1       7.131999999999997      37.443000000000005      48.140999999999998
   247   1      8.9149999999999991      35.660000000000004      48.140999999999998
   248   1      8.9149999999999991      37.443000000000005      46.358000000000004
   249   1       7.131999999999997      35.660000000000004      49.923999999999992
   250   1       7.131999999999997      37.443000000000005      51.707000000000001
   251   1      8.9149999999999991      35.660000000000004      51.707000000000001
   252   1      8.9149999999999991      37.443000000000005      49.923999999999992
   253   1       7.131999999999997      35.660000000000004      53.489999999999995
   254   1       7.131999999999997      37.443000000000005      55.273000000000003
   255   1      8.9149999999999991      35.660000000000004      55.273000000000003
   256   1      8.9149999999999991      37.443000000000005      53.489999999999995
   257   1       7.131999999999997      35.660000000000004      57.055999999999997
   258   1       7.131999999999997      37.443000000000005      58.839000000000006
   259   1      8.9149999999999991      35.660000000000004      58.839000000000006
   260   1      8.9149999999999991      37.443000000000005      57.055999999999997
   261   1       7.131999999999997      35.660000000000004                  60.622
   262   1      8.9149999999999991      35.660000000000004      62.404999999999994
   263   1      8.9149999999999991      37.443000000000005                  60.622
   264   1      8.9149999999999991      39.225999999999999                  30.311
   265   1       7.131999999999997      39.225999999999999      32.094000000000001
   266   1       7.131999999999997                  41.009      33.877000000000002
   267   1      8.9149999999999991      39.225999999999999      33.877000000000002
   268   1      8.9149999999999991                  41.009      32.094000000000001
   269   1       7.131999999999997      39.225999999999999      35.660000000000004
   270   1       7.131999999999997                  41.009      37.443000000000005
   271   1      8.9149999999999991      39.225999999999999      37.443000000000005
   272   1      8.9149999999999991                  41.009      35.660000000000004
   273   1       7.131999999999997      39.225999999999999      39.225999999999999
   274   1       7.131999999999997                  41.009                  41.009
   275   1      8.9149999999999991      39.225999999999999                  41.009
   276   1      8.9149999999999991                  41.009      39.225999999999999
   277   1       7.131999999999997      39.225999999999999      42.792000000000002
   278   1       7.131999999999997                  41.009      44.575000000000003
   279   1      8.9149999999999991      39.225999999999999      44.575000000000003
   280   1      8.9149999999999991                  41.009      42.792000000000002
   281   1       7.131999999999997      39.225999999999999      46.358000000000004
   282   1       7.131999999999997                  41.009      48.140999999999998
   283   1      8.9149999999999991      39.225999999999999      48.140999999999998
   284   1      8.9149999999999991                  41.009      46.358000000000004
   285   1       7.131999999999997      39.225999999999999      49.923999999999992
   286   1       7.131999999999997                  41.009      51.707000000000001
   287   1      8.9149999999999991      39.225999999999999      51.707000000000001
   288   1      8.9149999999999991                  41.009      49.923999999999992
   289   1       7.131999999999997      39.225999999999999      53.489999999999995
   290   1       7.131999999999997                  41.009      55.273000000000003
   291   1      8.9149999999999991      39.225999999999999      55.273000000000003
   292   1      8.9149999999999991                  41.009      53.489999999999995
   293   1       7.131999999999997      39.225999999999999      57.055999999999997
   294   1       7.131999999999997                  41.009      58.839000000000006
   295   1      8.9149999999999991      39.225999999999999      58.839000000000006
   296   1      8.9149999999999991                  41.009      57.055999999999997
   297   1       7.131999999999997      39.225999999999999                  60.622
   298   1      8.9149999999999991      39.225999999999999      62.404999999999994
   299   1      8.9149999999999991                  41.009                  60.622
   300   1      8.9149999999999991      42.792000000000002                  30.311
   301   1       7.131999999999997      42.792000000000002      32.094000000000001
   302   1       7.131999999999997      44.575000000000003      33.877000000000002
   303   1      8.9149999999999991      42.792000000000002      33.877000000000002
   304   1      8.9149999999999991      44.575000000000003      32.094000000000001
   305   1       7.131999999999997      42.792000000000002      35.660000000000004
   306   1       7.131999999999997      44.575000000000003      37.443000000000005
   307   1      8.9149999999999991      42.792000000000002      37.443000000000005
   308   1      8.9149999999999991      44.575000000000003      35.660000000000004
   309   1       7.131999999999997      42.792000000000002      39.225999999999999
   310   1       7.131999999999997      44.575000000000003                  41.009
   311   1      8.9149999999999991      42.792000000000002                  41.009
   312   1      8.9149999999999991      44.575000000000003      39.225999999999999
   313   1       7.131999999999997      42.792000000000002      42.792000000000002
   314   1       7.131999999999997      44.575000000000003      44.575000000000003
   315   1      8.9149999999999991      42.792000000000002      44.575000000000003
   316   1      8.9149999999999991      44.575000000000003      42.792000000000002
   317   1       7.131999999999997      42.792000000000002      46.358000000000004
   318   1       7.131999999999997      44.575000000000003      48.140999999999998
   319   1      8.9149999999999991      42.792000000000002      48.140999999999998
   320   1      8.9149999999999991      44.575000000000003      46.358000000000004
   321   1       7.131999999999997      42.792000000000002      49.923999999999992
   322   1       7.131999999999997      44.575000000000003      51.707000000000001
   323   1      8.9149999999999991      42.792000000000002      51.707000000000001
   324   1      8.9149999999999991      44.575000000000003      49.923999999999992
   325   1       7.131999999999997      42.792000000000002      53.489999999999995
   326   1       7.131999999999997      44.575000000000003      55.273000000000003
   327   1      8.9149999999999991      42.792000000000002      55.273000000000003
   328   1      8.9149999999999991      44.575000000000003      53.489999999999995
   329   1       7.131999999999997      42.792000000000002      57.055999999999997
   330   1       7.131999999999997      44.575000000000003      58.839000000000006
   331   1      8.9149999999999991      42.792000000000002      58.839000000000006
   332   1      8.9149999999999991      44.575000000000003      57.055999999999997
   333   1       7.131999999999997      42.792000000000002                  60.622
   334   1      8.9149999999999991      42.792000000000002      62.404999999999994
   335   1      8.9149999999999991      44.575000000000003                  60.622
   336   1      8.9149999999999991      46.358000000000004                  30.311
   337   1       7.131999999999997      46.358000000000004      32.094000000000001
   338   1       7.131999999999997      48.140999999999998      33.877000000000002
   339   1      8.9149999999999991      46.358000000000004      33.877000000000002
   340   1      8.9149999999999991      48.140999999999998      32.094000000000001
   341   1       7.131999999999997      46.358000000000004      35.660000000000004
   342   1       7.131999999999997      48.140999999999998      37.443000000000005
   343   1      8.9149999999999991      46.358000000000004      37.443000000000005
   344   1      8.9149999999999991      48.140999999999998      35.660000000000004
   345   1       7.131999999999997      46.358000000000004      39.225999999999999
   346   1       7.131999999999997      48.140999999999998                  41.009
   347   1      8.9149999999999991      46.358000000000004                  41.009
   348   1      8.9149999999999991      48.140999999999998      39.225999999999999
   349   1       7.131999999999997      46.358000000000004      42.792000000000002
   350   1       7.131999999999997      48.140999999999998      44.575000000000003
   351   1      8.9149999999999991      46.358000000000004      44.575000000000003
   352   1      8.9149999999999991      48.140999999999998      42.792000000000002
   353   1       7.131999999999997      46.358000000000004      46.358000000000004
   354   1       7.131999999999997      48.140999999999998      48.140999999999998
   355   1      8.9149999999999991      46.358000000000004      48.140999999999998
   356   1      8.9149999999999991      48.140999999999998      46.358000000000004
   357   1       7.131999999999997      46.358000000000004      49.923999999999992
   358   1       7.131999999999997      48.140999999999998      51.707000000000001