model_files/Pt/Pt_10000/Pt_541/data.Pt_541_fcc_10193 (written by ASE) 

10193 	 atoms 
1  atom types
0.0                      78  xlo xhi
0.0                      78  ylo yhi
0.0                      78  zlo zhi


Atoms 

     1   1      1.9600000000000009      35.280000000000001      37.240000000000002
     2   1      1.9600000000000009      37.240000000000002      35.280000000000001
     3   1      1.9600000000000009      35.280000000000001      41.159999999999997
     4   1      1.9600000000000009      37.240000000000002      39.199999999999989
     5   1      1.9600000000000009      37.240000000000002      43.119999999999997
     6   1      1.9600000000000009      39.199999999999989      37.240000000000002
     7   1      1.9600000000000009      41.159999999999997      35.280000000000001
     8   1                       0      39.199999999999989      39.199999999999989
     9   1      1.9600000000000009      39.199999999999989      41.159999999999997
    10   1      1.9600000000000009      41.159999999999997      39.199999999999989
    11   1      1.9600000000000009      41.159999999999997      43.119999999999997
    12   1      1.9600000000000009      43.119999999999997      37.240000000000002
    13   1      1.9600000000000009      43.119999999999997      41.159999999999997
    14   1      5.8800000000000017      31.359999999999999                   33.32
    15   1      5.8800000000000017                   33.32      31.359999999999999
    16   1      3.9199999999999946                   33.32      37.240000000000002
    17   1      5.8800000000000017      31.359999999999999      37.240000000000002
    18   1      5.8800000000000017                   33.32      35.280000000000001
    19   1      3.9199999999999946                   33.32      41.159999999999997
    20   1      5.8800000000000017      31.359999999999999      41.159999999999997
    21   1      5.8800000000000017                   33.32      39.199999999999989
    22   1      5.8800000000000017      31.359999999999999      45.079999999999998
    23   1      5.8800000000000017                   33.32      43.119999999999997
    24   1      5.8800000000000017                   33.32      47.039999999999999
    25   1      3.9199999999999946      37.240000000000002                   33.32
    26   1      5.8800000000000017      35.280000000000001                   33.32
    27   1      5.8800000000000017      37.240000000000002      31.359999999999999
    28   1      3.9199999999999946      35.280000000000001      35.280000000000001
    29   1      3.9199999999999946      37.240000000000002      37.240000000000002
    30   1      5.8800000000000017      35.280000000000001      37.240000000000002
    31   1      5.8800000000000017      37.240000000000002      35.280000000000001
    32   1      3.9199999999999946      35.280000000000001      39.199999999999989
    33   1      3.9199999999999946      37.240000000000002      41.159999999999997
    34   1      5.8800000000000017      35.280000000000001      41.159999999999997
    35   1      5.8800000000000017      37.240000000000002      39.199999999999989
    36   1      3.9199999999999946      35.280000000000001      43.119999999999997
    37   1      3.9199999999999946      37.240000000000002      45.079999999999998
    38   1      5.8800000000000017      35.280000000000001      45.079999999999998
    39   1      5.8800000000000017      37.240000000000002      43.119999999999997
    40   1      5.8800000000000017      37.240000000000002      47.039999999999999
    41   1      3.9199999999999946      41.159999999999997                   33.32
    42   1      5.8800000000000017      39.199999999999989                   33.32
    43   1      5.8800000000000017      41.159999999999997      31.359999999999999
    44   1      3.9199999999999946      39.199999999999989      35.280000000000001
    45   1      3.9199999999999946      41.159999999999997      37.240000000000002
    46   1      5.8800000000000017      39.199999999999989      37.240000000000002
    47   1      5.8800000000000017      41.159999999999997      35.280000000000001
    48   1      3.9199999999999946      39.199999999999989      39.199999999999989
    49   1      3.9199999999999946      41.159999999999997      41.159999999999997
    50   1      5.8800000000000017      39.199999999999989      41.159999999999997
    51   1      5.8800000000000017      41.159999999999997      39.199999999999989
    52   1      3.9199999999999946      39.199999999999989      43.119999999999997
    53   1      3.9199999999999946      41.159999999999997      45.079999999999998
    54   1      5.8800000000000017      39.199999999999989      45.079999999999998
    55   1      5.8800000000000017      41.159999999999997      43.119999999999997
    56   1      5.8800000000000017      41.159999999999997      47.039999999999999
    57   1      5.8800000000000017      43.119999999999997                   33.32
    58   1      5.8800000000000017      45.079999999999998      31.359999999999999
    59   1      3.9199999999999946      43.119999999999997      35.280000000000001
    60   1      3.9199999999999946      45.079999999999998      37.240000000000002
    61   1      5.8800000000000017      43.119999999999997      37.240000000000002
    62   1      5.8800000000000017      45.079999999999998      35.280000000000001
    63   1      3.9199999999999946      43.119999999999997      39.199999999999989
    64   1      3.9199999999999946      45.079999999999998      41.159999999999997
    65   1      5.8800000000000017      43.119999999999997      41.159999999999997
    66   1      5.8800000000000017      45.079999999999998      39.199999999999989
    67   1      3.9199999999999946      43.119999999999997      43.119999999999997
    68   1      5.8800000000000017      43.119999999999997      45.079999999999998
    69   1      5.8800000000000017      45.079999999999998      43.119999999999997
    70   1      5.8800000000000017      45.079999999999998      47.039999999999999
    71   1      5.8800000000000017      47.039999999999999                   33.32
    72   1      5.8800000000000017      47.039999999999999      37.240000000000002
    73   1      5.8800000000000017      47.039999999999999      41.159999999999997
    74   1      5.8800000000000017      47.039999999999999      45.079999999999998
    75   1      9.7999999999999972      25.479999999999997      39.199999999999989
    76   1      9.7999999999999972      27.439999999999994      29.399999999999999
    77   1      9.7999999999999972      29.399999999999999      27.439999999999994
    78   1      7.8399999999999954      29.399999999999999                   33.32
    79   1      9.7999999999999972      27.439999999999994                   33.32
    80   1      9.7999999999999972      29.399999999999999      31.359999999999999
    81   1      7.8399999999999954      29.399999999999999      37.240000000000002
    82   1      9.7999999999999972      27.439999999999994      37.240000000000002
    83   1      9.7999999999999972      29.399999999999999      35.280000000000001
    84   1      7.8399999999999954      27.439999999999994      39.199999999999989
    85   1      7.8399999999999954      29.399999999999999      41.159999999999997
    86   1      9.7999999999999972      27.439999999999994      41.159999999999997
    87   1      9.7999999999999972      29.399999999999999      39.199999999999989
    88   1      7.8399999999999954      29.399999999999999      45.079999999999998
    89   1      9.7999999999999972      27.439999999999994      45.079999999999998
    90   1      9.7999999999999972      29.399999999999999      43.119999999999997
    91   1      9.7999999999999972      27.439999999999994                      49
    92   1      9.7999999999999972      29.399999999999999      47.039999999999999
    93   1      9.7999999999999972      29.399999999999999      50.959999999999994
    94   1      7.8399999999999954                   33.32      29.399999999999999
    95   1      9.7999999999999972      31.359999999999999      29.399999999999999
    96   1      9.7999999999999972                   33.32      27.439999999999994
    97   1      7.8399999999999954      31.359999999999999      31.359999999999999
    98   1      7.8399999999999954                   33.32                   33.32
    99   1      9.7999999999999972      31.359999999999999                   33.32
   100   1      9.7999999999999972                   33.32      31.359999999999999
   101   1      7.8399999999999954      31.359999999999999      35.280000000000001
   102   1      7.8399999999999954                   33.32      37.240000000000002
   103   1      9.7999999999999972      31.359999999999999      37.240000000000002
   104   1      9.7999999999999972                   33.32      35.280000000000001
   105   1      7.8399999999999954      31.359999999999999      39.199999999999989
   106   1      7.8399999999999954                   33.32      41.159999999999997
   107   1      9.7999999999999972      31.359999999999999      41.159999999999997
   108   1      9.7999999999999972                   33.32      39.199999999999989
   109   1      7.8399999999999954      31.359999999999999      43.119999999999997
   110   1      7.8399999999999954                   33.32      45.079999999999998
   111   1      9.7999999999999972      31.359999999999999      45.079999999999998
   112   1      9.7999999999999972                   33.32      43.119999999999997
   113   1      7.8399999999999954      31.359999999999999      47.039999999999999
   114   1      7.8399999999999954                   33.32                      49
   115   1      9.7999999999999972      31.359999999999999                      49
   116   1      9.7999999999999972                   33.32      47.039999999999999
   117   1      9.7999999999999972                   33.32      50.959999999999994
   118   1      7.8399999999999954      37.240000000000002      29.399999999999999
   119   1      9.7999999999999972      35.280000000000001      29.399999999999999
   120   1      9.7999999999999972      37.240000000000002      27.439999999999994
   121   1      7.8399999999999954      35.280000000000001      31.359999999999999
   122   1      7.8399999999999954      37.240000000000002                   33.32
   123   1      9.7999999999999972      35.280000000000001                   33.32
   124   1      9.7999999999999972      37.240000000000002      31.359999999999999
   125   1      7.8399999999999954      35.280000000000001      35.280000000000001
   126   1      7.8399999999999954      37.240000000000002      37.240000000000002
   127   1      9.7999999999999972      35.280000000000001      37.240000000000002
   128   1      9.7999999999999972      37.240000000000002      35.280000000000001
   129   1      7.8399999999999954      35.280000000000001      39.199999999999989
   130   1      7.8399999999999954      37.240000000000002      41.159999999999997
   131   1      9.7999999999999972      35.280000000000001      41.159999999999997
   132   1      9.7999999999999972      37.240000000000002      39.199999999999989
   133   1      7.8399999999999954      35.280000000000001      43.119999999999997
   134   1      7.8399999999999954      37.240000000000002      45.079999999999998
   135   1      9.7999999999999972      35.280000000000001      45.079999999999998
   136   1      9.7999999999999972      37.240000000000002      43.119999999999997
   137   1      7.8399999999999954      35.280000000000001      47.039999999999999
   138   1      7.8399999999999954      37.240000000000002                      49
   139   1      9.7999999999999972      35.280000000000001                      49
   140   1      9.7999999999999972      37.240000000000002      47.039999999999999
   141   1      9.7999999999999972      37.240000000000002      50.959999999999994
   142   1      9.7999999999999972      39.199999999999989      25.479999999999997
   143   1      7.8399999999999954      39.199999999999989      27.439999999999994
   144   1      7.8399999999999954      41.159999999999997      29.399999999999999
   145   1      9.7999999999999972      39.199999999999989      29.399999999999999
   146   1      9.7999999999999972      41.159999999999997      27.439999999999994
   147   1      7.8399999999999954      39.199999999999989      31.359999999999999
   148   1      7.8399999999999954      41.159999999999997                   33.32
   149   1      9.7999999999999972      39.199999999999989                   33.32
   150   1      9.7999999999999972      41.159999999999997      31.359999999999999
   151   1      7.8399999999999954      39.199999999999989      35.280000000000001
   152   1      7.8399999999999954      41.159999999999997      37.240000000000002
   153   1      9.7999999999999972      39.199999999999989      37.240000000000002
   154   1      9.7999999999999972      41.159999999999997      35.280000000000001
   155   1      7.8399999999999954      39.199999999999989      39.199999999999989
   156   1      7.8399999999999954      41.159999999999997      41.159999999999997
   157   1      9.7999999999999972      39.199999999999989      41.159999999999997
   158   1      9.7999999999999972      41.159999999999997      39.199999999999989
   159   1      7.8399999999999954      39.199999999999989      43.119999999999997
   160   1      7.8399999999999954      41.159999999999997      45.079999999999998
   161   1      9.7999999999999972      39.199999999999989      45.079999999999998
   162   1      9.7999999999999972      41.159999999999997      43.119999999999997
   163   1      7.8399999999999954      39.199999999999989      47.039999999999999
   164   1      7.8399999999999954      41.159999999999997                      49
   165   1      9.7999999999999972      39.199999999999989                      49
   166   1      9.7999999999999972      41.159999999999997      47.039999999999999
   167   1      7.8399999999999954      39.199999999999989      50.959999999999994
   168   1      9.7999999999999972      39.199999999999989      52.919999999999987
   169   1      9.7999999999999972      41.159999999999997      50.959999999999994
   170   1      7.8399999999999954      45.079999999999998      29.399999999999999
   171   1      9.7999999999999972      43.119999999999997      29.399999999999999
   172   1      9.7999999999999972      45.079999999999998      27.439999999999994
   173   1      7.8399999999999954      43.119999999999997      31.359999999999999
   174   1      7.8399999999999954      45.079999999999998                   33.32
   175   1      9.7999999999999972      43.119999999999997                   33.32
   176   1      9.7999999999999972      45.079999999999998      31.359999999999999
   177   1      7.8399999999999954      43.119999999999997      35.280000000000001
   178   1      7.8399999999999954      45.079999999999998      37.240000000000002
   179   1      9.7999999999999972      43.119999999999997      37.240000000000002
   180   1      9.7999999999999972      45.079999999999998      35.280000000000001
   181   1      7.8399999999999954      43.119999999999997      39.199999999999989
   182   1      7.8399999999999954      45.079999999999998      41.159999999999997
   183   1      9.7999999999999972      43.119999999999997      41.159999999999997
   184   1      9.7999999999999972      45.079999999999998      39.199999999999989
   185   1      7.8399999999999954      43.119999999999997      43.119999999999997
   186   1      7.8399999999999954      45.079999999999998      45.079999999999998
   187   1      9.7999999999999972      43.119999999999997      45.079999999999998
   188   1      9.7999999999999972      45.079999999999998      43.119999999999997
   189   1      7.8399999999999954      43.119999999999997      47.039999999999999
   190   1      7.8399999999999954      45.079999999999998                      49
   191   1      9.7999999999999972      43.119999999999997                      49
   192   1      9.7999999999999972      45.079999999999998      47.039999999999999
   193   1      9.7999999999999972      45.079999999999998      50.959999999999994
   194   1      9.7999999999999972      47.039999999999999      29.399999999999999
   195   1      9.7999999999999972                      49      27.439999999999994
   196   1      7.8399999999999954      47.039999999999999      31.359999999999999
   197   1      7.8399999999999954                      49                   33.32
   198   1      9.7999999999999972      47.039999999999999                   33.32
   199   1      9.7999999999999972                      49      31.359999999999999
   200   1      7.8399999999999954      47.039999999999999      35.280000000000001
   201   1      7.8399999999999954                      49      37.240000000000002
   202   1      9.7999999999999972      47.039999999999999      37.240000000000002
   203   1      9.7999999999999972                      49      35.280000000000001
   204   1      7.8399999999999954      47.039999999999999      39.199999999999989
   205   1      7.8399999999999954                      49      41.159999999999997
   206   1      9.7999999999999972      47.039999999999999      41.159999999999997
   207   1      9.7999999999999972                      49      39.199999999999989
   208   1      7.8399999999999954      47.039999999999999      43.119999999999997
   209   1      7.8399999999999954                      49      45.079999999999998
   210   1      9.7999999999999972      47.039999999999999      45.079999999999998
   211   1      9.7999999999999972                      49      43.119999999999997
   212   1      7.8399999999999954      47.039999999999999      47.039999999999999
   213   1      9.7999999999999972      47.039999999999999                      49
   214   1      9.7999999999999972                      49      47.039999999999999
   215   1      9.7999999999999972                      49      50.959999999999994
   216   1      9.7999999999999972      50.959999999999994      29.399999999999999
   217   1      9.7999999999999972      50.959999999999994                   33.32
   218   1      9.7999999999999972      50.959999999999994      37.240000000000002
   219   1      7.8399999999999954      50.959999999999994      39.199999999999989
   220   1      9.7999999999999972      50.959999999999994      41.159999999999997
   221   1      9.7999999999999972      52.919999999999987      39.199999999999989
   222   1      9.7999999999999972      50.959999999999994      45.079999999999998
   223   1      9.7999999999999972      50.959999999999994                      49
   224   1      13.719999999999997      21.559999999999999      35.280000000000001
   225   1      13.719999999999997      21.559999999999999      39.199999999999989
   226   1      13.719999999999997      21.559999999999999      43.119999999999997
   227   1      13.719999999999997      23.519999999999996      25.479999999999997
   228   1      13.719999999999997      25.479999999999997      23.519999999999996
   229   1      11.759999999999998      25.479999999999997      29.399999999999999
   230   1      13.719999999999997      23.519999999999996      29.399999999999999
   231   1      13.719999999999997      25.479999999999997      27.439999999999994
   232   1      11.759999999999998      25.479999999999997                   33.32
   233   1      13.719999999999997      23.519999999999996                   33.32
   234   1      13.719999999999997      25.479999999999997      31.359999999999999
   235   1      11.759999999999998      23.519999999999996      35.280000000000001
   236   1      11.759999999999998      25.479999999999997      37.240000000000002
   237   1      13.719999999999997      23.519999999999996      37.240000000000002
   238   1      13.719999999999997      25.479999999999997      35.280000000000001
   239   1      11.759999999999998      23.519999999999996      39.199999999999989
   240   1      11.759999999999998      25.479999999999997      41.159999999999997
   241   1      13.719999999999997      23.519999999999996      41.159999999999997
   242   1      13.719999999999997      25.479999999999997      39.199999999999989
   243   1      11.759999999999998      23.519999999999996      43.119999999999997
   244   1      11.759999999999998      25.479999999999997      45.079999999999998
   245   1      13.719999999999997      23.519999999999996      45.079999999999998
   246   1      13.719999999999997      25.479999999999997      43.119999999999997
   247   1      11.759999999999998      25.479999999999997                      49
   248   1      13.719999999999997      23.519999999999996                      49
   249   1      13.719999999999997      25.479999999999997      47.039999999999999
   250   1      13.719999999999997      23.519999999999996      52.919999999999987
   251   1      13.719999999999997      25.479999999999997      50.959999999999994
   252   1      13.719999999999997      25.479999999999997      54.879999999999988
   253   1      11.759999999999998      29.399999999999999      25.479999999999997
   254   1      13.719999999999997      27.439999999999994      25.479999999999997
   255   1      13.719999999999997      29.399999999999999      23.519999999999996
   256   1      11.759999999999998      27.439999999999994      27.439999999999994
   257   1      11.759999999999998      29.399999999999999      29.399999999999999
   258   1      13.719999999999997      27.439999999999994      29.399999999999999
   259   1      13.719999999999997      29.399999999999999      27.439999999999994
   260   1      11.759999999999998      27.439999999999994      31.359999999999999
   261   1      11.759999999999998      29.399999999999999                   33.32
   262   1      13.719999999999997      27.439999999999994                   33.32
   263   1      13.719999999999997      29.399999999999999      31.359999999999999
   264   1      11.759999999999998      27.439999999999994      35.280000000000001
   265   1      11.759999999999998      29.399999999999999      37.240000000000002
   266   1      13.719999999999997      27.439999999999994      37.240000000000002
   267   1      13.719999999999997      29.399999999999999      35.280000000000001
   268   1      11.759999999999998      27.439999999999994      39.199999999999989
   269   1      11.759999999999998      29.399999999999999      41.159999999999997
   270   1      13.719999999999997      27.439999999999994      41.159999999999997
   271   1      13.719999999999997      29.399999999999999      39.199999999999989
   272   1      11.759999999999998      27.439999999999994      43.119999999999997
   273   1      11.759999999999998      29.399999999999999      45.079999999999998
   274   1      13.719999999999997      27.439999999999994      45.079999999999998
   275   1      13.719999999999997      29.399999999999999      43.119999999999997
   276   1      11.759999999999998      27.439999999999994      47.039999999999999
   277   1      11.759999999999998      29.399999999999999                      49
   278   1      13.719999999999997      27.439999999999994                      49
   279   1      13.719999999999997      29.399999999999999      47.039999999999999
   280   1      11.759999999999998      27.439999999999994      50.959999999999994
   281   1      11.759999999999998      29.399999999999999      52.919999999999987
   282   1      13.719999999999997      27.439999999999994      52.919999999999987
   283   1      13.719999999999997      29.399999999999999      50.959999999999994
   284   1      13.719999999999997      29.399999999999999      54.879999999999988
   285   1      11.759999999999998                   33.32      25.479999999999997
   286   1      13.719999999999997      31.359999999999999      25.479999999999997
   287   1      13.719999999999997                   33.32      23.519999999999996
   288   1      11.759999999999998      31.359999999999999      27.439999999999994
   289   1      11.759999999999998                   33.32      29.399999999999999
   290   1      13.719999999999997      31.359999999999999      29.399999999999999
   291   1      13.719999999999997                   33.32      27.439999999999994
   292   1      11.759999999999998      31.359999999999999      31.359999999999999
   293   1      11.759999999999998                   33.32                   33.32
   294   1      13.719999999999997      31.359999999999999                   33.32
   295   1      13.719999999999997                   33.32      31.359999999999999
   296   1      11.759999999999998      31.359999999999999      35.280000000000001
   297   1      11.759999999999998                   33.32      37.240000000000002
   298   1      13.719999999999997      31.359999999999999      37.240000000000002
   299   1      13.719999999999997                   33.32      35.280000000000001
   300   1      11.759999999999998      31.359999999999999      39.199999999999989
   301   1      11.759999999999998                   33.32      41.159999999999997
   302   1      13.719999999999997      31.359999999999999      41.159999999999997
   303   1      13.719999999999997                   33.32      39.199999999999989
   304   1      11.759999999999998      31.359999999999999      43.119999999999997
   305   1      11.759999999999998                   33.32      45.079999999999998
   306   1      13.719999999999997      31.359999999999999      45.079999999999998
   307   1      13.719999999999997                   33.32      43.119999999999997
   308   1      11.759999999999998      31.359999999999999      47.039999999999999
   309   1      11.759999999999998                   33.32                      49
   310   1      13.719999999999997      31.359999999999999                      49
   311   1      13.719999999999997                   33.32      47.039999999999999
   312   1      11.759999999999998      31.359999999999999      50.959999999999994
   313   1      11.759999999999998                   33.32      52.919999999999987
   314   1      13.719999999999997      31.359999999999999      52.919999999999987
   315   1      13.719999999999997                   33.32      50.959999999999994
   316   1      13.719999999999997                   33.32      54.879999999999988
   317   1      13.719999999999997      35.280000000000001      21.559999999999999
   318   1      11.759999999999998      35.280000000000001      23.519999999999996
   319   1      11.759999999999998      37.240000000000002      25.479999999999997
   320   1      13.719999999999997      35.280000000000001      25.479999999999997
   321   1      13.719999999999997      37.240000000000002      23.519999999999996
   322   1      11.759999999999998      35.280000000000001      27.439999999999994
   323   1      11.759999999999998      37.240000000000002      29.399999999999999
   324   1      13.719999999999997      35.280000000000001      29.399999999999999
   325   1      13.719999999999997      37.240000000000002      27.439999999999994
   326   1      11.759999999999998      35.280000000000001      31.359999999999999
   327   1      11.759999999999998      37.240000000000002                   33.32
   328   1      13.719999999999997      35.280000000000001                   33.32
   329   1      13.719999999999997      37.240000000000002      31.359999999999999
   330   1      11.759999999999998      35.280000000000001      35.280000000000001
   331   1      11.759999999999998      37.240000000000002      37.240000000000002
   332   1      13.719999999999997      35.280000000000001      37.240000000000002
   333   1      13.719999999999997      37.240000000000002      35.280000000000001
   334   1      11.759999999999998      35.280000000000001      39.199999999999989
   335   1      11.759999999999998      37.240000000000002      41.159999999999997
   336   1      13.719999999999997      35.280000000000001      41.159999999999997
   337   1      13.719999999999997      37.240000000000002      39.199999999999989
   338   1      11.759999999999998      35.280000000000001      43.119999999999997
   339   1      11.759999999999998      37.240000000000002      45.079999999999998
   340   1      13.719999999999997      35.280000000000001      45.079999999999998
   341   1      13.719999999999997      37.240000000000002      43.119999999999997
   342   1      11.759999999999998      35.280000000000001      47.039999999999999
   343   1      11.759999999999998      37.240000000000002                      49
   344   1      13.719999999999997      35.280000000000001                      49
   345   1      13.719999999999997      37.240000000000002      47.039999999999999
   346   1      11.759999999999998      35.280000000000001      50.959999999999994
   347   1      11.759999999999998      37.240000000000002      52.919999999999987
   348   1      13.719999999999997      35.280000000000001      52.919999999999987
   349   1      13.719999999999997      37.240000000000002      50.959999999999994
   350   1      11.759999999999998      35.280000000000001      54.879999999999988
   351   1      13.719999999999997      35.280000000000001      56.839999999999989
   352   1      13.719999999999997      37.240000000000002      54.879999999999988
   353   1      13.719999999999997      39.199999999999989      21.559999999999999
   354   1      11.759999999999998      39.199999999999989      23.519999999999996
   355   1      11.759999999999998      41.159999999999997      25.479999999999997
   356   1      13.719999999999997      39.199999999999989      25.479999999999997
   357   1      13.719999999999997      41.159999999999997      23.519999999999996
   358   1      11.759999999999998      39.199999999999989      27.439999999999994