model_files/PdNi/PdNi_30000/PdNi_540/PdNi_540_fcc_29765_temp.data (written by ASE) 

29765 	 atoms 
2  atom types
0.0                     104  xlo xhi
0.0                     104  ylo yhi
0.0                     104  zlo zhi


Atoms 

     1   1  7.1054273576010019e-15      50.287500000000001      50.287500000000001
     2   1      1.8625000000000043      48.425000000000004      50.287500000000001
     3   1      1.8625000000000043      50.287500000000001      48.425000000000004
     4   1  7.1054273576010019e-15      50.287500000000001       54.01250000000001
     5   1      1.8625000000000043      48.425000000000004       54.01250000000001
     6   1      1.8625000000000043      50.287500000000001      52.150000000000013
     7   1      1.8625000000000043      50.287500000000001      55.875000000000014
     8   1  7.1054273576010019e-15       54.01250000000001      50.287500000000001
     9   1      1.8625000000000043      52.150000000000013      50.287500000000001
    10   1      1.8625000000000043       54.01250000000001      48.425000000000004
    11   1  7.1054273576010019e-15      52.150000000000013      52.150000000000013
    12   1  7.1054273576010019e-15       54.01250000000001       54.01250000000001
    13   1      1.8625000000000043      52.150000000000013       54.01250000000001
    14   1      1.8625000000000043       54.01250000000001      52.150000000000013
    15   1      1.8625000000000043       54.01250000000001      55.875000000000014
    16   1      1.8625000000000043      55.875000000000014      50.287500000000001
    17   1      1.8625000000000043      55.875000000000014       54.01250000000001
    18   1      3.7250000000000085      46.562500000000014      46.562500000000014
    19   1      5.5875000000000057      44.700000000000017      46.562500000000014
    20   1      5.5875000000000057      46.562500000000014      44.700000000000017
    21   1      3.7250000000000085      46.562500000000014      50.287500000000001
    22   1      5.5875000000000057      44.700000000000017      50.287500000000001
    23   1      5.5875000000000057      46.562500000000014      48.425000000000004
    24   1      3.7250000000000085      46.562500000000014       54.01250000000001
    25   1      5.5875000000000057      44.700000000000017       54.01250000000001
    26   1      5.5875000000000057      46.562500000000014      52.150000000000013
    27   1      3.7250000000000085      46.562500000000014      57.737500000000011
    28   1      5.5875000000000057      44.700000000000017      57.737500000000011
    29   1      5.5875000000000057      46.562500000000014      55.875000000000014
    30   1      5.5875000000000057      46.562500000000014      59.600000000000009
    31   1      3.7250000000000085      50.287500000000001      46.562500000000014
    32   1      5.5875000000000057      48.425000000000004      46.562500000000014
    33   1      5.5875000000000057      50.287500000000001      44.700000000000017
    34   1      3.7250000000000085      48.425000000000004      48.425000000000004
    35   1      3.7250000000000085      50.287500000000001      50.287500000000001
    36   1      5.5875000000000057      48.425000000000004      50.287500000000001
    37   1      5.5875000000000057      50.287500000000001      48.425000000000004
    38   1      3.7250000000000085      48.425000000000004      52.150000000000013
    39   1      3.7250000000000085      50.287500000000001       54.01250000000001
    40   1      5.5875000000000057      48.425000000000004       54.01250000000001
    41   1      5.5875000000000057      50.287500000000001      52.150000000000013
    42   1      3.7250000000000085      48.425000000000004      55.875000000000014
    43   1      3.7250000000000085      50.287500000000001      57.737500000000011
    44   1      5.5875000000000057      48.425000000000004      57.737500000000011
    45   1      5.5875000000000057      50.287500000000001      55.875000000000014
    46   1      5.5875000000000057      50.287500000000001      59.600000000000009
    47   1      3.7250000000000085       54.01250000000001      46.562500000000014
    48   1      5.5875000000000057      52.150000000000013      46.562500000000014
    49   1      5.5875000000000057       54.01250000000001      44.700000000000017
    50   1      3.7250000000000085      52.150000000000013      48.425000000000004
    51   1      3.7250000000000085       54.01250000000001      50.287500000000001
    52   1      5.5875000000000057      52.150000000000013      50.287500000000001
    53   1      5.5875000000000057       54.01250000000001      48.425000000000004
    54   1      3.7250000000000085      52.150000000000013      52.150000000000013
    55   1      3.7250000000000085       54.01250000000001       54.01250000000001
    56   1      5.5875000000000057      52.150000000000013       54.01250000000001
    57   1      5.5875000000000057       54.01250000000001      52.150000000000013
    58   1      3.7250000000000085      52.150000000000013      55.875000000000014
    59   1      3.7250000000000085       54.01250000000001      57.737500000000011
    60   1      5.5875000000000057      52.150000000000013      57.737500000000011
    61   1      5.5875000000000057       54.01250000000001      55.875000000000014
    62   1      5.5875000000000057       54.01250000000001      59.600000000000009
    63   1      3.7250000000000085      57.737500000000011      46.562500000000014
    64   1      5.5875000000000057      55.875000000000014      46.562500000000014
    65   1      5.5875000000000057      57.737500000000011      44.700000000000017
    66   1      3.7250000000000085      55.875000000000014      48.425000000000004
    67   1      3.7250000000000085      57.737500000000011      50.287500000000001
    68   1      5.5875000000000057      55.875000000000014      50.287500000000001
    69   1      5.5875000000000057      57.737500000000011      48.425000000000004
    70   1      3.7250000000000085      55.875000000000014      52.150000000000013
    71   1      3.7250000000000085      57.737500000000011       54.01250000000001
    72   1      5.5875000000000057      55.875000000000014       54.01250000000001
    73   1      5.5875000000000057      57.737500000000011      52.150000000000013
    74   1      3.7250000000000085      55.875000000000014      55.875000000000014
    75   1      3.7250000000000085      57.737500000000011      57.737500000000011
    76   1      5.5875000000000057      55.875000000000014      57.737500000000011
    77   1      5.5875000000000057      57.737500000000011      55.875000000000014
    78   1      5.5875000000000057      57.737500000000011      59.600000000000009
    79   1      5.5875000000000057      59.600000000000009      46.562500000000014
    80   1      5.5875000000000057      59.600000000000009      50.287500000000001
    81   1      5.5875000000000057      59.600000000000009       54.01250000000001
    82   1      5.5875000000000057      59.600000000000009      57.737500000000011
    83   1      9.3125000000000071      39.112500000000011      40.975000000000009
    84   1      9.3125000000000071      39.112500000000011      44.700000000000017
    85   1      9.3125000000000071      39.112500000000011      48.425000000000004
    86   1      9.3125000000000071      39.112500000000011      52.150000000000013
    87   1      9.3125000000000071      39.112500000000011      55.875000000000014
    88   1      9.3125000000000071      39.112500000000011      59.600000000000009
    89   1      9.3125000000000071      39.112500000000011       63.32500000000001
    90   1      9.3125000000000071      40.975000000000009      39.112500000000011
    91   1      7.4500000000000037      40.975000000000009      40.975000000000009
    92   1      7.4500000000000037      42.837500000000006      42.837500000000006
    93   1      9.3125000000000071      40.975000000000009      42.837500000000006
    94   1      9.3125000000000071      42.837500000000006      40.975000000000009
    95   1      7.4500000000000037      40.975000000000009      44.700000000000017
    96   1      7.4500000000000037      42.837500000000006      46.562500000000014
    97   1      9.3125000000000071      40.975000000000009      46.562500000000014
    98   1      9.3125000000000071      42.837500000000006      44.700000000000017
    99   1      7.4500000000000037      40.975000000000009      48.425000000000004
   100   1      7.4500000000000037      42.837500000000006      50.287500000000001
   101   1      9.3125000000000071      40.975000000000009      50.287500000000001
   102   1      9.3125000000000071      42.837500000000006      48.425000000000004
   103   1      7.4500000000000037      40.975000000000009      52.150000000000013
   104   1      7.4500000000000037      42.837500000000006       54.01250000000001
   105   1      9.3125000000000071      40.975000000000009       54.01250000000001
   106   1      9.3125000000000071      42.837500000000006      52.150000000000013
   107   1      7.4500000000000037      40.975000000000009      55.875000000000014
   108   1      7.4500000000000037      42.837500000000006      57.737500000000011
   109   1      9.3125000000000071      40.975000000000009      57.737500000000011
   110   1      9.3125000000000071      42.837500000000006      55.875000000000014
   111   1      7.4500000000000037      40.975000000000009      59.600000000000009
   112   1      7.4500000000000037      42.837500000000006      61.462500000000006
   113   1      9.3125000000000071      40.975000000000009      61.462500000000006
   114   1      9.3125000000000071      42.837500000000006      59.600000000000009
   115   1      7.4500000000000037      40.975000000000009       63.32500000000001
   116   1      9.3125000000000071      40.975000000000009      65.187500000000014
   117   1      9.3125000000000071      42.837500000000006       63.32500000000001
   118   1      9.3125000000000071      44.700000000000017      39.112500000000011
   119   1      7.4500000000000037      44.700000000000017      40.975000000000009
   120   1      7.4500000000000037      46.562500000000014      42.837500000000006
   121   1      9.3125000000000071      44.700000000000017      42.837500000000006
   122   1      9.3125000000000071      46.562500000000014      40.975000000000009
   123   1      7.4500000000000037      44.700000000000017      44.700000000000017
   124   1      7.4500000000000037      46.562500000000014      46.562500000000014
   125   1      9.3125000000000071      44.700000000000017      46.562500000000014
   126   1      9.3125000000000071      46.562500000000014      44.700000000000017
   127   1      7.4500000000000037      44.700000000000017      48.425000000000004
   128   1      7.4500000000000037      46.562500000000014      50.287500000000001
   129   1      9.3125000000000071      44.700000000000017      50.287500000000001
   130   1      9.3125000000000071      46.562500000000014      48.425000000000004
   131   1      7.4500000000000037      44.700000000000017      52.150000000000013
   132   1      7.4500000000000037      46.562500000000014       54.01250000000001
   133   1      9.3125000000000071      44.700000000000017       54.01250000000001
   134   1      9.3125000000000071      46.562500000000014      52.150000000000013
   135   1      7.4500000000000037      44.700000000000017      55.875000000000014
   136   1      7.4500000000000037      46.562500000000014      57.737500000000011
   137   1      9.3125000000000071      44.700000000000017      57.737500000000011
   138   1      9.3125000000000071      46.562500000000014      55.875000000000014
   139   1      7.4500000000000037      44.700000000000017      59.600000000000009
   140   1      7.4500000000000037      46.562500000000014      61.462500000000006
   141   1      9.3125000000000071      44.700000000000017      61.462500000000006
   142   1      9.3125000000000071      46.562500000000014      59.600000000000009
   143   1      7.4500000000000037      44.700000000000017       63.32500000000001
   144   1      9.3125000000000071      44.700000000000017      65.187500000000014
   145   1      9.3125000000000071      46.562500000000014       63.32500000000001
   146   1      9.3125000000000071      48.425000000000004      39.112500000000011
   147   1      7.4500000000000037      48.425000000000004      40.975000000000009
   148   1      7.4500000000000037      50.287500000000001      42.837500000000006
   149   1      9.3125000000000071      48.425000000000004      42.837500000000006
   150   1      9.3125000000000071      50.287500000000001      40.975000000000009
   151   1      7.4500000000000037      48.425000000000004      44.700000000000017
   152   1      7.4500000000000037      50.287500000000001      46.562500000000014
   153   1      9.3125000000000071      48.425000000000004      46.562500000000014
   154   1      9.3125000000000071      50.287500000000001      44.700000000000017
   155   1      7.4500000000000037      48.425000000000004      48.425000000000004
   156   1      7.4500000000000037      50.287500000000001      50.287500000000001
   157   1      9.3125000000000071      48.425000000000004      50.287500000000001
   158   1      9.3125000000000071      50.287500000000001      48.425000000000004
   159   1      7.4500000000000037      48.425000000000004      52.150000000000013
   160   1      7.4500000000000037      50.287500000000001       54.01250000000001
   161   1      9.3125000000000071      48.425000000000004       54.01250000000001
   162   1      9.3125000000000071      50.287500000000001      52.150000000000013
   163   1      7.4500000000000037      48.425000000000004      55.875000000000014
   164   1      7.4500000000000037      50.287500000000001      57.737500000000011
   165   1      9.3125000000000071      48.425000000000004      57.737500000000011
   166   1      9.3125000000000071      50.287500000000001      55.875000000000014
   167   1      7.4500000000000037      48.425000000000004      59.600000000000009
   168   1      7.4500000000000037      50.287500000000001      61.462500000000006
   169   1      9.3125000000000071      48.425000000000004      61.462500000000006
   170   1      9.3125000000000071      50.287500000000001      59.600000000000009
   171   1      7.4500000000000037      48.425000000000004       63.32500000000001
   172   1      9.3125000000000071      48.425000000000004      65.187500000000014
   173   1      9.3125000000000071      50.287500000000001       63.32500000000001
   174   1      9.3125000000000071      52.150000000000013      39.112500000000011
   175   1      7.4500000000000037      52.150000000000013      40.975000000000009
   176   1      7.4500000000000037       54.01250000000001      42.837500000000006
   177   1      9.3125000000000071      52.150000000000013      42.837500000000006
   178   1      9.3125000000000071       54.01250000000001      40.975000000000009
   179   1      7.4500000000000037      52.150000000000013      44.700000000000017
   180   1      7.4500000000000037       54.01250000000001      46.562500000000014
   181   1      9.3125000000000071      52.150000000000013      46.562500000000014
   182   1      9.3125000000000071       54.01250000000001      44.700000000000017
   183   1      7.4500000000000037      52.150000000000013      48.425000000000004
   184   1      7.4500000000000037       54.01250000000001      50.287500000000001
   185   1      9.3125000000000071      52.150000000000013      50.287500000000001
   186   1      9.3125000000000071       54.01250000000001      48.425000000000004
   187   1      7.4500000000000037      52.150000000000013      52.150000000000013
   188   1      7.4500000000000037       54.01250000000001       54.01250000000001
   189   1      9.3125000000000071      52.150000000000013       54.01250000000001
   190   1      9.3125000000000071       54.01250000000001      52.150000000000013
   191   1      7.4500000000000037      52.150000000000013      55.875000000000014
   192   1      7.4500000000000037       54.01250000000001      57.737500000000011
   193   1      9.3125000000000071      52.150000000000013      57.737500000000011
   194   1      9.3125000000000071       54.01250000000001      55.875000000000014
   195   1      7.4500000000000037      52.150000000000013      59.600000000000009
   196   1      7.4500000000000037       54.01250000000001      61.462500000000006
   197   1      9.3125000000000071      52.150000000000013      61.462500000000006
   198   1      9.3125000000000071       54.01250000000001      59.600000000000009
   199   1      7.4500000000000037      52.150000000000013       63.32500000000001
   200   1      9.3125000000000071      52.150000000000013      65.187500000000014
   201   1      9.3125000000000071       54.01250000000001       63.32500000000001
   202   1      9.3125000000000071      55.875000000000014      39.112500000000011
   203   1      7.4500000000000037      55.875000000000014      40.975000000000009
   204   1      7.4500000000000037      57.737500000000011      42.837500000000006
   205   1      9.3125000000000071      55.875000000000014      42.837500000000006
   206   1      9.3125000000000071      57.737500000000011      40.975000000000009
   207   1      7.4500000000000037      55.875000000000014      44.700000000000017
   208   1      7.4500000000000037      57.737500000000011      46.562500000000014
   209   1      9.3125000000000071      55.875000000000014      46.562500000000014
   210   1      9.3125000000000071      57.737500000000011      44.700000000000017
   211   1      7.4500000000000037      55.875000000000014      48.425000000000004
   212   1      7.4500000000000037      57.737500000000011      50.287500000000001
   213   1      9.3125000000000071      55.875000000000014      50.287500000000001
   214   1      9.3125000000000071      57.737500000000011      48.425000000000004
   215   1      7.4500000000000037      55.875000000000014      52.150000000000013
   216   1      7.4500000000000037      57.737500000000011       54.01250000000001
   217   1      9.3125000000000071      55.875000000000014       54.01250000000001
   218   1      9.3125000000000071      57.737500000000011      52.150000000000013
   219   1      7.4500000000000037      55.875000000000014      55.875000000000014
   220   1      7.4500000000000037      57.737500000000011      57.737500000000011
   221   1      9.3125000000000071      55.875000000000014      57.737500000000011
   222   1      9.3125000000000071      57.737500000000011      55.875000000000014
   223   1      7.4500000000000037      55.875000000000014      59.600000000000009
   224   1      7.4500000000000037      57.737500000000011      61.462500000000006
   225   1      9.3125000000000071      55.875000000000014      61.462500000000006
   226   1      9.3125000000000071      57.737500000000011      59.600000000000009
   227   1      7.4500000000000037      55.875000000000014       63.32500000000001
   228   1      9.3125000000000071      55.875000000000014      65.187500000000014
   229   1      9.3125000000000071      57.737500000000011       63.32500000000001
   230   1      9.3125000000000071      59.600000000000009      39.112500000000011
   231   1      7.4500000000000037      59.600000000000009      40.975000000000009
   232   1      7.4500000000000037      61.462500000000006      42.837500000000006
   233   1      9.3125000000000071      59.600000000000009      42.837500000000006
   234   1      9.3125000000000071      61.462500000000006      40.975000000000009
   235   1      7.4500000000000037      59.600000000000009      44.700000000000017
   236   1      7.4500000000000037      61.462500000000006      46.562500000000014
   237   1      9.3125000000000071      59.600000000000009      46.562500000000014
   238   1      9.3125000000000071      61.462500000000006      44.700000000000017
   239   1      7.4500000000000037      59.600000000000009      48.425000000000004
   240   1      7.4500000000000037      61.462500000000006      50.287500000000001
   241   1      9.3125000000000071      59.600000000000009      50.287500000000001
   242   1      9.3125000000000071      61.462500000000006      48.425000000000004
   243   1      7.4500000000000037      59.600000000000009      52.150000000000013
   244   1      7.4500000000000037      61.462500000000006       54.01250000000001
   245   1      9.3125000000000071      59.600000000000009       54.01250000000001
   246   1      9.3125000000000071      61.462500000000006      52.150000000000013
   247   1      7.4500000000000037      59.600000000000009      55.875000000000014
   248   1      7.4500000000000037      61.462500000000006      57.737500000000011
   249   1      9.3125000000000071      59.600000000000009      57.737500000000011
   250   1      9.3125000000000071      61.462500000000006      55.875000000000014
   251   1      7.4500000000000037      59.600000000000009      59.600000000000009
   252   1      7.4500000000000037      61.462500000000006      61.462500000000006
   253   1      9.3125000000000071      59.600000000000009      61.462500000000006
   254   1      9.3125000000000071      61.462500000000006      59.600000000000009
   255   1      7.4500000000000037      59.600000000000009       63.32500000000001
   256   1      9.3125000000000071      59.600000000000009      65.187500000000014
   257   1      9.3125000000000071      61.462500000000006       63.32500000000001
   258   1      9.3125000000000071       63.32500000000001      39.112500000000011
   259   1      7.4500000000000037       63.32500000000001      40.975000000000009
   260   1      9.3125000000000071       63.32500000000001      42.837500000000006
   261   1      9.3125000000000071      65.187500000000014      40.975000000000009
   262   1      7.4500000000000037       63.32500000000001      44.700000000000017
   263   1      9.3125000000000071       63.32500000000001      46.562500000000014
   264   1      9.3125000000000071      65.187500000000014      44.700000000000017
   265   1      7.4500000000000037       63.32500000000001      48.425000000000004
   266   1      9.3125000000000071       63.32500000000001      50.287500000000001
   267   1      9.3125000000000071      65.187500000000014      48.425000000000004
   268   1      7.4500000000000037       63.32500000000001      52.150000000000013
   269   1      9.3125000000000071       63.32500000000001       54.01250000000001
   270   1      9.3125000000000071      65.187500000000014      52.150000000000013
   271   1      7.4500000000000037       63.32500000000001      55.875000000000014
   272   1      9.3125000000000071       63.32500000000001      57.737500000000011
   273   1      9.3125000000000071      65.187500000000014      55.875000000000014
   274   1      7.4500000000000037       63.32500000000001      59.600000000000009
   275   1      9.3125000000000071       63.32500000000001      61.462500000000006
   276   1      9.3125000000000071      65.187500000000014      59.600000000000009
   277   1      7.4500000000000037       63.32500000000001       63.32500000000001
   278   1      9.3125000000000071       63.32500000000001      65.187500000000014
   279   1      9.3125000000000071      65.187500000000014       63.32500000000001
   280   1      13.037500000000009      35.387500000000003      37.250000000000014
   281   1      13.037500000000009      35.387500000000003      40.975000000000009
   282   1      13.037500000000009      35.387500000000003      44.700000000000017
   283   1      13.037500000000009      35.387500000000003      48.425000000000004
   284   1      13.037500000000009      35.387500000000003      52.150000000000013
   285   1      13.037500000000009      35.387500000000003      55.875000000000014
   286   1      13.037500000000009      35.387500000000003      59.600000000000009
   287   1      13.037500000000009      35.387500000000003       63.32500000000001
   288   1      13.037500000000009      35.387500000000003      67.050000000000011
   289   1      13.037500000000009      37.250000000000014      35.387500000000003
   290   1      11.175000000000004      37.250000000000014      37.250000000000014
   291   1      11.175000000000004      39.112500000000011      39.112500000000011
   292   1      13.037500000000009      37.250000000000014      39.112500000000011
   293   1      13.037500000000009      39.112500000000011      37.250000000000014
   294   1      11.175000000000004      37.250000000000014      40.975000000000009
   295   1      11.175000000000004      39.112500000000011      42.837500000000006
   296   1      13.037500000000009      37.250000000000014      42.837500000000006
   297   1      13.037500000000009      39.112500000000011      40.975000000000009
   298   1      11.175000000000004      37.250000000000014      44.700000000000017
   299   1      11.175000000000004      39.112500000000011      46.562500000000014
   300   1      13.037500000000009      37.250000000000014      46.562500000000014
   301   1      13.037500000000009      39.112500000000011      44.700000000000017
   302   1      11.175000000000004      37.250000000000014      48.425000000000004
   303   1      11.175000000000004      39.112500000000011      50.287500000000001
   304   1      13.037500000000009      37.250000000000014      50.287500000000001
   305   1      13.037500000000009      39.112500000000011      48.425000000000004
   306   1      11.175000000000004      37.250000000000014      52.150000000000013
   307   1      11.175000000000004      39.112500000000011       54.01250000000001
   308   1      13.037500000000009      37.250000000000014       54.01250000000001
   309   1      13.037500000000009      39.112500000000011      52.150000000000013
   310   1      11.175000000000004      37.250000000000014      55.875000000000014
   311   1      11.175000000000004      39.112500000000011      57.737500000000011
   312   1      13.037500000000009      37.250000000000014      57.737500000000011
   313   1      13.037500000000009      39.112500000000011      55.875000000000014
   314   1      11.175000000000004      37.250000000000014      59.600000000000009
   315   1      11.175000000000004      39.112500000000011      61.462500000000006
   316   1      13.037500000000009      37.250000000000014      61.462500000000006
   317   1      13.037500000000009      39.112500000000011      59.600000000000009
   318   1      11.175000000000004      37.250000000000014       63.32500000000001
   319   1      11.175000000000004      39.112500000000011      65.187500000000014
   320   1      13.037500000000009      37.250000000000014      65.187500000000014
   321   1      13.037500000000009      39.112500000000011       63.32500000000001
   322   1      11.175000000000004      37.250000000000014      67.050000000000011
   323   1      13.037500000000009      37.250000000000014      68.912500000000009
   324   1      13.037500000000009      39.112500000000011      67.050000000000011
   325   1      13.037500000000009      40.975000000000009      35.387500000000003
   326   1      11.175000000000004      40.975000000000009      37.250000000000014
   327   1      11.175000000000004      42.837500000000006      39.112500000000011
   328   1      13.037500000000009      40.975000000000009      39.112500000000011
   329   1      13.037500000000009      42.837500000000006      37.250000000000014
   330   1      11.175000000000004      40.975000000000009      40.975000000000009
   331   1      11.175000000000004      42.837500000000006      42.837500000000006
   332   1      13.037500000000009      40.975000000000009      42.837500000000006
   333   1      13.037500000000009      42.837500000000006      40.975000000000009
   334   1      11.175000000000004      40.975000000000009      44.700000000000017
   335   1      11.175000000000004      42.837500000000006      46.562500000000014
   336   1      13.037500000000009      40.975000000000009      46.562500000000014
   337   1      13.037500000000009      42.837500000000006      44.700000000000017
   338   1      11.175000000000004      40.975000000000009      48.425000000000004
   339   1      11.175000000000004      42.837500000000006      50.287500000000001
   340   1      13.037500000000009      40.975000000000009      50.287500000000001
   341   1      13.037500000000009      42.837500000000006      48.425000000000004
   342   1      11.175000000000004      40.975000000000009      52.150000000000013
   343   1      11.175000000000004      42.837500000000006       54.01250000000001
   344   1      13.037500000000009      40.975000000000009       54.01250000000001
   345   1      13.037500000000009      42.837500000000006      52.150000000000013
   346   1      11.175000000000004      40.975000000000009      55.875000000000014
   347   1      11.175000000000004      42.837500000000006      57.737500000000011
   348   1      13.037500000000009      40.975000000000009      57.737500000000011
   349   1      13.037500000000009      42.837500000000006      55.875000000000014
   350   1      11.175000000000004      40.975000000000009      59.600000000000009
   351   1      11.175000000000004      42.837500000000006      61.462500000000006
   352   1      13.037500000000009      40.975000000000009      61.462500000000006
   353   1      13.037500000000009      42.837500000000006      59.600000000000009
   354   1      11.175000000000004      40.975000000000009       63.32500000000001
   355   1      11.175000000000004      42.837500000000006      65.187500000000014
   356   1      13.037500000000009      40.975000000000009      65.187500000000014
   357   1      13.037500000000009      42.837500000000006       63.32500000000001
   358   1      11.175000000000004      40.975000000000009      67.050000000000011