model_files/CuFeNi/CuFeNi_30000/CuFeNi_443/CuFeNi_443_fcc_30115_temp.data (written by ASE) 

30115 	 atoms 
3  atom types
0.0                     131  xlo xhi
0.0                     131  ylo yhi
0.0                     131  zlo zhi


Atoms 

     1   1      1.8999999999999913      62.699999999999989       64.59999999999998
     2   1      1.8999999999999913       64.59999999999998      62.699999999999989
     3   1      130.99999999999997       64.59999999999998       64.59999999999998
     4   1      1.8999999999999913       64.59999999999998      66.499999999999986
     5   1      1.8999999999999913      66.499999999999986       64.59999999999998
     6   1      5.6999999999999886      58.899999999999977       64.59999999999998
     7   1      3.7999999999999901      62.699999999999989      62.699999999999989
     8   1      5.6999999999999886      60.799999999999983      62.699999999999989
     9   1      5.6999999999999886      62.699999999999989      60.799999999999983
    10   1      3.7999999999999901      60.799999999999983       64.59999999999998
    11   1      3.7999999999999901      62.699999999999989      66.499999999999986
    12   1      5.6999999999999886      60.799999999999983      66.499999999999986
    13   1      5.6999999999999886      62.699999999999989       64.59999999999998
    14   1      5.6999999999999886      62.699999999999989      68.399999999999977
    15   1      5.6999999999999886       64.59999999999998      58.899999999999977
    16   1      3.7999999999999901       64.59999999999998      60.799999999999983
    17   1      3.7999999999999901      66.499999999999986      62.699999999999989
    18   1      5.6999999999999886       64.59999999999998      62.699999999999989
    19   1      5.6999999999999886      66.499999999999986      60.799999999999983
    20   1      3.7999999999999901       64.59999999999998       64.59999999999998
    21   1      3.7999999999999901      66.499999999999986      66.499999999999986
    22   1      5.6999999999999886       64.59999999999998      66.499999999999986
    23   1      5.6999999999999886      66.499999999999986       64.59999999999998
    24   1      3.7999999999999901       64.59999999999998      68.399999999999977
    25   1      5.6999999999999886       64.59999999999998      70.299999999999983
    26   1      5.6999999999999886      66.499999999999986      68.399999999999977
    27   1      5.6999999999999886      68.399999999999977      62.699999999999989
    28   1      3.7999999999999901      68.399999999999977       64.59999999999998
    29   1      5.6999999999999886      68.399999999999977      66.499999999999986
    30   1      5.6999999999999886      70.299999999999983       64.59999999999998
    31   1      9.4999999999999858       55.09999999999998       64.59999999999998
    32   1      7.5999999999999872      58.899999999999977      62.699999999999989
    33   1      9.4999999999999858      56.999999999999979      62.699999999999989
    34   1      9.4999999999999858      58.899999999999977      60.799999999999983
    35   1      7.5999999999999872      56.999999999999979       64.59999999999998
    36   1      7.5999999999999872      58.899999999999977      66.499999999999986
    37   1      9.4999999999999858      56.999999999999979      66.499999999999986
    38   1      9.4999999999999858      58.899999999999977       64.59999999999998
    39   1      9.4999999999999858      58.899999999999977      68.399999999999977
    40   1      7.5999999999999872      62.699999999999989      58.899999999999977
    41   1      9.4999999999999858      60.799999999999983      58.899999999999977
    42   1      9.4999999999999858      62.699999999999989      56.999999999999979
    43   1      7.5999999999999872      60.799999999999983      60.799999999999983
    44   1      7.5999999999999872      62.699999999999989      62.699999999999989
    45   1      9.4999999999999858      60.799999999999983      62.699999999999989
    46   1      9.4999999999999858      62.699999999999989      60.799999999999983
    47   1      7.5999999999999872      60.799999999999983       64.59999999999998
    48   1      7.5999999999999872      62.699999999999989      66.499999999999986
    49   1      9.4999999999999858      60.799999999999983      66.499999999999986
    50   1      9.4999999999999858      62.699999999999989       64.59999999999998
    51   1      7.5999999999999872      60.799999999999983      68.399999999999977
    52   1      7.5999999999999872      62.699999999999989      70.299999999999983
    53   1      9.4999999999999858      60.799999999999983      70.299999999999983
    54   1      9.4999999999999858      62.699999999999989      68.399999999999977
    55   1      9.4999999999999858      62.699999999999989      72.199999999999974
    56   1      9.4999999999999858       64.59999999999998       55.09999999999998
    57   1      7.5999999999999872       64.59999999999998      56.999999999999979
    58   1      7.5999999999999872      66.499999999999986      58.899999999999977
    59   1      9.4999999999999858       64.59999999999998      58.899999999999977
    60   1      9.4999999999999858      66.499999999999986      56.999999999999979
    61   1      7.5999999999999872       64.59999999999998      60.799999999999983
    62   1      7.5999999999999872      66.499999999999986      62.699999999999989
    63   1      9.4999999999999858       64.59999999999998      62.699999999999989
    64   1      9.4999999999999858      66.499999999999986      60.799999999999983
    65   1      7.5999999999999872       64.59999999999998       64.59999999999998
    66   1      7.5999999999999872      66.499999999999986      66.499999999999986
    67   1      9.4999999999999858       64.59999999999998      66.499999999999986
    68   1      9.4999999999999858      66.499999999999986       64.59999999999998
    69   1      7.5999999999999872       64.59999999999998      68.399999999999977
    70   1      7.5999999999999872      66.499999999999986      70.299999999999983
    71   1      9.4999999999999858       64.59999999999998      70.299999999999983
    72   1      9.4999999999999858      66.499999999999986      68.399999999999977
    73   1      7.5999999999999872       64.59999999999998      72.199999999999974
    74   1      9.4999999999999858       64.59999999999998       74.09999999999998
    75   1      9.4999999999999858      66.499999999999986      72.199999999999974
    76   1      9.4999999999999858      68.399999999999977      58.899999999999977
    77   1      7.5999999999999872      68.399999999999977      60.799999999999983
    78   1      7.5999999999999872      70.299999999999983      62.699999999999989
    79   1      9.4999999999999858      68.399999999999977      62.699999999999989
    80   1      9.4999999999999858      70.299999999999983      60.799999999999983
    81   1      7.5999999999999872      68.399999999999977       64.59999999999998
    82   1      7.5999999999999872      70.299999999999983      66.499999999999986
    83   1      9.4999999999999858      68.399999999999977      66.499999999999986
    84   1      9.4999999999999858      70.299999999999983       64.59999999999998
    85   1      7.5999999999999872      68.399999999999977      68.399999999999977
    86   1      9.4999999999999858      68.399999999999977      70.299999999999983
    87   1      9.4999999999999858      70.299999999999983      68.399999999999977
    88   1      9.4999999999999858      72.199999999999974      62.699999999999989
    89   1      7.5999999999999872      72.199999999999974       64.59999999999998
    90   1      9.4999999999999858      72.199999999999974      66.499999999999986
    91   1      9.4999999999999858       74.09999999999998       64.59999999999998
    92   1      13.299999999999983      51.299999999999976       64.59999999999998
    93   1      11.399999999999984       55.09999999999998      62.699999999999989
    94   1      13.299999999999983      53.199999999999982      62.699999999999989
    95   1      13.299999999999983       55.09999999999998      60.799999999999983
    96   1      11.399999999999984      53.199999999999982       64.59999999999998
    97   1      11.399999999999984       55.09999999999998      66.499999999999986
    98   1      13.299999999999983      53.199999999999982      66.499999999999986
    99   1      13.299999999999983       55.09999999999998       64.59999999999998
   100   1      13.299999999999983       55.09999999999998      68.399999999999977
   101   1      11.399999999999984      58.899999999999977      58.899999999999977
   102   1      13.299999999999983      56.999999999999979      58.899999999999977
   103   1      13.299999999999983      58.899999999999977      56.999999999999979
   104   1      11.399999999999984      56.999999999999979      60.799999999999983
   105   1      11.399999999999984      58.899999999999977      62.699999999999989
   106   1      13.299999999999983      56.999999999999979      62.699999999999989
   107   1      13.299999999999983      58.899999999999977      60.799999999999983
   108   1      11.399999999999984      56.999999999999979       64.59999999999998
   109   1      11.399999999999984      58.899999999999977      66.499999999999986
   110   1      13.299999999999983      56.999999999999979      66.499999999999986
   111   1      13.299999999999983      58.899999999999977       64.59999999999998
   112   1      11.399999999999984      56.999999999999979      68.399999999999977
   113   1      11.399999999999984      58.899999999999977      70.299999999999983
   114   1      13.299999999999983      56.999999999999979      70.299999999999983
   115   1      13.299999999999983      58.899999999999977      68.399999999999977
   116   1      13.299999999999983      58.899999999999977      72.199999999999974
   117   1      11.399999999999984      62.699999999999989       55.09999999999998
   118   1      13.299999999999983      60.799999999999983       55.09999999999998
   119   1      13.299999999999983      62.699999999999989      53.199999999999982
   120   1      11.399999999999984      60.799999999999983      56.999999999999979
   121   1      11.399999999999984      62.699999999999989      58.899999999999977
   122   1      13.299999999999983      60.799999999999983      58.899999999999977
   123   1      13.299999999999983      62.699999999999989      56.999999999999979
   124   1      11.399999999999984      60.799999999999983      60.799999999999983
   125   1      11.399999999999984      62.699999999999989      62.699999999999989
   126   1      13.299999999999983      60.799999999999983      62.699999999999989
   127   1      13.299999999999983      62.699999999999989      60.799999999999983
   128   1      11.399999999999984      60.799999999999983       64.59999999999998
   129   1      11.399999999999984      62.699999999999989      66.499999999999986
   130   1      13.299999999999983      60.799999999999983      66.499999999999986
   131   1      13.299999999999983      62.699999999999989       64.59999999999998
   132   1      11.399999999999984      60.799999999999983      68.399999999999977
   133   1      11.399999999999984      62.699999999999989      70.299999999999983
   134   1      13.299999999999983      60.799999999999983      70.299999999999983
   135   1      13.299999999999983      62.699999999999989      68.399999999999977
   136   1      11.399999999999984      60.799999999999983      72.199999999999974
   137   1      11.399999999999984      62.699999999999989       74.09999999999998
   138   1      13.299999999999983      60.799999999999983       74.09999999999998
   139   1      13.299999999999983      62.699999999999989      72.199999999999974
   140   1      13.299999999999983      62.699999999999989      75.999999999999972
   141   1      13.299999999999983       64.59999999999998      51.299999999999976
   142   1      11.399999999999984       64.59999999999998      53.199999999999982
   143   1      11.399999999999984      66.499999999999986       55.09999999999998
   144   1      13.299999999999983       64.59999999999998       55.09999999999998
   145   1      13.299999999999983      66.499999999999986      53.199999999999982
   146   1      11.399999999999984       64.59999999999998      56.999999999999979
   147   1      11.399999999999984      66.499999999999986      58.899999999999977
   148   1      13.299999999999983       64.59999999999998      58.899999999999977
   149   1      13.299999999999983      66.499999999999986      56.999999999999979
   150   1      11.399999999999984       64.59999999999998      60.799999999999983
   151   1      11.399999999999984      66.499999999999986      62.699999999999989
   152   1      13.299999999999983       64.59999999999998      62.699999999999989
   153   1      13.299999999999983      66.499999999999986      60.799999999999983
   154   1      11.399999999999984       64.59999999999998       64.59999999999998
   155   1      11.399999999999984      66.499999999999986      66.499999999999986
   156   1      13.299999999999983       64.59999999999998      66.499999999999986
   157   1      13.299999999999983      66.499999999999986       64.59999999999998
   158   1      11.399999999999984       64.59999999999998      68.399999999999977
   159   1      11.399999999999984      66.499999999999986      70.299999999999983
   160   1      13.299999999999983       64.59999999999998      70.299999999999983
   161   1      13.299999999999983      66.499999999999986      68.399999999999977
   162   1      11.399999999999984       64.59999999999998      72.199999999999974
   163   1      11.399999999999984      66.499999999999986       74.09999999999998
   164   1      13.299999999999983       64.59999999999998       74.09999999999998
   165   1      13.299999999999983      66.499999999999986      72.199999999999974
   166   1      11.399999999999984       64.59999999999998      75.999999999999972
   167   1      13.299999999999983       64.59999999999998      77.899999999999977
   168   1      13.299999999999983      66.499999999999986      75.999999999999972
   169   1      13.299999999999983      68.399999999999977       55.09999999999998
   170   1      11.399999999999984      68.399999999999977      56.999999999999979
   171   1      11.399999999999984      70.299999999999983      58.899999999999977
   172   1      13.299999999999983      68.399999999999977      58.899999999999977
   173   1      13.299999999999983      70.299999999999983      56.999999999999979
   174   1      11.399999999999984      68.399999999999977      60.799999999999983
   175   1      11.399999999999984      70.299999999999983      62.699999999999989
   176   1      13.299999999999983      68.399999999999977      62.699999999999989
   177   1      13.299999999999983      70.299999999999983      60.799999999999983
   178   1      11.399999999999984      68.399999999999977       64.59999999999998
   179   1      11.399999999999984      70.299999999999983      66.499999999999986
   180   1      13.299999999999983      68.399999999999977      66.499999999999986
   181   1      13.299999999999983      70.299999999999983       64.59999999999998
   182   1      11.399999999999984      68.399999999999977      68.399999999999977
   183   1      11.399999999999984      70.299999999999983      70.299999999999983
   184   1      13.299999999999983      68.399999999999977      70.299999999999983
   185   1      13.299999999999983      70.299999999999983      68.399999999999977
   186   1      11.399999999999984      68.399999999999977      72.199999999999974
   187   1      13.299999999999983      68.399999999999977       74.09999999999998
   188   1      13.299999999999983      70.299999999999983      72.199999999999974
   189   1      13.299999999999983      72.199999999999974      58.899999999999977
   190   1      11.399999999999984      72.199999999999974      60.799999999999983
   191   1      11.399999999999984       74.09999999999998      62.699999999999989
   192   1      13.299999999999983      72.199999999999974      62.699999999999989
   193   1      13.299999999999983       74.09999999999998      60.799999999999983
   194   1      11.399999999999984      72.199999999999974       64.59999999999998
   195   1      11.399999999999984       74.09999999999998      66.499999999999986
   196   1      13.299999999999983      72.199999999999974      66.499999999999986
   197   1      13.299999999999983       74.09999999999998       64.59999999999998
   198   1      11.399999999999984      72.199999999999974      68.399999999999977
   199   1      13.299999999999983      72.199999999999974      70.299999999999983
   200   1      13.299999999999983       74.09999999999998      68.399999999999977
   201   1      13.299999999999983      75.999999999999972      62.699999999999989
   202   1      11.399999999999984      75.999999999999972       64.59999999999998
   203   1      13.299999999999983      75.999999999999972      66.499999999999986
   204   1      13.299999999999983      77.899999999999977       64.59999999999998
   205   1      17.099999999999977      47.499999999999979       64.59999999999998
   206   1      15.199999999999989      51.299999999999976      62.699999999999989
   207   1      17.099999999999977      49.399999999999977      62.699999999999989
   208   1      17.099999999999977      51.299999999999976      60.799999999999983
   209   1      15.199999999999989      49.399999999999977       64.59999999999998
   210   1      15.199999999999989      51.299999999999976      66.499999999999986
   211   1      17.099999999999977      49.399999999999977      66.499999999999986
   212   1      17.099999999999977      51.299999999999976       64.59999999999998
   213   1      17.099999999999977      51.299999999999976      68.399999999999977
   214   1      15.199999999999989       55.09999999999998      58.899999999999977
   215   1      17.099999999999977      53.199999999999982      58.899999999999977
   216   1      17.099999999999977       55.09999999999998      56.999999999999979
   217   1      15.199999999999989      53.199999999999982      60.799999999999983
   218   1      15.199999999999989       55.09999999999998      62.699999999999989
   219   1      17.099999999999977      53.199999999999982      62.699999999999989
   220   1      17.099999999999977       55.09999999999998      60.799999999999983
   221   1      15.199999999999989      53.199999999999982       64.59999999999998
   222   1      15.199999999999989       55.09999999999998      66.499999999999986
   223   1      17.099999999999977      53.199999999999982      66.499999999999986
   224   1      17.099999999999977       55.09999999999998       64.59999999999998
   225   1      15.199999999999989      53.199999999999982      68.399999999999977
   226   1      15.199999999999989       55.09999999999998      70.299999999999983
   227   1      17.099999999999977      53.199999999999982      70.299999999999983
   228   1      17.099999999999977       55.09999999999998      68.399999999999977
   229   1      17.099999999999977       55.09999999999998      72.199999999999974
   230   1      15.199999999999989      58.899999999999977       55.09999999999998
   231   1      17.099999999999977      56.999999999999979       55.09999999999998
   232   1      17.099999999999977      58.899999999999977      53.199999999999982
   233   1      15.199999999999989      56.999999999999979      56.999999999999979
   234   1      15.199999999999989      58.899999999999977      58.899999999999977
   235   1      17.099999999999977      56.999999999999979      58.899999999999977
   236   1      17.099999999999977      58.899999999999977      56.999999999999979
   237   1      15.199999999999989      56.999999999999979      60.799999999999983
   238   1      15.199999999999989      58.899999999999977      62.699999999999989
   239   1      17.099999999999977      56.999999999999979      62.699999999999989
   240   1      17.099999999999977      58.899999999999977      60.799999999999983
   241   1      15.199999999999989      56.999999999999979       64.59999999999998
   242   1      15.199999999999989      58.899999999999977      66.499999999999986
   243   1      17.099999999999977      56.999999999999979      66.499999999999986
   244   1      17.099999999999977      58.899999999999977       64.59999999999998
   245   1      15.199999999999989      56.999999999999979      68.399999999999977
   246   1      15.199999999999989      58.899999999999977      70.299999999999983
   247   1      17.099999999999977      56.999999999999979      70.299999999999983
   248   1      17.099999999999977      58.899999999999977      68.399999999999977
   249   1      15.199999999999989      56.999999999999979      72.199999999999974
   250   1      15.199999999999989      58.899999999999977       74.09999999999998
   251   1      17.099999999999977      56.999999999999979       74.09999999999998
   252   1      17.099999999999977      58.899999999999977      72.199999999999974
   253   1      17.099999999999977      58.899999999999977      75.999999999999972
   254   1      15.199999999999989      62.699999999999989      51.299999999999976
   255   1      17.099999999999977      60.799999999999983      51.299999999999976
   256   1      17.099999999999977      62.699999999999989      49.399999999999977
   257   1      15.199999999999989      60.799999999999983      53.199999999999982
   258   1      15.199999999999989      62.699999999999989       55.09999999999998
   259   1      17.099999999999977      60.799999999999983       55.09999999999998
   260   1      17.099999999999977      62.699999999999989      53.199999999999982
   261   1      15.199999999999989      60.799999999999983      56.999999999999979
   262   1      15.199999999999989      62.699999999999989      58.899999999999977
   263   1      17.099999999999977      60.799999999999983      58.899999999999977
   264   1      17.099999999999977      62.699999999999989      56.999999999999979
   265   1      15.199999999999989      60.799999999999983      60.799999999999983
   266   1      15.199999999999989      62.699999999999989      62.699999999999989
   267   1      17.099999999999977      60.799999999999983      62.699999999999989
   268   1      17.099999999999977      62.699999999999989      60.799999999999983
   269   1      15.199999999999989      60.799999999999983       64.59999999999998
   270   1      15.199999999999989      62.699999999999989      66.499999999999986
   271   1      17.099999999999977      60.799999999999983      66.499999999999986
   272   1      17.099999999999977      62.699999999999989       64.59999999999998
   273   1      15.199999999999989      60.799999999999983      68.399999999999977
   274   1      15.199999999999989      62.699999999999989      70.299999999999983
   275   1      17.099999999999977      60.799999999999983      70.299999999999983
   276   1      17.099999999999977      62.699999999999989      68.399999999999977
   277   1      15.199999999999989      60.799999999999983      72.199999999999974
   278   1      15.199999999999989      62.699999999999989       74.09999999999998
   279   1      17.099999999999977      60.799999999999983       74.09999999999998
   280   1      17.099999999999977      62.699999999999989      72.199999999999974
   281   1      15.199999999999989      60.799999999999983      75.999999999999972
   282   1      15.199999999999989      62.699999999999989      77.899999999999977
   283   1      17.099999999999977      60.799999999999983      77.899999999999977
   284   1      17.099999999999977      62.699999999999989      75.999999999999972
   285   1      17.099999999999977      62.699999999999989      79.799999999999969
   286   1      17.099999999999977       64.59999999999998      47.499999999999979
   287   1      15.199999999999989       64.59999999999998      49.399999999999977
   288   1      15.199999999999989      66.499999999999986      51.299999999999976
   289   1      17.099999999999977       64.59999999999998      51.299999999999976
   290   1      17.099999999999977      66.499999999999986      49.399999999999977
   291   1      15.199999999999989       64.59999999999998      53.199999999999982
   292   1      15.199999999999989      66.499999999999986       55.09999999999998
   293   1      17.099999999999977       64.59999999999998       55.09999999999998
   294   1      17.099999999999977      66.499999999999986      53.199999999999982
   295   1      15.199999999999989       64.59999999999998      56.999999999999979
   296   1      15.199999999999989      66.499999999999986      58.899999999999977
   297   1      17.099999999999977       64.59999999999998      58.899999999999977
   298   1      17.099999999999977      66.499999999999986      56.999999999999979
   299   1      15.199999999999989       64.59999999999998      60.799999999999983
   300   1      15.199999999999989      66.499999999999986      62.699999999999989
   301   1      17.099999999999977       64.59999999999998      62.699999999999989
   302   1      17.099999999999977      66.499999999999986      60.799999999999983
   303   1      15.199999999999989       64.59999999999998       64.59999999999998
   304   1      15.199999999999989      66.499999999999986      66.499999999999986
   305   1      17.099999999999977       64.59999999999998      66.499999999999986
   306   1      17.099999999999977      66.499999999999986       64.59999999999998
   307   1      15.199999999999989       64.59999999999998      68.399999999999977
   308   1      15.199999999999989      66.499999999999986      70.299999999999983
   309   1      17.099999999999977       64.59999999999998      70.299999999999983
   310   1      17.099999999999977      66.499999999999986      68.399999999999977
   311   1      15.199999999999989       64.59999999999998      72.199999999999974
   312   1      15.199999999999989      66.499999999999986       74.09999999999998
   313   1      17.099999999999977       64.59999999999998       74.09999999999998
   314   1      17.099999999999977      66.499999999999986      72.199999999999974
   315   1      15.199999999999989       64.59999999999998      75.999999999999972
   316   1      15.199999999999989      66.499999999999986      77.899999999999977
   317   1      17.099999999999977       64.59999999999998      77.899999999999977
   318   1      17.099999999999977      66.499999999999986      75.999999999999972
   319   1      15.199999999999989       64.59999999999998      79.799999999999969
   320   1      17.099999999999977       64.59999999999998      81.699999999999974
   321   1      17.099999999999977      66.499999999999986      79.799999999999969
   322   1      17.099999999999977      68.399999999999977      51.299999999999976
   323   1      15.199999999999989      68.399999999999977      53.199999999999982
   324   1      15.199999999999989      70.299999999999983       55.09999999999998
   325   1      17.099999999999977      68.399999999999977       55.09999999999998
   326   1      17.099999999999977      70.299999999999983      53.199999999999982
   327   1      15.199999999999989      68.399999999999977      56.999999999999979
   328   1      15.199999999999989      70.299999999999983      58.899999999999977
   329   1      17.099999999999977      68.399999999999977      58.899999999999977
   330   1      17.099999999999977      70.299999999999983      56.999999999999979
   331   1      15.199999999999989      68.399999999999977      60.799999999999983
   332   1      15.199999999999989      70.299999999999983      62.699999999999989
   333   1      17.099999999999977      68.399999999999977      62.699999999999989
   334   1      17.099999999999977      70.299999999999983      60.799999999999983
   335   1      15.199999999999989      68.399999999999977       64.59999999999998
   336   1      15.199999999999989      70.299999999999983      66.499999999999986
   337   1      17.099999999999977      68.399999999999977      66.499999999999986
   338   1      17.099999999999977      70.299999999999983       64.59999999999998
   339   1      15.199999999999989      68.399999999999977      68.399999999999977
   340   1      15.199999999999989      70.299999999999983      70.299999999999983
   341   1      17.099999999999977      68.399999999999977      70.299999999999983
   342   1      17.099999999999977      70.299999999999983      68.399999999999977
   343   1      15.199999999999989      68.399999999999977      72.199999999999974
   344   1      15.199999999999989      70.299999999999983       74.09999999999998
   345   1      17.099999999999977      68.399999999999977       74.09999999999998
   346   1      17.099999999999977      70.299999999999983      72.199999999999974
   347   1      15.199999999999989      68.399999999999977      75.999999999999972
   348   1      17.099999999999977      68.399999999999977      77.899999999999977
   349   1      17.099999999999977      70.299999999999983      75.999999999999972
   350   1      17.099999999999977      72.199999999999974       55.09999999999998
   351   1      15.199999999999989      72.199999999999974      56.999999999999979
   352   1      15.199999999999989       74.09999999999998      58.899999999999977
   353   1      17.099999999999977      72.199999999999974      58.899999999999977
   354   1      17.099999999999977       74.09999999999998      56.999999999999979
   355   1      15.199999999999989      72.199999999999974      60.799999999999983
   356   1      15.199999999999989       74.09999999999998      62.699999999999989
   357   1      17.099999999999977      72.199999999999974      62.699999999999989
   358   1      17.099999999999977       74.09999999999998      60.799999999999983