model_files/CuFeNi/CuFeNi_30000/CuFeNi_311/CuFeNi_311_fcc_30453_temp.data (written by ASE) 

30453 	 atoms 
3  atom types
0.0                      91  xlo xhi
0.0                      91  ylo yhi
0.0                      91  zlo zhi


Atoms 

     1   1  7.1054273576010019e-15      42.960000000000015      44.750000000000014
     2   1  7.1054273576010019e-15      44.750000000000014      42.960000000000015
     3   1  7.1054273576010019e-15      44.750000000000014      46.540000000000013
     4   1  7.1054273576010019e-15      46.540000000000013      44.750000000000014
     5   1      3.5800000000000058      32.220000000000013      44.750000000000014
     6   1      3.5800000000000058      34.010000000000012      42.960000000000015
     7   1      3.5800000000000058      35.800000000000011      41.170000000000016
     8   1      3.5800000000000058      34.010000000000012      46.540000000000013
     9   1      3.5800000000000058      35.800000000000011      44.750000000000014
    10   1      3.5800000000000058      35.800000000000011      48.330000000000013
    11   1      3.5800000000000058      37.590000000000011      39.380000000000017
    12   1      3.5800000000000058      39.380000000000017      37.590000000000011
    13   1      1.7900000000000063      39.380000000000017      42.960000000000015
    14   1      3.5800000000000058      37.590000000000011      42.960000000000015
    15   1      3.5800000000000058      39.380000000000017      41.170000000000016
    16   1      1.7900000000000063      37.590000000000011      44.750000000000014
    17   1      1.7900000000000063      39.380000000000017      46.540000000000013
    18   1      3.5800000000000058      37.590000000000011      46.540000000000013
    19   1      3.5800000000000058      39.380000000000017      44.750000000000014
    20   1      3.5800000000000058      37.590000000000011      50.120000000000012
    21   1      3.5800000000000058      39.380000000000017      48.330000000000013
    22   1      3.5800000000000058      39.380000000000017      51.910000000000011
    23   1      3.5800000000000058      41.170000000000016      35.800000000000011
    24   1      3.5800000000000058      42.960000000000015      34.010000000000012
    25   1      1.7900000000000063      42.960000000000015      39.380000000000017
    26   1      3.5800000000000058      41.170000000000016      39.380000000000017
    27   1      3.5800000000000058      42.960000000000015      37.590000000000011
    28   1      1.7900000000000063      41.170000000000016      41.170000000000016
    29   1      1.7900000000000063      42.960000000000015      42.960000000000015
    30   1      3.5800000000000058      41.170000000000016      42.960000000000015
    31   1      3.5800000000000058      42.960000000000015      41.170000000000016
    32   1      1.7900000000000063      41.170000000000016      44.750000000000014
    33   1      1.7900000000000063      42.960000000000015      46.540000000000013
    34   1      3.5800000000000058      41.170000000000016      46.540000000000013
    35   1      3.5800000000000058      42.960000000000015      44.750000000000014
    36   1      1.7900000000000063      41.170000000000016      48.330000000000013
    37   1      1.7900000000000063      42.960000000000015      50.120000000000012
    38   1      3.5800000000000058      41.170000000000016      50.120000000000012
    39   1      3.5800000000000058      42.960000000000015      48.330000000000013
    40   1      3.5800000000000058      41.170000000000016       53.70000000000001
    41   1      3.5800000000000058      42.960000000000015      51.910000000000011
    42   1      3.5800000000000058      42.960000000000015      55.490000000000009
    43   1      3.5800000000000058      44.750000000000014      32.220000000000013
    44   1      3.5800000000000058      44.750000000000014      35.800000000000011
    45   1      3.5800000000000058      46.540000000000013      34.010000000000012
    46   1      1.7900000000000063      44.750000000000014      37.590000000000011
    47   1      1.7900000000000063      46.540000000000013      39.380000000000017
    48   1      3.5800000000000058      44.750000000000014      39.380000000000017
    49   1      3.5800000000000058      46.540000000000013      37.590000000000011
    50   1      1.7900000000000063      44.750000000000014      41.170000000000016
    51   1      1.7900000000000063      46.540000000000013      42.960000000000015
    52   1      3.5800000000000058      44.750000000000014      42.960000000000015
    53   1      3.5800000000000058      46.540000000000013      41.170000000000016
    54   1      1.7900000000000063      44.750000000000014      44.750000000000014
    55   1      1.7900000000000063      46.540000000000013      46.540000000000013
    56   1      3.5800000000000058      44.750000000000014      46.540000000000013
    57   1      3.5800000000000058      46.540000000000013      44.750000000000014
    58   1      1.7900000000000063      44.750000000000014      48.330000000000013
    59   1      1.7900000000000063      46.540000000000013      50.120000000000012
    60   1      3.5800000000000058      44.750000000000014      50.120000000000012
    61   1      3.5800000000000058      46.540000000000013      48.330000000000013
    62   1      1.7900000000000063      44.750000000000014      51.910000000000011
    63   1      3.5800000000000058      44.750000000000014       53.70000000000001
    64   1      3.5800000000000058      46.540000000000013      51.910000000000011
    65   1      3.5800000000000058      44.750000000000014      57.280000000000008
    66   1      3.5800000000000058      46.540000000000013      55.490000000000009
    67   1      3.5800000000000058      48.330000000000013      35.800000000000011
    68   1      3.5800000000000058      48.330000000000013      39.380000000000017
    69   1      3.5800000000000058      50.120000000000012      37.590000000000011
    70   1      1.7900000000000063      48.330000000000013      41.170000000000016
    71   1      1.7900000000000063      50.120000000000012      42.960000000000015
    72   1      3.5800000000000058      48.330000000000013      42.960000000000015
    73   1      3.5800000000000058      50.120000000000012      41.170000000000016
    74   1      1.7900000000000063      48.330000000000013      44.750000000000014
    75   1      1.7900000000000063      50.120000000000012      46.540000000000013
    76   1      3.5800000000000058      48.330000000000013      46.540000000000013
    77   1      3.5800000000000058      50.120000000000012      44.750000000000014
    78   1      1.7900000000000063      48.330000000000013      48.330000000000013
    79   1      3.5800000000000058      48.330000000000013      50.120000000000012
    80   1      3.5800000000000058      50.120000000000012      48.330000000000013
    81   1      3.5800000000000058      48.330000000000013       53.70000000000001
    82   1      3.5800000000000058      50.120000000000012      51.910000000000011
    83   1      3.5800000000000058      51.910000000000011      39.380000000000017
    84   1      3.5800000000000058      51.910000000000011      42.960000000000015
    85   1      3.5800000000000058       53.70000000000001      41.170000000000016
    86   1      1.7900000000000063      51.910000000000011      44.750000000000014
    87   1      3.5800000000000058      51.910000000000011      46.540000000000013
    88   1      3.5800000000000058       53.70000000000001      44.750000000000014
    89   1      3.5800000000000058      51.910000000000011      50.120000000000012
    90   1      3.5800000000000058       53.70000000000001      48.330000000000013
    91   1      3.5800000000000058      55.490000000000009      42.960000000000015
    92   1      3.5800000000000058      55.490000000000009      46.540000000000013
    93   1      3.5800000000000058      57.280000000000008      44.750000000000014
    94   1      7.1600000000000037      21.480000000000008      44.750000000000014
    95   1      7.1600000000000037       23.27000000000001      42.960000000000015
    96   1      7.1600000000000037      25.060000000000009      41.170000000000016
    97   1      7.1600000000000037       23.27000000000001      46.540000000000013
    98   1      7.1600000000000037      25.060000000000009      44.750000000000014
    99   1      7.1600000000000037      25.060000000000009      48.330000000000013
   100   1      7.1600000000000037      26.850000000000012      39.380000000000017
   101   1      7.1600000000000037      28.640000000000011      37.590000000000011
   102   1      5.3700000000000125      28.640000000000011      42.960000000000015
   103   1      7.1600000000000037      26.850000000000012      42.960000000000015
   104   1      7.1600000000000037      28.640000000000011      41.170000000000016
   105   1      5.3700000000000125      26.850000000000012      44.750000000000014
   106   1      5.3700000000000125      28.640000000000011      46.540000000000013
   107   1      7.1600000000000037      26.850000000000012      46.540000000000013
   108   1      7.1600000000000037      28.640000000000011      44.750000000000014
   109   1      7.1600000000000037      26.850000000000012      50.120000000000012
   110   1      7.1600000000000037      28.640000000000011      48.330000000000013
   111   1      7.1600000000000037      28.640000000000011      51.910000000000011
   112   1      7.1600000000000037       30.43000000000001      35.800000000000011
   113   1      7.1600000000000037      32.220000000000013      34.010000000000012
   114   1      5.3700000000000125      32.220000000000013      39.380000000000017
   115   1      7.1600000000000037       30.43000000000001      39.380000000000017
   116   1      7.1600000000000037      32.220000000000013      37.590000000000011
   117   1      5.3700000000000125       30.43000000000001      41.170000000000016
   118   1      5.3700000000000125      32.220000000000013      42.960000000000015
   119   1      7.1600000000000037       30.43000000000001      42.960000000000015
   120   1      7.1600000000000037      32.220000000000013      41.170000000000016
   121   1      5.3700000000000125       30.43000000000001      44.750000000000014
   122   1      5.3700000000000125      32.220000000000013      46.540000000000013
   123   1      7.1600000000000037       30.43000000000001      46.540000000000013
   124   1      7.1600000000000037      32.220000000000013      44.750000000000014
   125   1      5.3700000000000125       30.43000000000001      48.330000000000013
   126   1      5.3700000000000125      32.220000000000013      50.120000000000012
   127   1      7.1600000000000037       30.43000000000001      50.120000000000012
   128   1      7.1600000000000037      32.220000000000013      48.330000000000013
   129   1      7.1600000000000037       30.43000000000001       53.70000000000001
   130   1      7.1600000000000037      32.220000000000013      51.910000000000011
   131   1      7.1600000000000037      32.220000000000013      55.490000000000009
   132   1      7.1600000000000037      34.010000000000012      32.220000000000013
   133   1      7.1600000000000037      35.800000000000011       30.43000000000001
   134   1      5.3700000000000125      35.800000000000011      35.800000000000011
   135   1      7.1600000000000037      34.010000000000012      35.800000000000011
   136   1      7.1600000000000037      35.800000000000011      34.010000000000012
   137   1      5.3700000000000125      34.010000000000012      37.590000000000011
   138   1      5.3700000000000125      35.800000000000011      39.380000000000017
   139   1      7.1600000000000037      34.010000000000012      39.380000000000017
   140   1      7.1600000000000037      35.800000000000011      37.590000000000011
   141   1      5.3700000000000125      34.010000000000012      41.170000000000016
   142   1      5.3700000000000125      35.800000000000011      42.960000000000015
   143   1      7.1600000000000037      34.010000000000012      42.960000000000015
   144   1      7.1600000000000037      35.800000000000011      41.170000000000016
   145   1      5.3700000000000125      34.010000000000012      44.750000000000014
   146   1      5.3700000000000125      35.800000000000011      46.540000000000013
   147   1      7.1600000000000037      34.010000000000012      46.540000000000013
   148   1      7.1600000000000037      35.800000000000011      44.750000000000014
   149   1      5.3700000000000125      34.010000000000012      48.330000000000013
   150   1      5.3700000000000125      35.800000000000011      50.120000000000012
   151   1      7.1600000000000037      34.010000000000012      50.120000000000012
   152   1      7.1600000000000037      35.800000000000011      48.330000000000013
   153   1      5.3700000000000125      34.010000000000012      51.910000000000011
   154   1      5.3700000000000125      35.800000000000011       53.70000000000001
   155   1      7.1600000000000037      34.010000000000012       53.70000000000001
   156   1      7.1600000000000037      35.800000000000011      51.910000000000011
   157   1      7.1600000000000037      34.010000000000012      57.280000000000008
   158   1      7.1600000000000037      35.800000000000011      55.490000000000009
   159   1      7.1600000000000037      35.800000000000011      59.070000000000007
   160   1      7.1600000000000037      37.590000000000011      28.640000000000011
   161   1      7.1600000000000037      39.380000000000017      26.850000000000012
   162   1      5.3700000000000125      39.380000000000017      32.220000000000013
   163   1      7.1600000000000037      37.590000000000011      32.220000000000013
   164   1      7.1600000000000037      39.380000000000017       30.43000000000001
   165   1      5.3700000000000125      37.590000000000011      34.010000000000012
   166   1      5.3700000000000125      39.380000000000017      35.800000000000011
   167   1      7.1600000000000037      37.590000000000011      35.800000000000011
   168   1      7.1600000000000037      39.380000000000017      34.010000000000012
   169   1      5.3700000000000125      37.590000000000011      37.590000000000011
   170   1      5.3700000000000125      39.380000000000017      39.380000000000017
   171   1      7.1600000000000037      37.590000000000011      39.380000000000017
   172   1      7.1600000000000037      39.380000000000017      37.590000000000011
   173   1      5.3700000000000125      37.590000000000011      41.170000000000016
   174   1      5.3700000000000125      39.380000000000017      42.960000000000015
   175   1      7.1600000000000037      37.590000000000011      42.960000000000015
   176   1      7.1600000000000037      39.380000000000017      41.170000000000016
   177   1      5.3700000000000125      37.590000000000011      44.750000000000014
   178   1      5.3700000000000125      39.380000000000017      46.540000000000013
   179   1      7.1600000000000037      37.590000000000011      46.540000000000013
   180   1      7.1600000000000037      39.380000000000017      44.750000000000014
   181   1      5.3700000000000125      37.590000000000011      48.330000000000013
   182   1      5.3700000000000125      39.380000000000017      50.120000000000012
   183   1      7.1600000000000037      37.590000000000011      50.120000000000012
   184   1      7.1600000000000037      39.380000000000017      48.330000000000013
   185   1      5.3700000000000125      37.590000000000011      51.910000000000011
   186   1      5.3700000000000125      39.380000000000017       53.70000000000001
   187   1      7.1600000000000037      37.590000000000011       53.70000000000001
   188   1      7.1600000000000037      39.380000000000017      51.910000000000011
   189   1      5.3700000000000125      37.590000000000011      55.490000000000009
   190   1      5.3700000000000125      39.380000000000017      57.280000000000008
   191   1      7.1600000000000037      37.590000000000011      57.280000000000008
   192   1      7.1600000000000037      39.380000000000017      55.490000000000009
   193   1      7.1600000000000037      37.590000000000011      60.860000000000014
   194   1      7.1600000000000037      39.380000000000017      59.070000000000007
   195   1      7.1600000000000037      39.380000000000017      62.650000000000013
   196   1      7.1600000000000037      41.170000000000016      25.060000000000009
   197   1      7.1600000000000037      42.960000000000015       23.27000000000001
   198   1      5.3700000000000125      42.960000000000015      28.640000000000011
   199   1      7.1600000000000037      41.170000000000016      28.640000000000011
   200   1      7.1600000000000037      42.960000000000015      26.850000000000012
   201   1      5.3700000000000125      41.170000000000016       30.43000000000001
   202   1      5.3700000000000125      42.960000000000015      32.220000000000013
   203   1      7.1600000000000037      41.170000000000016      32.220000000000013
   204   1      7.1600000000000037      42.960000000000015       30.43000000000001
   205   1      5.3700000000000125      41.170000000000016      34.010000000000012
   206   1      5.3700000000000125      42.960000000000015      35.800000000000011
   207   1      7.1600000000000037      41.170000000000016      35.800000000000011
   208   1      7.1600000000000037      42.960000000000015      34.010000000000012
   209   1      5.3700000000000125      41.170000000000016      37.590000000000011
   210   1      5.3700000000000125      42.960000000000015      39.380000000000017
   211   1      7.1600000000000037      41.170000000000016      39.380000000000017
   212   1      7.1600000000000037      42.960000000000015      37.590000000000011
   213   1      5.3700000000000125      41.170000000000016      41.170000000000016
   214   1      5.3700000000000125      42.960000000000015      42.960000000000015
   215   1      7.1600000000000037      41.170000000000016      42.960000000000015
   216   1      7.1600000000000037      42.960000000000015      41.170000000000016
   217   1      5.3700000000000125      41.170000000000016      44.750000000000014
   218   1      5.3700000000000125      42.960000000000015      46.540000000000013
   219   1      7.1600000000000037      41.170000000000016      46.540000000000013
   220   1      7.1600000000000037      42.960000000000015      44.750000000000014
   221   1      5.3700000000000125      41.170000000000016      48.330000000000013
   222   1      5.3700000000000125      42.960000000000015      50.120000000000012
   223   1      7.1600000000000037      41.170000000000016      50.120000000000012
   224   1      7.1600000000000037      42.960000000000015      48.330000000000013
   225   1      5.3700000000000125      41.170000000000016      51.910000000000011
   226   1      5.3700000000000125      42.960000000000015       53.70000000000001
   227   1      7.1600000000000037      41.170000000000016       53.70000000000001
   228   1      7.1600000000000037      42.960000000000015      51.910000000000011
   229   1      5.3700000000000125      41.170000000000016      55.490000000000009
   230   1      5.3700000000000125      42.960000000000015      57.280000000000008
   231   1      7.1600000000000037      41.170000000000016      57.280000000000008
   232   1      7.1600000000000037      42.960000000000015      55.490000000000009
   233   1      5.3700000000000125      41.170000000000016      59.070000000000007
   234   1      5.3700000000000125      42.960000000000015      60.860000000000014
   235   1      7.1600000000000037      41.170000000000016      60.860000000000014
   236   1      7.1600000000000037      42.960000000000015      59.070000000000007
   237   1      7.1600000000000037      41.170000000000016      64.440000000000026
   238   1      7.1600000000000037      42.960000000000015      62.650000000000013
   239   1      7.1600000000000037      42.960000000000015      66.230000000000004
   240   1      7.1600000000000037      44.750000000000014      21.480000000000008
   241   1      7.1600000000000037      44.750000000000014      25.060000000000009
   242   1      7.1600000000000037      46.540000000000013       23.27000000000001
   243   1      5.3700000000000125      44.750000000000014      26.850000000000012
   244   1      5.3700000000000125      46.540000000000013      28.640000000000011
   245   1      7.1600000000000037      44.750000000000014      28.640000000000011
   246   1      7.1600000000000037      46.540000000000013      26.850000000000012
   247   1      5.3700000000000125      44.750000000000014       30.43000000000001
   248   1      5.3700000000000125      46.540000000000013      32.220000000000013
   249   1      7.1600000000000037      44.750000000000014      32.220000000000013
   250   1      7.1600000000000037      46.540000000000013       30.43000000000001
   251   1      5.3700000000000125      44.750000000000014      34.010000000000012
   252   1      5.3700000000000125      46.540000000000013      35.800000000000011
   253   1      7.1600000000000037      44.750000000000014      35.800000000000011
   254   1      7.1600000000000037      46.540000000000013      34.010000000000012
   255   1      5.3700000000000125      44.750000000000014      37.590000000000011
   256   1      5.3700000000000125      46.540000000000013      39.380000000000017
   257   1      7.1600000000000037      44.750000000000014      39.380000000000017
   258   1      7.1600000000000037      46.540000000000013      37.590000000000011
   259   1      5.3700000000000125      44.750000000000014      41.170000000000016
   260   1      5.3700000000000125      46.540000000000013      42.960000000000015
   261   1      7.1600000000000037      44.750000000000014      42.960000000000015
   262   1      7.1600000000000037      46.540000000000013      41.170000000000016
   263   1      5.3700000000000125      44.750000000000014      44.750000000000014
   264   1      5.3700000000000125      46.540000000000013      46.540000000000013
   265   1      7.1600000000000037      44.750000000000014      46.540000000000013
   266   1      7.1600000000000037      46.540000000000013      44.750000000000014
   267   1      5.3700000000000125      44.750000000000014      48.330000000000013
   268   1      5.3700000000000125      46.540000000000013      50.120000000000012
   269   1      7.1600000000000037      44.750000000000014      50.120000000000012
   270   1      7.1600000000000037      46.540000000000013      48.330000000000013
   271   1      5.3700000000000125      44.750000000000014      51.910000000000011
   272   1      5.3700000000000125      46.540000000000013       53.70000000000001
   273   1      7.1600000000000037      44.750000000000014       53.70000000000001
   274   1      7.1600000000000037      46.540000000000013      51.910000000000011
   275   1      5.3700000000000125      44.750000000000014      55.490000000000009
   276   1      5.3700000000000125      46.540000000000013      57.280000000000008
   277   1      7.1600000000000037      44.750000000000014      57.280000000000008
   278   1      7.1600000000000037      46.540000000000013      55.490000000000009
   279   1      5.3700000000000125      44.750000000000014      59.070000000000007
   280   1      5.3700000000000125      46.540000000000013      60.860000000000014
   281   1      7.1600000000000037      44.750000000000014      60.860000000000014
   282   1      7.1600000000000037      46.540000000000013      59.070000000000007
   283   1      5.3700000000000125      44.750000000000014      62.650000000000013
   284   1      7.1600000000000037      44.750000000000014      64.440000000000026
   285   1      7.1600000000000037      46.540000000000013      62.650000000000013
   286   1      7.1600000000000037      44.750000000000014      68.020000000000024
   287   1      7.1600000000000037      46.540000000000013      66.230000000000004
   288   1      7.1600000000000037      48.330000000000013      25.060000000000009
   289   1      7.1600000000000037      48.330000000000013      28.640000000000011
   290   1      7.1600000000000037      50.120000000000012      26.850000000000012
   291   1      5.3700000000000125      48.330000000000013       30.43000000000001
   292   1      5.3700000000000125      50.120000000000012      32.220000000000013
   293   1      7.1600000000000037      48.330000000000013      32.220000000000013
   294   1      7.1600000000000037      50.120000000000012       30.43000000000001
   295   1      5.3700000000000125      48.330000000000013      34.010000000000012
   296   1      5.3700000000000125      50.120000000000012      35.800000000000011
   297   1      7.1600000000000037      48.330000000000013      35.800000000000011
   298   1      7.1600000000000037      50.120000000000012      34.010000000000012
   299   1      5.3700000000000125      48.330000000000013      37.590000000000011
   300   1      5.3700000000000125      50.120000000000012      39.380000000000017
   301   1      7.1600000000000037      48.330000000000013      39.380000000000017
   302   1      7.1600000000000037      50.120000000000012      37.590000000000011
   303   1      5.3700000000000125      48.330000000000013      41.170000000000016
   304   1      5.3700000000000125      50.120000000000012      42.960000000000015
   305   1      7.1600000000000037      48.330000000000013      42.960000000000015
   306   1      7.1600000000000037      50.120000000000012      41.170000000000016
   307   1      5.3700000000000125      48.330000000000013      44.750000000000014
   308   1      5.3700000000000125      50.120000000000012      46.540000000000013
   309   1      7.1600000000000037      48.330000000000013      46.540000000000013
   310   1      7.1600000000000037      50.120000000000012      44.750000000000014
   311   1      5.3700000000000125      48.330000000000013      48.330000000000013
   312   1      5.3700000000000125      50.120000000000012      50.120000000000012
   313   1      7.1600000000000037      48.330000000000013      50.120000000000012
   314   1      7.1600000000000037      50.120000000000012      48.330000000000013
   315   1      5.3700000000000125      48.330000000000013      51.910000000000011
   316   1      5.3700000000000125      50.120000000000012       53.70000000000001
   317   1      7.1600000000000037      48.330000000000013       53.70000000000001
   318   1      7.1600000000000037      50.120000000000012      51.910000000000011
   319   1      5.3700000000000125      48.330000000000013      55.490000000000009
   320   1      5.3700000000000125      50.120000000000012      57.280000000000008
   321   1      7.1600000000000037      48.330000000000013      57.280000000000008
   322   1      7.1600000000000037      50.120000000000012      55.490000000000009
   323   1      5.3700000000000125      48.330000000000013      59.070000000000007
   324   1      7.1600000000000037      48.330000000000013      60.860000000000014
   325   1      7.1600000000000037      50.120000000000012      59.070000000000007
   326   1      7.1600000000000037      48.330000000000013      64.440000000000026
   327   1      7.1600000000000037      50.120000000000012      62.650000000000013
   328   1      7.1600000000000037      51.910000000000011      28.640000000000011
   329   1      7.1600000000000037      51.910000000000011      32.220000000000013
   330   1      7.1600000000000037       53.70000000000001       30.43000000000001
   331   1      5.3700000000000125      51.910000000000011      34.010000000000012
   332   1      5.3700000000000125       53.70000000000001      35.800000000000011
   333   1      7.1600000000000037      51.910000000000011      35.800000000000011
   334   1      7.1600000000000037       53.70000000000001      34.010000000000012
   335   1      5.3700000000000125      51.910000000000011      37.590000000000011
   336   1      5.3700000000000125       53.70000000000001      39.380000000000017
   337   1      7.1600000000000037      51.910000000000011      39.380000000000017
   338   1      7.1600000000000037       53.70000000000001      37.590000000000011
   339   1      5.3700000000000125      51.910000000000011      41.170000000000016
   340   1      5.3700000000000125       53.70000000000001      42.960000000000015
   341   1      7.1600000000000037      51.910000000000011      42.960000000000015
   342   1      7.1600000000000037       53.70000000000001      41.170000000000016
   343   1      5.3700000000000125      51.910000000000011      44.750000000000014
   344   1      5.3700000000000125       53.70000000000001      46.540000000000013
   345   1      7.1600000000000037      51.910000000000011      46.540000000000013
   346   1      7.1600000000000037       53.70000000000001      44.750000000000014
   347   1      5.3700000000000125      51.910000000000011      48.330000000000013
   348   1      5.3700000000000125       53.70000000000001      50.120000000000012
   349   1      7.1600000000000037      51.910000000000011      50.120000000000012
   350   1      7.1600000000000037       53.70000000000001      48.330000000000013
   351   1      5.3700000000000125      51.910000000000011      51.910000000000011
   352   1      5.3700000000000125       53.70000000000001       53.70000000000001
   353   1      7.1600000000000037      51.910000000000011       53.70000000000001
   354   1      7.1600000000000037       53.70000000000001      51.910000000000011
   355   1      5.3700000000000125      51.910000000000011      55.490000000000009
   356   1      7.1600000000000037      51.910000000000011      57.280000000000008
   357   1      7.1600000000000037       53.70000000000001      55.490000000000009
   358   1      7.1600000000000037      51.910000000000011      60.860000000000014