model_files/PtCu/PtCu_30000/PtCu_521/PtCu_521_fcc_30329_temp.data (written by ASE) 

30329 	 atoms 
2  atom types
0.0                      96  xlo xhi
0.0                      96  ylo yhi
0.0                      96  zlo zhi


Atoms 

     1   1      95.999999999999986      46.199999999999989      48.124999999999993
     2   1      95.999999999999986      48.124999999999993      46.199999999999989
     3   1      95.999999999999986      48.124999999999993       50.04999999999999
     4   1      95.999999999999986       50.04999999999999      48.124999999999993
     5   1      3.8499999999999872      36.574999999999989      46.199999999999989
     6   1      3.8499999999999872      38.499999999999986      44.274999999999991
     7   1      3.8499999999999872      36.574999999999989       50.04999999999999
     8   1      3.8499999999999872      38.499999999999986      48.124999999999993
     9   1      3.8499999999999872      38.499999999999986      51.974999999999987
    10   1      3.8499999999999872       40.42499999999999      42.349999999999987
    11   1      3.8499999999999872      42.349999999999987       40.42499999999999
    12   1      1.9249999999999898      42.349999999999987      46.199999999999989
    13   1      3.8499999999999872       40.42499999999999      46.199999999999989
    14   1      3.8499999999999872      42.349999999999987      44.274999999999991
    15   1      1.9249999999999898       40.42499999999999      48.124999999999993
    16   1      1.9249999999999898      42.349999999999987       50.04999999999999
    17   1      3.8499999999999872       40.42499999999999       50.04999999999999
    18   1      3.8499999999999872      42.349999999999987      48.124999999999993
    19   1      3.8499999999999872       40.42499999999999      53.899999999999984
    20   1      3.8499999999999872      42.349999999999987      51.974999999999987
    21   1      3.8499999999999872      42.349999999999987      55.824999999999982
    22   1      3.8499999999999872      44.274999999999991      38.499999999999986
    23   1      3.8499999999999872      46.199999999999989      36.574999999999989
    24   1      1.9249999999999898      46.199999999999989      42.349999999999987
    25   1      3.8499999999999872      44.274999999999991      42.349999999999987
    26   1      3.8499999999999872      46.199999999999989       40.42499999999999
    27   1      1.9249999999999898      44.274999999999991      44.274999999999991
    28   1      1.9249999999999898      46.199999999999989      46.199999999999989
    29   1      3.8499999999999872      44.274999999999991      46.199999999999989
    30   1      3.8499999999999872      46.199999999999989      44.274999999999991
    31   1      1.9249999999999898      44.274999999999991      48.124999999999993
    32   1      1.9249999999999898      46.199999999999989       50.04999999999999
    33   1      3.8499999999999872      44.274999999999991       50.04999999999999
    34   1      3.8499999999999872      46.199999999999989      48.124999999999993
    35   1      1.9249999999999898      44.274999999999991      51.974999999999987
    36   1      1.9249999999999898      46.199999999999989      53.899999999999984
    37   1      3.8499999999999872      44.274999999999991      53.899999999999984
    38   1      3.8499999999999872      46.199999999999989      51.974999999999987
    39   1      3.8499999999999872      44.274999999999991      57.749999999999979
    40   1      3.8499999999999872      46.199999999999989      55.824999999999982
    41   1      3.8499999999999872      46.199999999999989      59.674999999999983
    42   1      3.8499999999999872      48.124999999999993      38.499999999999986
    43   1      3.8499999999999872       50.04999999999999      36.574999999999989
    44   1      1.9249999999999898      48.124999999999993       40.42499999999999
    45   1      1.9249999999999898       50.04999999999999      42.349999999999987
    46   1      3.8499999999999872      48.124999999999993      42.349999999999987
    47   1      3.8499999999999872       50.04999999999999       40.42499999999999
    48   1      1.9249999999999898      48.124999999999993      44.274999999999991
    49   1      1.9249999999999898       50.04999999999999      46.199999999999989
    50   1      3.8499999999999872      48.124999999999993      46.199999999999989
    51   1      3.8499999999999872       50.04999999999999      44.274999999999991
    52   1      1.9249999999999898      48.124999999999993      48.124999999999993
    53   1      1.9249999999999898       50.04999999999999       50.04999999999999
    54   1      3.8499999999999872      48.124999999999993       50.04999999999999
    55   1      3.8499999999999872       50.04999999999999      48.124999999999993
    56   1      1.9249999999999898      48.124999999999993      51.974999999999987
    57   1      1.9249999999999898       50.04999999999999      53.899999999999984
    58   1      3.8499999999999872      48.124999999999993      53.899999999999984
    59   1      3.8499999999999872       50.04999999999999      51.974999999999987
    60   1      1.9249999999999898      48.124999999999993      55.824999999999982
    61   1      3.8499999999999872      48.124999999999993      57.749999999999979
    62   1      3.8499999999999872       50.04999999999999      55.824999999999982
    63   1      3.8499999999999872       50.04999999999999      59.674999999999983
    64   1      3.8499999999999872      51.974999999999987      38.499999999999986
    65   1      3.8499999999999872      51.974999999999987      42.349999999999987
    66   1      3.8499999999999872      53.899999999999984       40.42499999999999
    67   1      1.9249999999999898      51.974999999999987      44.274999999999991
    68   1      1.9249999999999898      53.899999999999984      46.199999999999989
    69   1      3.8499999999999872      51.974999999999987      46.199999999999989
    70   1      3.8499999999999872      53.899999999999984      44.274999999999991
    71   1      1.9249999999999898      51.974999999999987      48.124999999999993
    72   1      1.9249999999999898      53.899999999999984       50.04999999999999
    73   1      3.8499999999999872      51.974999999999987       50.04999999999999
    74   1      3.8499999999999872      53.899999999999984      48.124999999999993
    75   1      1.9249999999999898      51.974999999999987      51.974999999999987
    76   1      3.8499999999999872      51.974999999999987      53.899999999999984
    77   1      3.8499999999999872      53.899999999999984      51.974999999999987
    78   1      3.8499999999999872      51.974999999999987      57.749999999999979
    79   1      3.8499999999999872      53.899999999999984      55.824999999999982
    80   1      3.8499999999999872      55.824999999999982      42.349999999999987
    81   1      3.8499999999999872      55.824999999999982      46.199999999999989
    82   1      3.8499999999999872      57.749999999999979      44.274999999999991
    83   1      1.9249999999999898      55.824999999999982      48.124999999999993
    84   1      3.8499999999999872      55.824999999999982       50.04999999999999
    85   1      3.8499999999999872      57.749999999999979      48.124999999999993
    86   1      3.8499999999999872      55.824999999999982      53.899999999999984
    87   1      3.8499999999999872      57.749999999999979      51.974999999999987
    88   1      3.8499999999999872      59.674999999999983      46.199999999999989
    89   1      3.8499999999999872      59.674999999999983       50.04999999999999
    90   1      7.6999999999999886      26.949999999999989      48.124999999999993
    91   1      7.6999999999999886      28.874999999999989      42.349999999999987
    92   1      7.6999999999999886      30.799999999999986       40.42499999999999
    93   1      7.6999999999999886      28.874999999999989      46.199999999999989
    94   1      7.6999999999999886      30.799999999999986      44.274999999999991
    95   1      7.6999999999999886      28.874999999999989       50.04999999999999
    96   1      7.6999999999999886      30.799999999999986      48.124999999999993
    97   1      7.6999999999999886      28.874999999999989      53.899999999999984
    98   1      7.6999999999999886      30.799999999999986      51.974999999999987
    99   1      7.6999999999999886      30.799999999999986      55.824999999999982
   100   1      7.6999999999999886       32.72499999999998      34.649999999999977
   101   1      7.6999999999999886      34.649999999999977       32.72499999999998
   102   1      7.6999999999999886       32.72499999999998      38.499999999999986
   103   1      7.6999999999999886      34.649999999999977      36.574999999999989
   104   1      5.7749999999999915      34.649999999999977      42.349999999999987
   105   1      7.6999999999999886       32.72499999999998      42.349999999999987
   106   1      7.6999999999999886      34.649999999999977       40.42499999999999
   107   1      5.7749999999999915       32.72499999999998      44.274999999999991
   108   1      5.7749999999999915      34.649999999999977      46.199999999999989
   109   1      7.6999999999999886       32.72499999999998      46.199999999999989
   110   1      7.6999999999999886      34.649999999999977      44.274999999999991
   111   1      5.7749999999999915       32.72499999999998      48.124999999999993
   112   1      5.7749999999999915      34.649999999999977       50.04999999999999
   113   1      7.6999999999999886       32.72499999999998       50.04999999999999
   114   1      7.6999999999999886      34.649999999999977      48.124999999999993
   115   1      5.7749999999999915       32.72499999999998      51.974999999999987
   116   1      5.7749999999999915      34.649999999999977      53.899999999999984
   117   1      7.6999999999999886       32.72499999999998      53.899999999999984
   118   1      7.6999999999999886      34.649999999999977      51.974999999999987
   119   1      7.6999999999999886       32.72499999999998      57.749999999999979
   120   1      7.6999999999999886      34.649999999999977      55.824999999999982
   121   1      7.6999999999999886       32.72499999999998       61.59999999999998
   122   1      7.6999999999999886      34.649999999999977      59.674999999999983
   123   1      7.6999999999999886      34.649999999999977      63.524999999999991
   124   1      7.6999999999999886      36.574999999999989      34.649999999999977
   125   1      7.6999999999999886      38.499999999999986       32.72499999999998
   126   1      5.7749999999999915      36.574999999999989      36.574999999999989
   127   1      5.7749999999999915      38.499999999999986      38.499999999999986
   128   1      7.6999999999999886      36.574999999999989      38.499999999999986
   129   1      7.6999999999999886      38.499999999999986      36.574999999999989
   130   1      5.7749999999999915      36.574999999999989       40.42499999999999
   131   1      5.7749999999999915      38.499999999999986      42.349999999999987
   132   1      7.6999999999999886      36.574999999999989      42.349999999999987
   133   1      7.6999999999999886      38.499999999999986       40.42499999999999
   134   1      5.7749999999999915      36.574999999999989      44.274999999999991
   135   1      5.7749999999999915      38.499999999999986      46.199999999999989
   136   1      7.6999999999999886      36.574999999999989      46.199999999999989
   137   1      7.6999999999999886      38.499999999999986      44.274999999999991
   138   1      5.7749999999999915      36.574999999999989      48.124999999999993
   139   1      5.7749999999999915      38.499999999999986       50.04999999999999
   140   1      7.6999999999999886      36.574999999999989       50.04999999999999
   141   1      7.6999999999999886      38.499999999999986      48.124999999999993
   142   1      5.7749999999999915      36.574999999999989      51.974999999999987
   143   1      5.7749999999999915      38.499999999999986      53.899999999999984
   144   1      7.6999999999999886      36.574999999999989      53.899999999999984
   145   1      7.6999999999999886      38.499999999999986      51.974999999999987
   146   1      5.7749999999999915      36.574999999999989      55.824999999999982
   147   1      5.7749999999999915      38.499999999999986      57.749999999999979
   148   1      7.6999999999999886      36.574999999999989      57.749999999999979
   149   1      7.6999999999999886      38.499999999999986      55.824999999999982
   150   1      5.7749999999999915      36.574999999999989      59.674999999999983
   151   1      7.6999999999999886      36.574999999999989       61.59999999999998
   152   1      7.6999999999999886      38.499999999999986      59.674999999999983
   153   1      7.6999999999999886      38.499999999999986      63.524999999999991
   154   1      7.6999999999999886       40.42499999999999      30.799999999999986
   155   1      7.6999999999999886      42.349999999999987      28.874999999999989
   156   1      5.7749999999999915      42.349999999999987      34.649999999999977
   157   1      7.6999999999999886       40.42499999999999      34.649999999999977
   158   1      7.6999999999999886      42.349999999999987       32.72499999999998
   159   1      5.7749999999999915       40.42499999999999      36.574999999999989
   160   1      5.7749999999999915      42.349999999999987      38.499999999999986
   161   1      7.6999999999999886       40.42499999999999      38.499999999999986
   162   1      7.6999999999999886      42.349999999999987      36.574999999999989
   163   1      5.7749999999999915       40.42499999999999       40.42499999999999
   164   1      5.7749999999999915      42.349999999999987      42.349999999999987
   165   1      7.6999999999999886       40.42499999999999      42.349999999999987
   166   1      7.6999999999999886      42.349999999999987       40.42499999999999
   167   1      5.7749999999999915       40.42499999999999      44.274999999999991
   168   1      5.7749999999999915      42.349999999999987      46.199999999999989
   169   1      7.6999999999999886       40.42499999999999      46.199999999999989
   170   1      7.6999999999999886      42.349999999999987      44.274999999999991
   171   1      5.7749999999999915       40.42499999999999      48.124999999999993
   172   1      5.7749999999999915      42.349999999999987       50.04999999999999
   173   1      7.6999999999999886       40.42499999999999       50.04999999999999
   174   1      7.6999999999999886      42.349999999999987      48.124999999999993
   175   1      5.7749999999999915       40.42499999999999      51.974999999999987
   176   1      5.7749999999999915      42.349999999999987      53.899999999999984
   177   1      7.6999999999999886       40.42499999999999      53.899999999999984
   178   1      7.6999999999999886      42.349999999999987      51.974999999999987
   179   1      5.7749999999999915       40.42499999999999      55.824999999999982
   180   1      5.7749999999999915      42.349999999999987      57.749999999999979
   181   1      7.6999999999999886       40.42499999999999      57.749999999999979
   182   1      7.6999999999999886      42.349999999999987      55.824999999999982
   183   1      5.7749999999999915       40.42499999999999      59.674999999999983
   184   1      5.7749999999999915      42.349999999999987       61.59999999999998
   185   1      7.6999999999999886       40.42499999999999       61.59999999999998
   186   1      7.6999999999999886      42.349999999999987      59.674999999999983
   187   1      7.6999999999999886       40.42499999999999      65.449999999999989
   188   1      7.6999999999999886      42.349999999999987      63.524999999999991
   189   1      7.6999999999999886      42.349999999999987      67.374999999999986
   190   1      7.6999999999999886      44.274999999999991      30.799999999999986
   191   1      7.6999999999999886      46.199999999999989      28.874999999999989
   192   1      5.7749999999999915      44.274999999999991       32.72499999999998
   193   1      5.7749999999999915      46.199999999999989      34.649999999999977
   194   1      7.6999999999999886      44.274999999999991      34.649999999999977
   195   1      7.6999999999999886      46.199999999999989       32.72499999999998
   196   1      5.7749999999999915      44.274999999999991      36.574999999999989
   197   1      5.7749999999999915      46.199999999999989      38.499999999999986
   198   1      7.6999999999999886      44.274999999999991      38.499999999999986
   199   1      7.6999999999999886      46.199999999999989      36.574999999999989
   200   1      5.7749999999999915      44.274999999999991       40.42499999999999
   201   1      5.7749999999999915      46.199999999999989      42.349999999999987
   202   1      7.6999999999999886      44.274999999999991      42.349999999999987
   203   1      7.6999999999999886      46.199999999999989       40.42499999999999
   204   1      5.7749999999999915      44.274999999999991      44.274999999999991
   205   1      5.7749999999999915      46.199999999999989      46.199999999999989
   206   1      7.6999999999999886      44.274999999999991      46.199999999999989
   207   1      7.6999999999999886      46.199999999999989      44.274999999999991
   208   1      5.7749999999999915      44.274999999999991      48.124999999999993
   209   1      5.7749999999999915      46.199999999999989       50.04999999999999
   210   1      7.6999999999999886      44.274999999999991       50.04999999999999
   211   1      7.6999999999999886      46.199999999999989      48.124999999999993
   212   1      5.7749999999999915      44.274999999999991      51.974999999999987
   213   1      5.7749999999999915      46.199999999999989      53.899999999999984
   214   1      7.6999999999999886      44.274999999999991      53.899999999999984
   215   1      7.6999999999999886      46.199999999999989      51.974999999999987
   216   1      5.7749999999999915      44.274999999999991      55.824999999999982
   217   1      5.7749999999999915      46.199999999999989      57.749999999999979
   218   1      7.6999999999999886      44.274999999999991      57.749999999999979
   219   1      7.6999999999999886      46.199999999999989      55.824999999999982
   220   1      5.7749999999999915      44.274999999999991      59.674999999999983
   221   1      5.7749999999999915      46.199999999999989       61.59999999999998
   222   1      7.6999999999999886      44.274999999999991       61.59999999999998
   223   1      7.6999999999999886      46.199999999999989      59.674999999999983
   224   1      5.7749999999999915      44.274999999999991      63.524999999999991
   225   1      7.6999999999999886      44.274999999999991      65.449999999999989
   226   1      7.6999999999999886      46.199999999999989      63.524999999999991
   227   1      7.6999999999999886      46.199999999999989      67.374999999999986
   228   1      7.6999999999999886      48.124999999999993      26.949999999999989
   229   1      7.6999999999999886      48.124999999999993      30.799999999999986
   230   1      7.6999999999999886       50.04999999999999      28.874999999999989
   231   1      5.7749999999999915      48.124999999999993       32.72499999999998
   232   1      5.7749999999999915       50.04999999999999      34.649999999999977
   233   1      7.6999999999999886      48.124999999999993      34.649999999999977
   234   1      7.6999999999999886       50.04999999999999       32.72499999999998
   235   1      5.7749999999999915      48.124999999999993      36.574999999999989
   236   1      5.7749999999999915       50.04999999999999      38.499999999999986
   237   1      7.6999999999999886      48.124999999999993      38.499999999999986
   238   1      7.6999999999999886       50.04999999999999      36.574999999999989
   239   1      5.7749999999999915      48.124999999999993       40.42499999999999
   240   1      5.7749999999999915       50.04999999999999      42.349999999999987
   241   1      7.6999999999999886      48.124999999999993      42.349999999999987
   242   1      7.6999999999999886       50.04999999999999       40.42499999999999
   243   1      5.7749999999999915      48.124999999999993      44.274999999999991
   244   1      5.7749999999999915       50.04999999999999      46.199999999999989
   245   1      7.6999999999999886      48.124999999999993      46.199999999999989
   246   1      7.6999999999999886       50.04999999999999      44.274999999999991
   247   1      5.7749999999999915      48.124999999999993      48.124999999999993
   248   1      5.7749999999999915       50.04999999999999       50.04999999999999
   249   1      7.6999999999999886      48.124999999999993       50.04999999999999
   250   1      7.6999999999999886       50.04999999999999      48.124999999999993
   251   1      5.7749999999999915      48.124999999999993      51.974999999999987
   252   1      5.7749999999999915       50.04999999999999      53.899999999999984
   253   1      7.6999999999999886      48.124999999999993      53.899999999999984
   254   1      7.6999999999999886       50.04999999999999      51.974999999999987
   255   1      5.7749999999999915      48.124999999999993      55.824999999999982
   256   1      5.7749999999999915       50.04999999999999      57.749999999999979
   257   1      7.6999999999999886      48.124999999999993      57.749999999999979
   258   1      7.6999999999999886       50.04999999999999      55.824999999999982
   259   1      5.7749999999999915      48.124999999999993      59.674999999999983
   260   1      5.7749999999999915       50.04999999999999       61.59999999999998
   261   1      7.6999999999999886      48.124999999999993       61.59999999999998
   262   1      7.6999999999999886       50.04999999999999      59.674999999999983
   263   1      5.7749999999999915      48.124999999999993      63.524999999999991
   264   1      7.6999999999999886      48.124999999999993      65.449999999999989
   265   1      7.6999999999999886       50.04999999999999      63.524999999999991
   266   1      7.6999999999999886      48.124999999999993      69.299999999999983
   267   1      7.6999999999999886       50.04999999999999      67.374999999999986
   268   1      7.6999999999999886      51.974999999999987      30.799999999999986
   269   1      7.6999999999999886      53.899999999999984      28.874999999999989
   270   1      5.7749999999999915      51.974999999999987       32.72499999999998
   271   1      5.7749999999999915      53.899999999999984      34.649999999999977
   272   1      7.6999999999999886      51.974999999999987      34.649999999999977
   273   1      7.6999999999999886      53.899999999999984       32.72499999999998
   274   1      5.7749999999999915      51.974999999999987      36.574999999999989
   275   1      5.7749999999999915      53.899999999999984      38.499999999999986
   276   1      7.6999999999999886      51.974999999999987      38.499999999999986
   277   1      7.6999999999999886      53.899999999999984      36.574999999999989
   278   1      5.7749999999999915      51.974999999999987       40.42499999999999
   279   1      5.7749999999999915      53.899999999999984      42.349999999999987
   280   1      7.6999999999999886      51.974999999999987      42.349999999999987
   281   1      7.6999999999999886      53.899999999999984       40.42499999999999
   282   1      5.7749999999999915      51.974999999999987      44.274999999999991
   283   1      5.7749999999999915      53.899999999999984      46.199999999999989
   284   1      7.6999999999999886      51.974999999999987      46.199999999999989
   285   1      7.6999999999999886      53.899999999999984      44.274999999999991
   286   1      5.7749999999999915      51.974999999999987      48.124999999999993
   287   1      5.7749999999999915      53.899999999999984       50.04999999999999
   288   1      7.6999999999999886      51.974999999999987       50.04999999999999
   289   1      7.6999999999999886      53.899999999999984      48.124999999999993
   290   1      5.7749999999999915      51.974999999999987      51.974999999999987
   291   1      5.7749999999999915      53.899999999999984      53.899999999999984
   292   1      7.6999999999999886      51.974999999999987      53.899999999999984
   293   1      7.6999999999999886      53.899999999999984      51.974999999999987
   294   1      5.7749999999999915      51.974999999999987      55.824999999999982
   295   1      5.7749999999999915      53.899999999999984      57.749999999999979
   296   1      7.6999999999999886      51.974999999999987      57.749999999999979
   297   1      7.6999999999999886      53.899999999999984      55.824999999999982
   298   1      5.7749999999999915      51.974999999999987      59.674999999999983
   299   1      5.7749999999999915      53.899999999999984       61.59999999999998
   300   1      7.6999999999999886      51.974999999999987       61.59999999999998
   301   1      7.6999999999999886      53.899999999999984      59.674999999999983
   302   1      5.7749999999999915      51.974999999999987      63.524999999999991
   303   1      7.6999999999999886      51.974999999999987      65.449999999999989
   304   1      7.6999999999999886      53.899999999999984      63.524999999999991
   305   1      7.6999999999999886      53.899999999999984      67.374999999999986
   306   1      7.6999999999999886      55.824999999999982      30.799999999999986
   307   1      7.6999999999999886      55.824999999999982      34.649999999999977
   308   1      7.6999999999999886      57.749999999999979       32.72499999999998
   309   1      5.7749999999999915      55.824999999999982      36.574999999999989
   310   1      5.7749999999999915      57.749999999999979      38.499999999999986
   311   1      7.6999999999999886      55.824999999999982      38.499999999999986
   312   1      7.6999999999999886      57.749999999999979      36.574999999999989
   313   1      5.7749999999999915      55.824999999999982       40.42499999999999
   314   1      5.7749999999999915      57.749999999999979      42.349999999999987
   315   1      7.6999999999999886      55.824999999999982      42.349999999999987
   316   1      7.6999999999999886      57.749999999999979       40.42499999999999
   317   1      5.7749999999999915      55.824999999999982      44.274999999999991
   318   1      5.7749999999999915      57.749999999999979      46.199999999999989
   319   1      7.6999999999999886      55.824999999999982      46.199999999999989
   320   1      7.6999999999999886      57.749999999999979      44.274999999999991
   321   1      5.7749999999999915      55.824999999999982      48.124999999999993
   322   1      5.7749999999999915      57.749999999999979       50.04999999999999
   323   1      7.6999999999999886      55.824999999999982       50.04999999999999
   324   1      7.6999999999999886      57.749999999999979      48.124999999999993
   325   1      5.7749999999999915      55.824999999999982      51.974999999999987
   326   1      5.7749999999999915      57.749999999999979      53.899999999999984
   327   1      7.6999999999999886      55.824999999999982      53.899999999999984
   328   1      7.6999999999999886      57.749999999999979      51.974999999999987
   329   1      5.7749999999999915      55.824999999999982      55.824999999999982
   330   1      5.7749999999999915      57.749999999999979      57.749999999999979
   331   1      7.6999999999999886      55.824999999999982      57.749999999999979
   332   1      7.6999999999999886      57.749999999999979      55.824999999999982
   333   1      5.7749999999999915      55.824999999999982      59.674999999999983
   334   1      7.6999999999999886      55.824999999999982       61.59999999999998
   335   1      7.6999999999999886      57.749999999999979      59.674999999999983
   336   1      7.6999999999999886      55.824999999999982      65.449999999999989
   337   1      7.6999999999999886      57.749999999999979      63.524999999999991
   338   1      7.6999999999999886      59.674999999999983      34.649999999999977
   339   1      7.6999999999999886       61.59999999999998       32.72499999999998
   340   1      5.7749999999999915      59.674999999999983      36.574999999999989
   341   1      7.6999999999999886      59.674999999999983      38.499999999999986
   342   1      7.6999999999999886       61.59999999999998      36.574999999999989
   343   1      5.7749999999999915      59.674999999999983       40.42499999999999
   344   1      5.7749999999999915       61.59999999999998      42.349999999999987
   345   1      7.6999999999999886      59.674999999999983      42.349999999999987
   346   1      7.6999999999999886       61.59999999999998       40.42499999999999
   347   1      5.7749999999999915      59.674999999999983      44.274999999999991
   348   1      5.7749999999999915       61.59999999999998      46.199999999999989
   349   1      7.6999999999999886      59.674999999999983      46.199999999999989
   350   1      7.6999999999999886       61.59999999999998      44.274999999999991
   351   1      5.7749999999999915      59.674999999999983      48.124999999999993
   352   1      5.7749999999999915       61.59999999999998       50.04999999999999
   353   1      7.6999999999999886      59.674999999999983       50.04999999999999
   354   1      7.6999999999999886       61.59999999999998      48.124999999999993
   355   1      5.7749999999999915      59.674999999999983      51.974999999999987
   356   1      5.7749999999999915       61.59999999999998      53.899999999999984
   357   1      7.6999999999999886      59.674999999999983      53.899999999999984
   358   1      7.6999999999999886       61.59999999999998      51.974999999999987