model_files/PdCu/PdCu_30000/PdCu_521/PdCu_521_fcc_30329_temp.data (written by ASE) 

30329 	 atoms 
2  atom types
0.0                      94  xlo xhi
0.0                      94  ylo yhi
0.0                      94  zlo zhi


Atoms 

     1   1  1.4210854715202004e-14      45.300000000000011      47.187500000000007
     2   1  1.4210854715202004e-14      47.187500000000007      45.300000000000011
     3   1  1.4210854715202004e-14      47.187500000000007       49.07500000000001
     4   1  1.4210854715202004e-14       49.07500000000001      47.187500000000007
     5   1      3.7750000000000128      35.862500000000011      45.300000000000011
     6   1      3.7750000000000128      37.750000000000014      43.412500000000009
     7   1      3.7750000000000128      35.862500000000011       49.07500000000001
     8   1      3.7750000000000128      37.750000000000014      47.187500000000007
     9   1      3.7750000000000128      37.750000000000014      50.962500000000013
    10   1      3.7750000000000128       39.63750000000001      41.525000000000013
    11   1      3.7750000000000128      41.525000000000013       39.63750000000001
    12   1      1.8875000000000099      41.525000000000013      45.300000000000011
    13   1      3.7750000000000128       39.63750000000001      45.300000000000011
    14   1      3.7750000000000128      41.525000000000013      43.412500000000009
    15   1      1.8875000000000099       39.63750000000001      47.187500000000007
    16   1      1.8875000000000099      41.525000000000013       49.07500000000001
    17   1      3.7750000000000128       39.63750000000001       49.07500000000001
    18   1      3.7750000000000128      41.525000000000013      47.187500000000007
    19   1      3.7750000000000128       39.63750000000001      52.850000000000016
    20   1      3.7750000000000128      41.525000000000013      50.962500000000013
    21   1      3.7750000000000128      41.525000000000013      54.737500000000004
    22   1      3.7750000000000128      43.412500000000009      37.750000000000014
    23   1      3.7750000000000128      45.300000000000011      35.862500000000011
    24   1      1.8875000000000099      45.300000000000011      41.525000000000013
    25   1      3.7750000000000128      43.412500000000009      41.525000000000013
    26   1      3.7750000000000128      45.300000000000011       39.63750000000001
    27   1      1.8875000000000099      43.412500000000009      43.412500000000009
    28   1      1.8875000000000099      45.300000000000011      45.300000000000011
    29   1      3.7750000000000128      43.412500000000009      45.300000000000011
    30   1      3.7750000000000128      45.300000000000011      43.412500000000009
    31   1      1.8875000000000099      43.412500000000009      47.187500000000007
    32   1      1.8875000000000099      45.300000000000011       49.07500000000001
    33   1      3.7750000000000128      43.412500000000009       49.07500000000001
    34   1      3.7750000000000128      45.300000000000011      47.187500000000007
    35   1      1.8875000000000099      43.412500000000009      50.962500000000013
    36   1      1.8875000000000099      45.300000000000011      52.850000000000016
    37   1      3.7750000000000128      43.412500000000009      52.850000000000016
    38   1      3.7750000000000128      45.300000000000011      50.962500000000013
    39   1      3.7750000000000128      43.412500000000009      56.625000000000007
    40   1      3.7750000000000128      45.300000000000011      54.737500000000004
    41   1      3.7750000000000128      45.300000000000011       58.51250000000001
    42   1      3.7750000000000128      47.187500000000007      37.750000000000014
    43   1      3.7750000000000128       49.07500000000001      35.862500000000011
    44   1      1.8875000000000099      47.187500000000007       39.63750000000001
    45   1      1.8875000000000099       49.07500000000001      41.525000000000013
    46   1      3.7750000000000128      47.187500000000007      41.525000000000013
    47   1      3.7750000000000128       49.07500000000001       39.63750000000001
    48   1      1.8875000000000099      47.187500000000007      43.412500000000009
    49   1      1.8875000000000099       49.07500000000001      45.300000000000011
    50   1      3.7750000000000128      47.187500000000007      45.300000000000011
    51   1      3.7750000000000128       49.07500000000001      43.412500000000009
    52   1      1.8875000000000099      47.187500000000007      47.187500000000007
    53   1      1.8875000000000099       49.07500000000001       49.07500000000001
    54   1      3.7750000000000128      47.187500000000007       49.07500000000001
    55   1      3.7750000000000128       49.07500000000001      47.187500000000007
    56   1      1.8875000000000099      47.187500000000007      50.962500000000013
    57   1      1.8875000000000099       49.07500000000001      52.850000000000016
    58   1      3.7750000000000128      47.187500000000007      52.850000000000016
    59   1      3.7750000000000128       49.07500000000001      50.962500000000013
    60   1      1.8875000000000099      47.187500000000007      54.737500000000004
    61   1      3.7750000000000128      47.187500000000007      56.625000000000007
    62   1      3.7750000000000128       49.07500000000001      54.737500000000004
    63   1      3.7750000000000128       49.07500000000001       58.51250000000001
    64   1      3.7750000000000128      50.962500000000013      37.750000000000014
    65   1      3.7750000000000128      50.962500000000013      41.525000000000013
    66   1      3.7750000000000128      52.850000000000016       39.63750000000001
    67   1      1.8875000000000099      50.962500000000013      43.412500000000009
    68   1      1.8875000000000099      52.850000000000016      45.300000000000011
    69   1      3.7750000000000128      50.962500000000013      45.300000000000011
    70   1      3.7750000000000128      52.850000000000016      43.412500000000009
    71   1      1.8875000000000099      50.962500000000013      47.187500000000007
    72   1      1.8875000000000099      52.850000000000016       49.07500000000001
    73   1      3.7750000000000128      50.962500000000013       49.07500000000001
    74   1      3.7750000000000128      52.850000000000016      47.187500000000007
    75   1      1.8875000000000099      50.962500000000013      50.962500000000013
    76   1      3.7750000000000128      50.962500000000013      52.850000000000016
    77   1      3.7750000000000128      52.850000000000016      50.962500000000013
    78   1      3.7750000000000128      50.962500000000013      56.625000000000007
    79   1      3.7750000000000128      52.850000000000016      54.737500000000004
    80   1      3.7750000000000128      54.737500000000004      41.525000000000013
    81   1      3.7750000000000128      54.737500000000004      45.300000000000011
    82   1      3.7750000000000128      56.625000000000007      43.412500000000009
    83   1      1.8875000000000099      54.737500000000004      47.187500000000007
    84   1      3.7750000000000128      54.737500000000004       49.07500000000001
    85   1      3.7750000000000128      56.625000000000007      47.187500000000007
    86   1      3.7750000000000128      54.737500000000004      52.850000000000016
    87   1      3.7750000000000128      56.625000000000007      50.962500000000013
    88   1      3.7750000000000128       58.51250000000001      45.300000000000011
    89   1      3.7750000000000128       58.51250000000001       49.07500000000001
    90   1      7.5500000000000105      26.425000000000011      47.187500000000007
    91   1      7.5500000000000105      28.312500000000011      41.525000000000013
    92   1      7.5500000000000105      30.200000000000006       39.63750000000001
    93   1      7.5500000000000105      28.312500000000011      45.300000000000011
    94   1      7.5500000000000105      30.200000000000006      43.412500000000009
    95   1      7.5500000000000105      28.312500000000011       49.07500000000001
    96   1      7.5500000000000105      30.200000000000006      47.187500000000007
    97   1      7.5500000000000105      28.312500000000011      52.850000000000016
    98   1      7.5500000000000105      30.200000000000006      50.962500000000013
    99   1      7.5500000000000105      30.200000000000006      54.737500000000004
   100   1      7.5500000000000105      32.087500000000013      33.975000000000016
   101   1      7.5500000000000105      33.975000000000016      32.087500000000013
   102   1      7.5500000000000105      32.087500000000013      37.750000000000014
   103   1      7.5500000000000105      33.975000000000016      35.862500000000011
   104   1      5.6625000000000085      33.975000000000016      41.525000000000013
   105   1      7.5500000000000105      32.087500000000013      41.525000000000013
   106   1      7.5500000000000105      33.975000000000016       39.63750000000001
   107   1      5.6625000000000085      32.087500000000013      43.412500000000009
   108   1      5.6625000000000085      33.975000000000016      45.300000000000011
   109   1      7.5500000000000105      32.087500000000013      45.300000000000011
   110   1      7.5500000000000105      33.975000000000016      43.412500000000009
   111   1      5.6625000000000085      32.087500000000013      47.187500000000007
   112   1      5.6625000000000085      33.975000000000016       49.07500000000001
   113   1      7.5500000000000105      32.087500000000013       49.07500000000001
   114   1      7.5500000000000105      33.975000000000016      47.187500000000007
   115   1      5.6625000000000085      32.087500000000013      50.962500000000013
   116   1      5.6625000000000085      33.975000000000016      52.850000000000016
   117   1      7.5500000000000105      32.087500000000013      52.850000000000016
   118   1      7.5500000000000105      33.975000000000016      50.962500000000013
   119   1      7.5500000000000105      32.087500000000013      56.625000000000007
   120   1      7.5500000000000105      33.975000000000016      54.737500000000004
   121   1      7.5500000000000105      32.087500000000013      60.400000000000013
   122   1      7.5500000000000105      33.975000000000016       58.51250000000001
   123   1      7.5500000000000105      33.975000000000016      62.287500000000009
   124   1      7.5500000000000105      35.862500000000011      33.975000000000016
   125   1      7.5500000000000105      37.750000000000014      32.087500000000013
   126   1      5.6625000000000085      35.862500000000011      35.862500000000011
   127   1      5.6625000000000085      37.750000000000014      37.750000000000014
   128   1      7.5500000000000105      35.862500000000011      37.750000000000014
   129   1      7.5500000000000105      37.750000000000014      35.862500000000011
   130   1      5.6625000000000085      35.862500000000011       39.63750000000001
   131   1      5.6625000000000085      37.750000000000014      41.525000000000013
   132   1      7.5500000000000105      35.862500000000011      41.525000000000013
   133   1      7.5500000000000105      37.750000000000014       39.63750000000001
   134   1      5.6625000000000085      35.862500000000011      43.412500000000009
   135   1      5.6625000000000085      37.750000000000014      45.300000000000011
   136   1      7.5500000000000105      35.862500000000011      45.300000000000011
   137   1      7.5500000000000105      37.750000000000014      43.412500000000009
   138   1      5.6625000000000085      35.862500000000011      47.187500000000007
   139   1      5.6625000000000085      37.750000000000014       49.07500000000001
   140   1      7.5500000000000105      35.862500000000011       49.07500000000001
   141   1      7.5500000000000105      37.750000000000014      47.187500000000007
   142   1      5.6625000000000085      35.862500000000011      50.962500000000013
   143   1      5.6625000000000085      37.750000000000014      52.850000000000016
   144   1      7.5500000000000105      35.862500000000011      52.850000000000016
   145   1      7.5500000000000105      37.750000000000014      50.962500000000013
   146   1      5.6625000000000085      35.862500000000011      54.737500000000004
   147   1      5.6625000000000085      37.750000000000014      56.625000000000007
   148   1      7.5500000000000105      35.862500000000011      56.625000000000007
   149   1      7.5500000000000105      37.750000000000014      54.737500000000004
   150   1      5.6625000000000085      35.862500000000011       58.51250000000001
   151   1      7.5500000000000105      35.862500000000011      60.400000000000013
   152   1      7.5500000000000105      37.750000000000014       58.51250000000001
   153   1      7.5500000000000105      37.750000000000014      62.287500000000009
   154   1      7.5500000000000105       39.63750000000001      30.200000000000006
   155   1      7.5500000000000105      41.525000000000013      28.312500000000011
   156   1      5.6625000000000085      41.525000000000013      33.975000000000016
   157   1      7.5500000000000105       39.63750000000001      33.975000000000016
   158   1      7.5500000000000105      41.525000000000013      32.087500000000013
   159   1      5.6625000000000085       39.63750000000001      35.862500000000011
   160   1      5.6625000000000085      41.525000000000013      37.750000000000014
   161   1      7.5500000000000105       39.63750000000001      37.750000000000014
   162   1      7.5500000000000105      41.525000000000013      35.862500000000011
   163   1      5.6625000000000085       39.63750000000001       39.63750000000001
   164   1      5.6625000000000085      41.525000000000013      41.525000000000013
   165   1      7.5500000000000105       39.63750000000001      41.525000000000013
   166   1      7.5500000000000105      41.525000000000013       39.63750000000001
   167   1      5.6625000000000085       39.63750000000001      43.412500000000009
   168   1      5.6625000000000085      41.525000000000013      45.300000000000011
   169   1      7.5500000000000105       39.63750000000001      45.300000000000011
   170   1      7.5500000000000105      41.525000000000013      43.412500000000009
   171   1      5.6625000000000085       39.63750000000001      47.187500000000007
   172   1      5.6625000000000085      41.525000000000013       49.07500000000001
   173   1      7.5500000000000105       39.63750000000001       49.07500000000001
   174   1      7.5500000000000105      41.525000000000013      47.187500000000007
   175   1      5.6625000000000085       39.63750000000001      50.962500000000013
   176   1      5.6625000000000085      41.525000000000013      52.850000000000016
   177   1      7.5500000000000105       39.63750000000001      52.850000000000016
   178   1      7.5500000000000105      41.525000000000013      50.962500000000013
   179   1      5.6625000000000085       39.63750000000001      54.737500000000004
   180   1      5.6625000000000085      41.525000000000013      56.625000000000007
   181   1      7.5500000000000105       39.63750000000001      56.625000000000007
   182   1      7.5500000000000105      41.525000000000013      54.737500000000004
   183   1      5.6625000000000085       39.63750000000001       58.51250000000001
   184   1      5.6625000000000085      41.525000000000013      60.400000000000013
   185   1      7.5500000000000105       39.63750000000001      60.400000000000013
   186   1      7.5500000000000105      41.525000000000013       58.51250000000001
   187   1      7.5500000000000105       39.63750000000001      64.175000000000011
   188   1      7.5500000000000105      41.525000000000013      62.287500000000009
   189   1      7.5500000000000105      41.525000000000013      66.062500000000014
   190   1      7.5500000000000105      43.412500000000009      30.200000000000006
   191   1      7.5500000000000105      45.300000000000011      28.312500000000011
   192   1      5.6625000000000085      43.412500000000009      32.087500000000013
   193   1      5.6625000000000085      45.300000000000011      33.975000000000016
   194   1      7.5500000000000105      43.412500000000009      33.975000000000016
   195   1      7.5500000000000105      45.300000000000011      32.087500000000013
   196   1      5.6625000000000085      43.412500000000009      35.862500000000011
   197   1      5.6625000000000085      45.300000000000011      37.750000000000014
   198   1      7.5500000000000105      43.412500000000009      37.750000000000014
   199   1      7.5500000000000105      45.300000000000011      35.862500000000011
   200   1      5.6625000000000085      43.412500000000009       39.63750000000001
   201   1      5.6625000000000085      45.300000000000011      41.525000000000013
   202   1      7.5500000000000105      43.412500000000009      41.525000000000013
   203   1      7.5500000000000105      45.300000000000011       39.63750000000001
   204   1      5.6625000000000085      43.412500000000009      43.412500000000009
   205   1      5.6625000000000085      45.300000000000011      45.300000000000011
   206   1      7.5500000000000105      43.412500000000009      45.300000000000011
   207   1      7.5500000000000105      45.300000000000011      43.412500000000009
   208   1      5.6625000000000085      43.412500000000009      47.187500000000007
   209   1      5.6625000000000085      45.300000000000011       49.07500000000001
   210   1      7.5500000000000105      43.412500000000009       49.07500000000001
   211   1      7.5500000000000105      45.300000000000011      47.187500000000007
   212   1      5.6625000000000085      43.412500000000009      50.962500000000013
   213   1      5.6625000000000085      45.300000000000011      52.850000000000016
   214   1      7.5500000000000105      43.412500000000009      52.850000000000016
   215   1      7.5500000000000105      45.300000000000011      50.962500000000013
   216   1      5.6625000000000085      43.412500000000009      54.737500000000004
   217   1      5.6625000000000085      45.300000000000011      56.625000000000007
   218   1      7.5500000000000105      43.412500000000009      56.625000000000007
   219   1      7.5500000000000105      45.300000000000011      54.737500000000004
   220   1      5.6625000000000085      43.412500000000009       58.51250000000001
   221   1      5.6625000000000085      45.300000000000011      60.400000000000013
   222   1      7.5500000000000105      43.412500000000009      60.400000000000013
   223   1      7.5500000000000105      45.300000000000011       58.51250000000001
   224   1      5.6625000000000085      43.412500000000009      62.287500000000009
   225   1      7.5500000000000105      43.412500000000009      64.175000000000011
   226   1      7.5500000000000105      45.300000000000011      62.287500000000009
   227   1      7.5500000000000105      45.300000000000011      66.062500000000014
   228   1      7.5500000000000105      47.187500000000007      26.425000000000011
   229   1      7.5500000000000105      47.187500000000007      30.200000000000006
   230   1      7.5500000000000105       49.07500000000001      28.312500000000011
   231   1      5.6625000000000085      47.187500000000007      32.087500000000013
   232   1      5.6625000000000085       49.07500000000001      33.975000000000016
   233   1      7.5500000000000105      47.187500000000007      33.975000000000016
   234   1      7.5500000000000105       49.07500000000001      32.087500000000013
   235   1      5.6625000000000085      47.187500000000007      35.862500000000011
   236   1      5.6625000000000085       49.07500000000001      37.750000000000014
   237   1      7.5500000000000105      47.187500000000007      37.750000000000014
   238   1      7.5500000000000105       49.07500000000001      35.862500000000011
   239   1      5.6625000000000085      47.187500000000007       39.63750000000001
   240   1      5.6625000000000085       49.07500000000001      41.525000000000013
   241   1      7.5500000000000105      47.187500000000007      41.525000000000013
   242   1      7.5500000000000105       49.07500000000001       39.63750000000001
   243   1      5.6625000000000085      47.187500000000007      43.412500000000009
   244   1      5.6625000000000085       49.07500000000001      45.300000000000011
   245   1      7.5500000000000105      47.187500000000007      45.300000000000011
   246   1      7.5500000000000105       49.07500000000001      43.412500000000009
   247   1      5.6625000000000085      47.187500000000007      47.187500000000007
   248   1      5.6625000000000085       49.07500000000001       49.07500000000001
   249   1      7.5500000000000105      47.187500000000007       49.07500000000001
   250   1      7.5500000000000105       49.07500000000001      47.187500000000007
   251   1      5.6625000000000085      47.187500000000007      50.962500000000013
   252   1      5.6625000000000085       49.07500000000001      52.850000000000016
   253   1      7.5500000000000105      47.187500000000007      52.850000000000016
   254   1      7.5500000000000105       49.07500000000001      50.962500000000013
   255   1      5.6625000000000085      47.187500000000007      54.737500000000004
   256   1      5.6625000000000085       49.07500000000001      56.625000000000007
   257   1      7.5500000000000105      47.187500000000007      56.625000000000007
   258   1      7.5500000000000105       49.07500000000001      54.737500000000004
   259   1      5.6625000000000085      47.187500000000007       58.51250000000001
   260   1      5.6625000000000085       49.07500000000001      60.400000000000013
   261   1      7.5500000000000105      47.187500000000007      60.400000000000013
   262   1      7.5500000000000105       49.07500000000001       58.51250000000001
   263   1      5.6625000000000085      47.187500000000007      62.287500000000009
   264   1      7.5500000000000105      47.187500000000007      64.175000000000011
   265   1      7.5500000000000105       49.07500000000001      62.287500000000009
   266   1      7.5500000000000105      47.187500000000007      67.950000000000017
   267   1      7.5500000000000105       49.07500000000001      66.062500000000014
   268   1      7.5500000000000105      50.962500000000013      30.200000000000006
   269   1      7.5500000000000105      52.850000000000016      28.312500000000011
   270   1      5.6625000000000085      50.962500000000013      32.087500000000013
   271   1      5.6625000000000085      52.850000000000016      33.975000000000016
   272   1      7.5500000000000105      50.962500000000013      33.975000000000016
   273   1      7.5500000000000105      52.850000000000016      32.087500000000013
   274   1      5.6625000000000085      50.962500000000013      35.862500000000011
   275   1      5.6625000000000085      52.850000000000016      37.750000000000014
   276   1      7.5500000000000105      50.962500000000013      37.750000000000014
   277   1      7.5500000000000105      52.850000000000016      35.862500000000011
   278   1      5.6625000000000085      50.962500000000013       39.63750000000001
   279   1      5.6625000000000085      52.850000000000016      41.525000000000013
   280   1      7.5500000000000105      50.962500000000013      41.525000000000013
   281   1      7.5500000000000105      52.850000000000016       39.63750000000001
   282   1      5.6625000000000085      50.962500000000013      43.412500000000009
   283   1      5.6625000000000085      52.850000000000016      45.300000000000011
   284   1      7.5500000000000105      50.962500000000013      45.300000000000011
   285   1      7.5500000000000105      52.850000000000016      43.412500000000009
   286   1      5.6625000000000085      50.962500000000013      47.187500000000007
   287   1      5.6625000000000085      52.850000000000016       49.07500000000001
   288   1      7.5500000000000105      50.962500000000013       49.07500000000001
   289   1      7.5500000000000105      52.850000000000016      47.187500000000007
   290   1      5.6625000000000085      50.962500000000013      50.962500000000013
   291   1      5.6625000000000085      52.850000000000016      52.850000000000016
   292   1      7.5500000000000105      50.962500000000013      52.850000000000016
   293   1      7.5500000000000105      52.850000000000016      50.962500000000013
   294   1      5.6625000000000085      50.962500000000013      54.737500000000004
   295   1      5.6625000000000085      52.850000000000016      56.625000000000007
   296   1      7.5500000000000105      50.962500000000013      56.625000000000007
   297   1      7.5500000000000105      52.850000000000016      54.737500000000004
   298   1      5.6625000000000085      50.962500000000013       58.51250000000001
   299   1      5.6625000000000085      52.850000000000016      60.400000000000013
   300   1      7.5500000000000105      50.962500000000013      60.400000000000013
   301   1      7.5500000000000105      52.850000000000016       58.51250000000001
   302   1      5.6625000000000085      50.962500000000013      62.287500000000009
   303   1      7.5500000000000105      50.962500000000013      64.175000000000011
   304   1      7.5500000000000105      52.850000000000016      62.287500000000009
   305   1      7.5500000000000105      52.850000000000016      66.062500000000014
   306   1      7.5500000000000105      54.737500000000004      30.200000000000006
   307   1      7.5500000000000105      54.737500000000004      33.975000000000016
   308   1      7.5500000000000105      56.625000000000007      32.087500000000013
   309   1      5.6625000000000085      54.737500000000004      35.862500000000011
   310   1      5.6625000000000085      56.625000000000007      37.750000000000014
   311   1      7.5500000000000105      54.737500000000004      37.750000000000014
   312   1      7.5500000000000105      56.625000000000007      35.862500000000011
   313   1      5.6625000000000085      54.737500000000004       39.63750000000001
   314   1      5.6625000000000085      56.625000000000007      41.525000000000013
   315   1      7.5500000000000105      54.737500000000004      41.525000000000013
   316   1      7.5500000000000105      56.625000000000007       39.63750000000001
   317   1      5.6625000000000085      54.737500000000004      43.412500000000009
   318   1      5.6625000000000085      56.625000000000007      45.300000000000011
   319   1      7.5500000000000105      54.737500000000004      45.300000000000011
   320   1      7.5500000000000105      56.625000000000007      43.412500000000009
   321   1      5.6625000000000085      54.737500000000004      47.187500000000007
   322   1      5.6625000000000085      56.625000000000007       49.07500000000001
   323   1      7.5500000000000105      54.737500000000004       49.07500000000001
   324   1      7.5500000000000105      56.625000000000007      47.187500000000007
   325   1      5.6625000000000085      54.737500000000004      50.962500000000013
   326   1      5.6625000000000085      56.625000000000007      52.850000000000016
   327   1      7.5500000000000105      54.737500000000004      52.850000000000016
   328   1      7.5500000000000105      56.625000000000007      50.962500000000013
   329   1      5.6625000000000085      54.737500000000004      54.737500000000004
   330   1      5.6625000000000085      56.625000000000007      56.625000000000007
   331   1      7.5500000000000105      54.737500000000004      56.625000000000007
   332   1      7.5500000000000105      56.625000000000007      54.737500000000004
   333   1      5.6625000000000085      54.737500000000004       58.51250000000001
   334   1      7.5500000000000105      54.737500000000004      60.400000000000013
   335   1      7.5500000000000105      56.625000000000007       58.51250000000001
   336   1      7.5500000000000105      54.737500000000004      64.175000000000011
   337   1      7.5500000000000105      56.625000000000007      62.287500000000009
   338   1      7.5500000000000105       58.51250000000001      33.975000000000016
   339   1      7.5500000000000105      60.400000000000013      32.087500000000013
   340   1      5.6625000000000085       58.51250000000001      35.862500000000011
   341   1      7.5500000000000105       58.51250000000001      37.750000000000014
   342   1      7.5500000000000105      60.400000000000013      35.862500000000011
   343   1      5.6625000000000085       58.51250000000001       39.63750000000001
   344   1      5.6625000000000085      60.400000000000013      41.525000000000013
   345   1      7.5500000000000105       58.51250000000001      41.525000000000013
   346   1      7.5500000000000105      60.400000000000013       39.63750000000001
   347   1      5.6625000000000085       58.51250000000001      43.412500000000009
   348   1      5.6625000000000085      60.400000000000013      45.300000000000011
   349   1      7.5500000000000105       58.51250000000001      45.300000000000011
   350   1      7.5500000000000105      60.400000000000013      43.412500000000009
   351   1      5.6625000000000085       58.51250000000001      47.187500000000007
   352   1      5.6625000000000085      60.400000000000013       49.07500000000001
   353   1      7.5500000000000105       58.51250000000001       49.07500000000001
   354   1      7.5500000000000105      60.400000000000013      47.187500000000007
   355   1      5.6625000000000085       58.51250000000001      50.962500000000013
   356   1      5.6625000000000085      60.400000000000013      52.850000000000016
   357   1      7.5500000000000105       58.51250000000001      52.850000000000016
   358   1      7.5500000000000105      60.400000000000013      50.962500000000013