model_files/NiCoCrFeMn/NiCoCrFeMn_30000/NiCoCrFeMn_430/NiCoCrFeMn_430_fcc_29909_temp.data (written by ASE) 

29909 	 atoms 
5  atom types
0.0                     100  xlo xhi
0.0                     100  ylo yhi
0.0                     100  zlo zhi


Atoms 

     1   1      1.7974999999999994      48.532500000000006      50.330000000000005
     2   1      1.7974999999999994      50.330000000000005      48.532500000000006
     3   1                       0      50.330000000000005      50.330000000000005
     4   1      1.7974999999999994      50.330000000000005      52.127500000000005
     5   1      1.7974999999999994      52.127500000000005      50.330000000000005
     6   1      3.5949999999999989                 44.9375                 44.9375
     7   1      5.3925000000000054      43.140000000000001                 44.9375
     8   1      5.3925000000000054                 44.9375      43.140000000000001
     9   1      3.5949999999999989                 44.9375      48.532500000000006
    10   1      5.3925000000000054      43.140000000000001      48.532500000000006
    11   1      5.3925000000000054                 44.9375      46.735000000000007
    12   1      3.5949999999999989                 44.9375      52.127500000000005
    13   1      5.3925000000000054      43.140000000000001      52.127500000000005
    14   1      5.3925000000000054                 44.9375      50.330000000000005
    15   1      3.5949999999999989                 44.9375      55.722500000000011
    16   1      5.3925000000000054      43.140000000000001      55.722500000000011
    17   1      5.3925000000000054                 44.9375      53.924999999999997
    18   1      5.3925000000000054                 44.9375      57.520000000000003
    19   1      3.5949999999999989      48.532500000000006                 44.9375
    20   1      5.3925000000000054      46.735000000000007                 44.9375
    21   1      5.3925000000000054      48.532500000000006      43.140000000000001
    22   1      3.5949999999999989      46.735000000000007      46.735000000000007
    23   1      3.5949999999999989      48.532500000000006      48.532500000000006
    24   1      5.3925000000000054      46.735000000000007      48.532500000000006
    25   1      5.3925000000000054      48.532500000000006      46.735000000000007
    26   1      3.5949999999999989      46.735000000000007      50.330000000000005
    27   1      3.5949999999999989      48.532500000000006      52.127500000000005
    28   1      5.3925000000000054      46.735000000000007      52.127500000000005
    29   1      5.3925000000000054      48.532500000000006      50.330000000000005
    30   1      3.5949999999999989      46.735000000000007      53.924999999999997
    31   1      3.5949999999999989      48.532500000000006      55.722500000000011
    32   1      5.3925000000000054      46.735000000000007      55.722500000000011
    33   1      5.3925000000000054      48.532500000000006      53.924999999999997
    34   1      5.3925000000000054      48.532500000000006      57.520000000000003
    35   1      3.5949999999999989      52.127500000000005                 44.9375
    36   1      5.3925000000000054      50.330000000000005                 44.9375
    37   1      5.3925000000000054      52.127500000000005      43.140000000000001
    38   1      3.5949999999999989      50.330000000000005      46.735000000000007
    39   1      3.5949999999999989      52.127500000000005      48.532500000000006
    40   1      5.3925000000000054      50.330000000000005      48.532500000000006
    41   1      5.3925000000000054      52.127500000000005      46.735000000000007
    42   1      3.5949999999999989      50.330000000000005      50.330000000000005
    43   1      3.5949999999999989      52.127500000000005      52.127500000000005
    44   1      5.3925000000000054      50.330000000000005      52.127500000000005
    45   1      5.3925000000000054      52.127500000000005      50.330000000000005
    46   1      3.5949999999999989      50.330000000000005      53.924999999999997
    47   1      3.5949999999999989      52.127500000000005      55.722500000000011
    48   1      5.3925000000000054      50.330000000000005      55.722500000000011
    49   1      5.3925000000000054      52.127500000000005      53.924999999999997
    50   1      5.3925000000000054      52.127500000000005      57.520000000000003
    51   1      3.5949999999999989      55.722500000000011                 44.9375
    52   1      5.3925000000000054      53.924999999999997                 44.9375
    53   1      5.3925000000000054      55.722500000000011      43.140000000000001
    54   1      3.5949999999999989      53.924999999999997      46.735000000000007
    55   1      3.5949999999999989      55.722500000000011      48.532500000000006
    56   1      5.3925000000000054      53.924999999999997      48.532500000000006
    57   1      5.3925000000000054      55.722500000000011      46.735000000000007
    58   1      3.5949999999999989      53.924999999999997      50.330000000000005
    59   1      3.5949999999999989      55.722500000000011      52.127500000000005
    60   1      5.3925000000000054      53.924999999999997      52.127500000000005
    61   1      5.3925000000000054      55.722500000000011      50.330000000000005
    62   1      3.5949999999999989      53.924999999999997      53.924999999999997
    63   1      3.5949999999999989      55.722500000000011      55.722500000000011
    64   1      5.3925000000000054      53.924999999999997      55.722500000000011
    65   1      5.3925000000000054      55.722500000000011      53.924999999999997
    66   1      5.3925000000000054      55.722500000000011      57.520000000000003
    67   1      5.3925000000000054      57.520000000000003                 44.9375
    68   1      5.3925000000000054      57.520000000000003      48.532500000000006
    69   1      5.3925000000000054      57.520000000000003      52.127500000000005
    70   1      5.3925000000000054      57.520000000000003      55.722500000000011
    71   1      8.9875000000000043      37.747500000000002      39.545000000000002
    72   1      8.9875000000000043      37.747500000000002      43.140000000000001
    73   1      8.9875000000000043      37.747500000000002      46.735000000000007
    74   1      8.9875000000000043      37.747500000000002      50.330000000000005
    75   1      8.9875000000000043      37.747500000000002      53.924999999999997
    76   1      8.9875000000000043      37.747500000000002      57.520000000000003
    77   1      8.9875000000000043      37.747500000000002      61.115000000000009
    78   1      8.9875000000000043      39.545000000000002      37.747500000000002
    79   1      7.1900000000000048      41.342500000000001      41.342500000000001
    80   1      8.9875000000000043      39.545000000000002      41.342500000000001
    81   1      8.9875000000000043      41.342500000000001      39.545000000000002
    82   1      7.1900000000000048      41.342500000000001                 44.9375
    83   1      8.9875000000000043      39.545000000000002                 44.9375
    84   1      8.9875000000000043      41.342500000000001      43.140000000000001
    85   1      7.1900000000000048      41.342500000000001      48.532500000000006
    86   1      8.9875000000000043      39.545000000000002      48.532500000000006
    87   1      8.9875000000000043      41.342500000000001      46.735000000000007
    88   1      7.1900000000000048      41.342500000000001      52.127500000000005
    89   1      8.9875000000000043      39.545000000000002      52.127500000000005
    90   1      8.9875000000000043      41.342500000000001      50.330000000000005
    91   1      7.1900000000000048      41.342500000000001      55.722500000000011
    92   1      8.9875000000000043      39.545000000000002      55.722500000000011
    93   1      8.9875000000000043      41.342500000000001      53.924999999999997
    94   1      7.1900000000000048      41.342500000000001      59.317500000000003
    95   1      8.9875000000000043      39.545000000000002      59.317500000000003
    96   1      8.9875000000000043      41.342500000000001      57.520000000000003
    97   1      8.9875000000000043      39.545000000000002      62.912500000000001
    98   1      8.9875000000000043      41.342500000000001      61.115000000000009
    99   1      8.9875000000000043      43.140000000000001      37.747500000000002
   100   1      7.1900000000000048                 44.9375      41.342500000000001
   101   1      8.9875000000000043      43.140000000000001      41.342500000000001
   102   1      8.9875000000000043                 44.9375      39.545000000000002
   103   1      7.1900000000000048      43.140000000000001      43.140000000000001
   104   1      7.1900000000000048                 44.9375                 44.9375
   105   1      8.9875000000000043      43.140000000000001                 44.9375
   106   1      8.9875000000000043                 44.9375      43.140000000000001
   107   1      7.1900000000000048      43.140000000000001      46.735000000000007
   108   1      7.1900000000000048                 44.9375      48.532500000000006
   109   1      8.9875000000000043      43.140000000000001      48.532500000000006
   110   1      8.9875000000000043                 44.9375      46.735000000000007
   111   1      7.1900000000000048      43.140000000000001      50.330000000000005
   112   1      7.1900000000000048                 44.9375      52.127500000000005
   113   1      8.9875000000000043      43.140000000000001      52.127500000000005
   114   1      8.9875000000000043                 44.9375      50.330000000000005
   115   1      7.1900000000000048      43.140000000000001      53.924999999999997
   116   1      7.1900000000000048                 44.9375      55.722500000000011
   117   1      8.9875000000000043      43.140000000000001      55.722500000000011
   118   1      8.9875000000000043                 44.9375      53.924999999999997
   119   1      7.1900000000000048      43.140000000000001      57.520000000000003
   120   1      7.1900000000000048                 44.9375      59.317500000000003
   121   1      8.9875000000000043      43.140000000000001      59.317500000000003
   122   1      8.9875000000000043                 44.9375      57.520000000000003
   123   1      8.9875000000000043      43.140000000000001      62.912500000000001
   124   1      8.9875000000000043                 44.9375      61.115000000000009
   125   1      8.9875000000000043      46.735000000000007      37.747500000000002
   126   1      7.1900000000000048      48.532500000000006      41.342500000000001
   127   1      8.9875000000000043      46.735000000000007      41.342500000000001
   128   1      8.9875000000000043      48.532500000000006      39.545000000000002
   129   1      7.1900000000000048      46.735000000000007      43.140000000000001
   130   1      7.1900000000000048      48.532500000000006                 44.9375
   131   1      8.9875000000000043      46.735000000000007                 44.9375
   132   1      8.9875000000000043      48.532500000000006      43.140000000000001
   133   1      7.1900000000000048      46.735000000000007      46.735000000000007
   134   1      7.1900000000000048      48.532500000000006      48.532500000000006
   135   1      8.9875000000000043      46.735000000000007      48.532500000000006
   136   1      8.9875000000000043      48.532500000000006      46.735000000000007
   137   1      7.1900000000000048      46.735000000000007      50.330000000000005
   138   1      7.1900000000000048      48.532500000000006      52.127500000000005
   139   1      8.9875000000000043      46.735000000000007      52.127500000000005
   140   1      8.9875000000000043      48.532500000000006      50.330000000000005
   141   1      7.1900000000000048      46.735000000000007      53.924999999999997
   142   1      7.1900000000000048      48.532500000000006      55.722500000000011
   143   1      8.9875000000000043      46.735000000000007      55.722500000000011
   144   1      8.9875000000000043      48.532500000000006      53.924999999999997
   145   1      7.1900000000000048      46.735000000000007      57.520000000000003
   146   1      7.1900000000000048      48.532500000000006      59.317500000000003
   147   1      8.9875000000000043      46.735000000000007      59.317500000000003
   148   1      8.9875000000000043      48.532500000000006      57.520000000000003
   149   1      8.9875000000000043      46.735000000000007      62.912500000000001
   150   1      8.9875000000000043      48.532500000000006      61.115000000000009
   151   1      8.9875000000000043      50.330000000000005      37.747500000000002
   152   1      7.1900000000000048      52.127500000000005      41.342500000000001
   153   1      8.9875000000000043      50.330000000000005      41.342500000000001
   154   1      8.9875000000000043      52.127500000000005      39.545000000000002
   155   1      7.1900000000000048      50.330000000000005      43.140000000000001
   156   1      7.1900000000000048      52.127500000000005                 44.9375
   157   1      8.9875000000000043      50.330000000000005                 44.9375
   158   1      8.9875000000000043      52.127500000000005      43.140000000000001
   159   1      7.1900000000000048      50.330000000000005      46.735000000000007
   160   1      7.1900000000000048      52.127500000000005      48.532500000000006
   161   1      8.9875000000000043      50.330000000000005      48.532500000000006
   162   1      8.9875000000000043      52.127500000000005      46.735000000000007
   163   1      7.1900000000000048      50.330000000000005      50.330000000000005
   164   1      7.1900000000000048      52.127500000000005      52.127500000000005
   165   1      8.9875000000000043      50.330000000000005      52.127500000000005
   166   1      8.9875000000000043      52.127500000000005      50.330000000000005
   167   1      7.1900000000000048      50.330000000000005      53.924999999999997
   168   1      7.1900000000000048      52.127500000000005      55.722500000000011
   169   1      8.9875000000000043      50.330000000000005      55.722500000000011
   170   1      8.9875000000000043      52.127500000000005      53.924999999999997
   171   1      7.1900000000000048      50.330000000000005      57.520000000000003
   172   1      7.1900000000000048      52.127500000000005      59.317500000000003
   173   1      8.9875000000000043      50.330000000000005      59.317500000000003
   174   1      8.9875000000000043      52.127500000000005      57.520000000000003
   175   1      8.9875000000000043      50.330000000000005      62.912500000000001
   176   1      8.9875000000000043      52.127500000000005      61.115000000000009
   177   1      8.9875000000000043      53.924999999999997      37.747500000000002
   178   1      7.1900000000000048      55.722500000000011      41.342500000000001
   179   1      8.9875000000000043      53.924999999999997      41.342500000000001
   180   1      8.9875000000000043      55.722500000000011      39.545000000000002
   181   1      7.1900000000000048      53.924999999999997      43.140000000000001
   182   1      7.1900000000000048      55.722500000000011                 44.9375
   183   1      8.9875000000000043      53.924999999999997                 44.9375
   184   1      8.9875000000000043      55.722500000000011      43.140000000000001
   185   1      7.1900000000000048      53.924999999999997      46.735000000000007
   186   1      7.1900000000000048      55.722500000000011      48.532500000000006
   187   1      8.9875000000000043      53.924999999999997      48.532500000000006
   188   1      8.9875000000000043      55.722500000000011      46.735000000000007
   189   1      7.1900000000000048      53.924999999999997      50.330000000000005
   190   1      7.1900000000000048      55.722500000000011      52.127500000000005
   191   1      8.9875000000000043      53.924999999999997      52.127500000000005
   192   1      8.9875000000000043      55.722500000000011      50.330000000000005
   193   1      7.1900000000000048      53.924999999999997      53.924999999999997
   194   1      7.1900000000000048      55.722500000000011      55.722500000000011
   195   1      8.9875000000000043      53.924999999999997      55.722500000000011
   196   1      8.9875000000000043      55.722500000000011      53.924999999999997
   197   1      7.1900000000000048      53.924999999999997      57.520000000000003
   198   1      7.1900000000000048      55.722500000000011      59.317500000000003
   199   1      8.9875000000000043      53.924999999999997      59.317500000000003
   200   1      8.9875000000000043      55.722500000000011      57.520000000000003
   201   1      8.9875000000000043      53.924999999999997      62.912500000000001
   202   1      8.9875000000000043      55.722500000000011      61.115000000000009
   203   1      8.9875000000000043      57.520000000000003      37.747500000000002
   204   1      7.1900000000000048      59.317500000000003      41.342500000000001
   205   1      8.9875000000000043      57.520000000000003      41.342500000000001
   206   1      8.9875000000000043      59.317500000000003      39.545000000000002
   207   1      7.1900000000000048      57.520000000000003      43.140000000000001
   208   1      7.1900000000000048      59.317500000000003                 44.9375
   209   1      8.9875000000000043      57.520000000000003                 44.9375
   210   1      8.9875000000000043      59.317500000000003      43.140000000000001
   211   1      7.1900000000000048      57.520000000000003      46.735000000000007
   212   1      7.1900000000000048      59.317500000000003      48.532500000000006
   213   1      8.9875000000000043      57.520000000000003      48.532500000000006
   214   1      8.9875000000000043      59.317500000000003      46.735000000000007
   215   1      7.1900000000000048      57.520000000000003      50.330000000000005
   216   1      7.1900000000000048      59.317500000000003      52.127500000000005
   217   1      8.9875000000000043      57.520000000000003      52.127500000000005
   218   1      8.9875000000000043      59.317500000000003      50.330000000000005
   219   1      7.1900000000000048      57.520000000000003      53.924999999999997
   220   1      7.1900000000000048      59.317500000000003      55.722500000000011
   221   1      8.9875000000000043      57.520000000000003      55.722500000000011
   222   1      8.9875000000000043      59.317500000000003      53.924999999999997
   223   1      7.1900000000000048      57.520000000000003      57.520000000000003
   224   1      7.1900000000000048      59.317500000000003      59.317500000000003
   225   1      8.9875000000000043      57.520000000000003      59.317500000000003
   226   1      8.9875000000000043      59.317500000000003      57.520000000000003
   227   1      8.9875000000000043      57.520000000000003      62.912500000000001
   228   1      8.9875000000000043      59.317500000000003      61.115000000000009
   229   1      8.9875000000000043      61.115000000000009      37.747500000000002
   230   1      8.9875000000000043      61.115000000000009      41.342500000000001
   231   1      8.9875000000000043      62.912500000000001      39.545000000000002
   232   1      8.9875000000000043      61.115000000000009                 44.9375
   233   1      8.9875000000000043      62.912500000000001      43.140000000000001
   234   1      8.9875000000000043      61.115000000000009      48.532500000000006
   235   1      8.9875000000000043      62.912500000000001      46.735000000000007
   236   1      8.9875000000000043      61.115000000000009      52.127500000000005
   237   1      8.9875000000000043      62.912500000000001      50.330000000000005
   238   1      8.9875000000000043      61.115000000000009      55.722500000000011
   239   1      8.9875000000000043      62.912500000000001      53.924999999999997
   240   1      8.9875000000000043      61.115000000000009      59.317500000000003
   241   1      8.9875000000000043      62.912500000000001      57.520000000000003
   242   1      8.9875000000000043      61.115000000000009      62.912500000000001
   243   1      8.9875000000000043      62.912500000000001      61.115000000000009
   244   1      12.582500000000001      34.152500000000003      35.950000000000003
   245   1      12.582500000000001      34.152500000000003      39.545000000000002
   246   1      12.582500000000001      34.152500000000003      43.140000000000001
   247   1      12.582500000000001      34.152500000000003      46.735000000000007
   248   1      12.582500000000001      34.152500000000003      50.330000000000005
   249   1      12.582500000000001      34.152500000000003      53.924999999999997
   250   1      12.582500000000001      34.152500000000003      57.520000000000003
   251   1      12.582500000000001      34.152500000000003      61.115000000000009
   252   1      12.582500000000001      34.152500000000003      64.710000000000008
   253   1      12.582500000000001      35.950000000000003      34.152500000000003
   254   1      10.785000000000004      35.950000000000003      35.950000000000003
   255   1      10.785000000000004      37.747500000000002      37.747500000000002
   256   1      12.582500000000001      35.950000000000003      37.747500000000002
   257   1      12.582500000000001      37.747500000000002      35.950000000000003
   258   1      10.785000000000004      35.950000000000003      39.545000000000002
   259   1      10.785000000000004      37.747500000000002      41.342500000000001
   260   1      12.582500000000001      35.950000000000003      41.342500000000001
   261   1      12.582500000000001      37.747500000000002      39.545000000000002
   262   1      10.785000000000004      35.950000000000003      43.140000000000001
   263   1      10.785000000000004      37.747500000000002                 44.9375
   264   1      12.582500000000001      35.950000000000003                 44.9375
   265   1      12.582500000000001      37.747500000000002      43.140000000000001
   266   1      10.785000000000004      35.950000000000003      46.735000000000007
   267   1      10.785000000000004      37.747500000000002      48.532500000000006
   268   1      12.582500000000001      35.950000000000003      48.532500000000006
   269   1      12.582500000000001      37.747500000000002      46.735000000000007
   270   1      10.785000000000004      35.950000000000003      50.330000000000005
   271   1      10.785000000000004      37.747500000000002      52.127500000000005
   272   1      12.582500000000001      35.950000000000003      52.127500000000005
   273   1      12.582500000000001      37.747500000000002      50.330000000000005
   274   1      10.785000000000004      35.950000000000003      53.924999999999997
   275   1      10.785000000000004      37.747500000000002      55.722500000000011
   276   1      12.582500000000001      35.950000000000003      55.722500000000011
   277   1      12.582500000000001      37.747500000000002      53.924999999999997
   278   1      10.785000000000004      35.950000000000003      57.520000000000003
   279   1      10.785000000000004      37.747500000000002      59.317500000000003
   280   1      12.582500000000001      35.950000000000003      59.317500000000003
   281   1      12.582500000000001      37.747500000000002      57.520000000000003
   282   1      10.785000000000004      35.950000000000003      61.115000000000009
   283   1      10.785000000000004      37.747500000000002      62.912500000000001
   284   1      12.582500000000001      35.950000000000003      62.912500000000001
   285   1      12.582500000000001      37.747500000000002      61.115000000000009
   286   1      10.785000000000004      35.950000000000003      64.710000000000008
   287   1      12.582500000000001      35.950000000000003      66.507500000000007
   288   1      12.582500000000001      37.747500000000002      64.710000000000008
   289   1      12.582500000000001      39.545000000000002      34.152500000000003
   290   1      10.785000000000004      39.545000000000002      35.950000000000003
   291   1      10.785000000000004      41.342500000000001      37.747500000000002
   292   1      12.582500000000001      39.545000000000002      37.747500000000002
   293   1      12.582500000000001      41.342500000000001      35.950000000000003
   294   1      10.785000000000004      39.545000000000002      39.545000000000002
   295   1      10.785000000000004      41.342500000000001      41.342500000000001
   296   1      12.582500000000001      39.545000000000002      41.342500000000001
   297   1      12.582500000000001      41.342500000000001      39.545000000000002
   298   1      10.785000000000004      39.545000000000002      43.140000000000001
   299   1      10.785000000000004      41.342500000000001                 44.9375
   300   1      12.582500000000001      39.545000000000002                 44.9375
   301   1      12.582500000000001      41.342500000000001      43.140000000000001
   302   1      10.785000000000004      39.545000000000002      46.735000000000007
   303   1      10.785000000000004      41.342500000000001      48.532500000000006
   304   1      12.582500000000001      39.545000000000002      48.532500000000006
   305   1      12.582500000000001      41.342500000000001      46.735000000000007
   306   1      10.785000000000004      39.545000000000002      50.330000000000005
   307   1      10.785000000000004      41.342500000000001      52.127500000000005
   308   1      12.582500000000001      39.545000000000002      52.127500000000005
   309   1      12.582500000000001      41.342500000000001      50.330000000000005
   310   1      10.785000000000004      39.545000000000002      53.924999999999997
   311   1      10.785000000000004      41.342500000000001      55.722500000000011
   312   1      12.582500000000001      39.545000000000002      55.722500000000011
   313   1      12.582500000000001      41.342500000000001      53.924999999999997
   314   1      10.785000000000004      39.545000000000002      57.520000000000003
   315   1      10.785000000000004      41.342500000000001      59.317500000000003
   316   1      12.582500000000001      39.545000000000002      59.317500000000003
   317   1      12.582500000000001      41.342500000000001      57.520000000000003
   318   1      10.785000000000004      39.545000000000002      61.115000000000009
   319   1      10.785000000000004      41.342500000000001      62.912500000000001
   320   1      12.582500000000001      39.545000000000002      62.912500000000001
   321   1      12.582500000000001      41.342500000000001      61.115000000000009
   322   1      10.785000000000004      39.545000000000002      64.710000000000008
   323   1      12.582500000000001      39.545000000000002      66.507500000000007
   324   1      12.582500000000001      41.342500000000001      64.710000000000008
   325   1      12.582500000000001      43.140000000000001      34.152500000000003
   326   1      10.785000000000004      43.140000000000001      35.950000000000003
   327   1      10.785000000000004                 44.9375      37.747500000000002
   328   1      12.582500000000001      43.140000000000001      37.747500000000002
   329   1      12.582500000000001                 44.9375      35.950000000000003
   330   1      10.785000000000004      43.140000000000001      39.545000000000002
   331   1      10.785000000000004                 44.9375      41.342500000000001
   332   1      12.582500000000001      43.140000000000001      41.342500000000001
   333   1      12.582500000000001                 44.9375      39.545000000000002
   334   1      10.785000000000004      43.140000000000001      43.140000000000001
   335   1      10.785000000000004                 44.9375                 44.9375
   336   1      12.582500000000001      43.140000000000001                 44.9375
   337   1      12.582500000000001                 44.9375      43.140000000000001
   338   1      10.785000000000004      43.140000000000001      46.735000000000007
   339   1      10.785000000000004                 44.9375      48.532500000000006
   340   1      12.582500000000001      43.140000000000001      48.532500000000006
   341   1      12.582500000000001                 44.9375      46.735000000000007
   342   1      10.785000000000004      43.140000000000001      50.330000000000005
   343   1      10.785000000000004                 44.9375      52.127500000000005
   344   1      12.582500000000001      43.140000000000001      52.127500000000005
   345   1      12.582500000000001                 44.9375      50.330000000000005
   346   1      10.785000000000004      43.140000000000001      53.924999999999997
   347   1      10.785000000000004                 44.9375      55.722500000000011
   348   1      12.582500000000001      43.140000000000001      55.722500000000011
   349   1      12.582500000000001                 44.9375      53.924999999999997
   350   1      10.785000000000004      43.140000000000001      57.520000000000003
   351   1      10.785000000000004                 44.9375      59.317500000000003
   352   1      12.582500000000001      43.140000000000001      59.317500000000003
   353   1      12.582500000000001                 44.9375      57.520000000000003
   354   1      10.785000000000004      43.140000000000001      61.115000000000009
   355   1      10.785000000000004                 44.9375      62.912500000000001
   356   1      12.582500000000001      43.140000000000001      62.912500000000001
   357   1      12.582500000000001                 44.9375      61.115000000000009
   358   1      10.785000000000004      43.140000000000001      64.710000000000008