model_files/CuNi/CuNi_30000/CuNi_520/CuNi_520_fcc_30029_temp.data (written by ASE) 

30029 	 atoms 
2  atom types
0.0                      87  xlo xhi
0.0                      87  ylo yhi
0.0                      87  zlo zhi


Atoms 

     1   1      1.7830000000000013      37.443000000000005      39.225999999999999
     2   1      1.7830000000000013      37.443000000000005      42.792000000000002
     3   1      1.7830000000000013      37.443000000000005      46.358000000000004
     4   1      1.7830000000000013      39.225999999999999      37.443000000000005
     5   1                       0                  41.009                  41.009
     6   1      1.7830000000000013      39.225999999999999                  41.009
     7   1      1.7830000000000013                  41.009      39.225999999999999
     8   1                       0                  41.009      44.575000000000003
     9   1      1.7830000000000013      39.225999999999999      44.575000000000003
    10   1      1.7830000000000013                  41.009      42.792000000000002
    11   1      1.7830000000000013      39.225999999999999      48.141000000000005
    12   1      1.7830000000000013                  41.009      46.358000000000004
    13   1      1.7830000000000013      42.792000000000002      37.443000000000005
    14   1                       0      44.575000000000003                  41.009
    15   1      1.7830000000000013      42.792000000000002                  41.009
    16   1      1.7830000000000013      44.575000000000003      39.225999999999999
    17   1                       0      42.792000000000002      42.792000000000002
    18   1                       0      44.575000000000003      44.575000000000003
    19   1      1.7830000000000013      42.792000000000002      44.575000000000003
    20   1      1.7830000000000013      44.575000000000003      42.792000000000002
    21   1      1.7830000000000013      42.792000000000002      48.141000000000005
    22   1      1.7830000000000013      44.575000000000003      46.358000000000004
    23   1      1.7830000000000013      46.358000000000004      37.443000000000005
    24   1      1.7830000000000013      46.358000000000004                  41.009
    25   1      1.7830000000000013      48.141000000000005      39.225999999999999
    26   1      1.7830000000000013      46.358000000000004      44.575000000000003
    27   1      1.7830000000000013      48.141000000000005      42.792000000000002
    28   1      1.7830000000000013      46.358000000000004      48.141000000000005
    29   1      1.7830000000000013      48.141000000000005      46.358000000000004
    30   1      5.3489999999999966      28.527999999999995                  30.311
    31   1      5.3489999999999966                  30.311      28.527999999999995
    32   1      5.3489999999999966      28.527999999999995      33.877000000000002
    33   1      5.3489999999999966                  30.311      32.094000000000001
    34   1      5.3489999999999966      28.527999999999995      37.443000000000005
    35   1      5.3489999999999966                  30.311      35.660000000000004
    36   1      5.3489999999999966      28.527999999999995                  41.009
    37   1      5.3489999999999966                  30.311      39.225999999999999
    38   1      5.3489999999999966      28.527999999999995      44.575000000000003
    39   1      5.3489999999999966                  30.311      42.792000000000002
    40   1      5.3489999999999966      28.527999999999995      48.141000000000005
    41   1      5.3489999999999966                  30.311      46.358000000000004
    42   1      5.3489999999999966      28.527999999999995      51.707000000000001
    43   1      5.3489999999999966                  30.311      49.923999999999992
    44   1      5.3489999999999966      28.527999999999995      55.273000000000003
    45   1      5.3489999999999966                  30.311      53.490000000000002
    46   1      5.3489999999999966                  30.311      57.056000000000004
    47   1      5.3489999999999966      32.094000000000001                  30.311
    48   1      5.3489999999999966      33.877000000000002      28.527999999999995
    49   1      3.5659999999999954      32.094000000000001      32.094000000000001
    50   1      3.5659999999999954      33.877000000000002      33.877000000000002
    51   1      5.3489999999999966      32.094000000000001      33.877000000000002
    52   1      5.3489999999999966      33.877000000000002      32.094000000000001
    53   1      3.5659999999999954      32.094000000000001      35.660000000000004
    54   1      3.5659999999999954      33.877000000000002      37.443000000000005
    55   1      5.3489999999999966      32.094000000000001      37.443000000000005
    56   1      5.3489999999999966      33.877000000000002      35.660000000000004
    57   1      3.5659999999999954      32.094000000000001      39.225999999999999
    58   1      3.5659999999999954      33.877000000000002                  41.009
    59   1      5.3489999999999966      32.094000000000001                  41.009
    60   1      5.3489999999999966      33.877000000000002      39.225999999999999
    61   1      3.5659999999999954      32.094000000000001      42.792000000000002
    62   1      3.5659999999999954      33.877000000000002      44.575000000000003
    63   1      5.3489999999999966      32.094000000000001      44.575000000000003
    64   1      5.3489999999999966      33.877000000000002      42.792000000000002
    65   1      3.5659999999999954      32.094000000000001      46.358000000000004
    66   1      3.5659999999999954      33.877000000000002      48.141000000000005
    67   1      5.3489999999999966      32.094000000000001      48.141000000000005
    68   1      5.3489999999999966      33.877000000000002      46.358000000000004
    69   1      3.5659999999999954      32.094000000000001      49.923999999999992
    70   1      3.5659999999999954      33.877000000000002      51.707000000000001
    71   1      5.3489999999999966      32.094000000000001      51.707000000000001
    72   1      5.3489999999999966      33.877000000000002      49.923999999999992
    73   1      3.5659999999999954      32.094000000000001      53.490000000000002
    74   1      5.3489999999999966      32.094000000000001      55.273000000000003
    75   1      5.3489999999999966      33.877000000000002      53.490000000000002
    76   1      5.3489999999999966      33.877000000000002      57.056000000000004
    77   1      5.3489999999999966      35.660000000000004                  30.311
    78   1      5.3489999999999966      37.443000000000005      28.527999999999995
    79   1      3.5659999999999954      35.660000000000004      32.094000000000001
    80   1      3.5659999999999954      37.443000000000005      33.877000000000002
    81   1      5.3489999999999966      35.660000000000004      33.877000000000002
    82   1      5.3489999999999966      37.443000000000005      32.094000000000001
    83   1      3.5659999999999954      35.660000000000004      35.660000000000004
    84   1      3.5659999999999954      37.443000000000005      37.443000000000005
    85   1      5.3489999999999966      35.660000000000004      37.443000000000005
    86   1      5.3489999999999966      37.443000000000005      35.660000000000004
    87   1      3.5659999999999954      35.660000000000004      39.225999999999999
    88   1      3.5659999999999954      37.443000000000005                  41.009
    89   1      5.3489999999999966      35.660000000000004                  41.009
    90   1      5.3489999999999966      37.443000000000005      39.225999999999999
    91   1      3.5659999999999954      35.660000000000004      42.792000000000002
    92   1      3.5659999999999954      37.443000000000005      44.575000000000003
    93   1      5.3489999999999966      35.660000000000004      44.575000000000003
    94   1      5.3489999999999966      37.443000000000005      42.792000000000002
    95   1      3.5659999999999954      35.660000000000004      46.358000000000004
    96   1      3.5659999999999954      37.443000000000005      48.141000000000005
    97   1      5.3489999999999966      35.660000000000004      48.141000000000005
    98   1      5.3489999999999966      37.443000000000005      46.358000000000004
    99   1      3.5659999999999954      35.660000000000004      49.923999999999992
   100   1      3.5659999999999954      37.443000000000005      51.707000000000001
   101   1      5.3489999999999966      35.660000000000004      51.707000000000001
   102   1      5.3489999999999966      37.443000000000005      49.923999999999992
   103   1      3.5659999999999954      35.660000000000004      53.490000000000002
   104   1      5.3489999999999966      35.660000000000004      55.273000000000003
   105   1      5.3489999999999966      37.443000000000005      53.490000000000002
   106   1      5.3489999999999966      37.443000000000005      57.056000000000004
   107   1      5.3489999999999966      39.225999999999999                  30.311
   108   1      5.3489999999999966                  41.009      28.527999999999995
   109   1      3.5659999999999954      39.225999999999999      32.094000000000001
   110   1      3.5659999999999954                  41.009      33.877000000000002
   111   1      5.3489999999999966      39.225999999999999      33.877000000000002
   112   1      5.3489999999999966                  41.009      32.094000000000001
   113   1      3.5659999999999954      39.225999999999999      35.660000000000004
   114   1      3.5659999999999954                  41.009      37.443000000000005
   115   1      5.3489999999999966      39.225999999999999      37.443000000000005
   116   1      5.3489999999999966                  41.009      35.660000000000004
   117   1      3.5659999999999954      39.225999999999999      39.225999999999999
   118   1      3.5659999999999954                  41.009                  41.009
   119   1      5.3489999999999966      39.225999999999999                  41.009
   120   1      5.3489999999999966                  41.009      39.225999999999999
   121   1      3.5659999999999954      39.225999999999999      42.792000000000002
   122   1      3.5659999999999954                  41.009      44.575000000000003
   123   1      5.3489999999999966      39.225999999999999      44.575000000000003
   124   1      5.3489999999999966                  41.009      42.792000000000002
   125   1      3.5659999999999954      39.225999999999999      46.358000000000004
   126   1      3.5659999999999954                  41.009      48.141000000000005
   127   1      5.3489999999999966      39.225999999999999      48.141000000000005
   128   1      5.3489999999999966                  41.009      46.358000000000004
   129   1      3.5659999999999954      39.225999999999999      49.923999999999992
   130   1      3.5659999999999954                  41.009      51.707000000000001
   131   1      5.3489999999999966      39.225999999999999      51.707000000000001
   132   1      5.3489999999999966                  41.009      49.923999999999992
   133   1      3.5659999999999954      39.225999999999999      53.490000000000002
   134   1      5.3489999999999966      39.225999999999999      55.273000000000003
   135   1      5.3489999999999966                  41.009      53.490000000000002
   136   1      5.3489999999999966                  41.009      57.056000000000004
   137   1      5.3489999999999966      42.792000000000002                  30.311
   138   1      5.3489999999999966      44.575000000000003      28.527999999999995
   139   1      3.5659999999999954      42.792000000000002      32.094000000000001
   140   1      3.5659999999999954      44.575000000000003      33.877000000000002
   141   1      5.3489999999999966      42.792000000000002      33.877000000000002
   142   1      5.3489999999999966      44.575000000000003      32.094000000000001
   143   1      3.5659999999999954      42.792000000000002      35.660000000000004
   144   1      3.5659999999999954      44.575000000000003      37.443000000000005
   145   1      5.3489999999999966      42.792000000000002      37.443000000000005
   146   1      5.3489999999999966      44.575000000000003      35.660000000000004
   147   1      3.5659999999999954      42.792000000000002      39.225999999999999
   148   1      3.5659999999999954      44.575000000000003                  41.009
   149   1      5.3489999999999966      42.792000000000002                  41.009
   150   1      5.3489999999999966      44.575000000000003      39.225999999999999
   151   1      3.5659999999999954      42.792000000000002      42.792000000000002
   152   1      3.5659999999999954      44.575000000000003      44.575000000000003
   153   1      5.3489999999999966      42.792000000000002      44.575000000000003
   154   1      5.3489999999999966      44.575000000000003      42.792000000000002
   155   1      3.5659999999999954      42.792000000000002      46.358000000000004
   156   1      3.5659999999999954      44.575000000000003      48.141000000000005
   157   1      5.3489999999999966      42.792000000000002      48.141000000000005
   158   1      5.3489999999999966      44.575000000000003      46.358000000000004
   159   1      3.5659999999999954      42.792000000000002      49.923999999999992
   160   1      3.5659999999999954      44.575000000000003      51.707000000000001
   161   1      5.3489999999999966      42.792000000000002      51.707000000000001
   162   1      5.3489999999999966      44.575000000000003      49.923999999999992
   163   1      3.5659999999999954      42.792000000000002      53.490000000000002
   164   1      5.3489999999999966      42.792000000000002      55.273000000000003
   165   1      5.3489999999999966      44.575000000000003      53.490000000000002
   166   1      5.3489999999999966      44.575000000000003      57.056000000000004
   167   1      5.3489999999999966      46.358000000000004                  30.311
   168   1      5.3489999999999966      48.141000000000005      28.527999999999995
   169   1      3.5659999999999954      46.358000000000004      32.094000000000001
   170   1      3.5659999999999954      48.141000000000005      33.877000000000002
   171   1      5.3489999999999966      46.358000000000004      33.877000000000002
   172   1      5.3489999999999966      48.141000000000005      32.094000000000001
   173   1      3.5659999999999954      46.358000000000004      35.660000000000004
   174   1      3.5659999999999954      48.141000000000005      37.443000000000005
   175   1      5.3489999999999966      46.358000000000004      37.443000000000005
   176   1      5.3489999999999966      48.141000000000005      35.660000000000004
   177   1      3.5659999999999954      46.358000000000004      39.225999999999999
   178   1      3.5659999999999954      48.141000000000005                  41.009
   179   1      5.3489999999999966      46.358000000000004                  41.009
   180   1      5.3489999999999966      48.141000000000005      39.225999999999999
   181   1      3.5659999999999954      46.358000000000004      42.792000000000002
   182   1      3.5659999999999954      48.141000000000005      44.575000000000003
   183   1      5.3489999999999966      46.358000000000004      44.575000000000003
   184   1      5.3489999999999966      48.141000000000005      42.792000000000002
   185   1      3.5659999999999954      46.358000000000004      46.358000000000004
   186   1      3.5659999999999954      48.141000000000005      48.141000000000005
   187   1      5.3489999999999966      46.358000000000004      48.141000000000005
   188   1      5.3489999999999966      48.141000000000005      46.358000000000004
   189   1      3.5659999999999954      46.358000000000004      49.923999999999992
   190   1      3.5659999999999954      48.141000000000005      51.707000000000001
   191   1      5.3489999999999966      46.358000000000004      51.707000000000001
   192   1      5.3489999999999966      48.141000000000005      49.923999999999992
   193   1      3.5659999999999954      46.358000000000004      53.490000000000002
   194   1      5.3489999999999966      46.358000000000004      55.273000000000003
   195   1      5.3489999999999966      48.141000000000005      53.490000000000002
   196   1      5.3489999999999966      48.141000000000005      57.056000000000004
   197   1      5.3489999999999966      49.923999999999992                  30.311
   198   1      5.3489999999999966      51.707000000000001      28.527999999999995
   199   1      3.5659999999999954      49.923999999999992      32.094000000000001
   200   1      3.5659999999999954      51.707000000000001      33.877000000000002
   201   1      5.3489999999999966      49.923999999999992      33.877000000000002
   202   1      5.3489999999999966      51.707000000000001      32.094000000000001
   203   1      3.5659999999999954      49.923999999999992      35.660000000000004
   204   1      3.5659999999999954      51.707000000000001      37.443000000000005
   205   1      5.3489999999999966      49.923999999999992      37.443000000000005
   206   1      5.3489999999999966      51.707000000000001      35.660000000000004
   207   1      3.5659999999999954      49.923999999999992      39.225999999999999
   208   1      3.5659999999999954      51.707000000000001                  41.009
   209   1      5.3489999999999966      49.923999999999992                  41.009
   210   1      5.3489999999999966      51.707000000000001      39.225999999999999
   211   1      3.5659999999999954      49.923999999999992      42.792000000000002
   212   1      3.5659999999999954      51.707000000000001      44.575000000000003
   213   1      5.3489999999999966      49.923999999999992      44.575000000000003
   214   1      5.3489999999999966      51.707000000000001      42.792000000000002
   215   1      3.5659999999999954      49.923999999999992      46.358000000000004
   216   1      3.5659999999999954      51.707000000000001      48.141000000000005
   217   1      5.3489999999999966      49.923999999999992      48.141000000000005
   218   1      5.3489999999999966      51.707000000000001      46.358000000000004
   219   1      3.5659999999999954      49.923999999999992      49.923999999999992
   220   1      3.5659999999999954      51.707000000000001      51.707000000000001
   221   1      5.3489999999999966      49.923999999999992      51.707000000000001
   222   1      5.3489999999999966      51.707000000000001      49.923999999999992
   223   1      3.5659999999999954      49.923999999999992      53.490000000000002
   224   1      5.3489999999999966      49.923999999999992      55.273000000000003
   225   1      5.3489999999999966      51.707000000000001      53.490000000000002
   226   1      5.3489999999999966      51.707000000000001      57.056000000000004
   227   1      5.3489999999999966      53.490000000000002                  30.311
   228   1      5.3489999999999966      55.273000000000003      28.527999999999995
   229   1      3.5659999999999954      53.490000000000002      32.094000000000001
   230   1      5.3489999999999966      53.490000000000002      33.877000000000002
   231   1      5.3489999999999966      55.273000000000003      32.094000000000001
   232   1      3.5659999999999954      53.490000000000002      35.660000000000004
   233   1      5.3489999999999966      53.490000000000002      37.443000000000005
   234   1      5.3489999999999966      55.273000000000003      35.660000000000004
   235   1      3.5659999999999954      53.490000000000002      39.225999999999999
   236   1      5.3489999999999966      53.490000000000002                  41.009
   237   1      5.3489999999999966      55.273000000000003      39.225999999999999
   238   1      3.5659999999999954      53.490000000000002      42.792000000000002
   239   1      5.3489999999999966      53.490000000000002      44.575000000000003
   240   1      5.3489999999999966      55.273000000000003      42.792000000000002
   241   1      3.5659999999999954      53.490000000000002      46.358000000000004
   242   1      5.3489999999999966      53.490000000000002      48.141000000000005
   243   1      5.3489999999999966      55.273000000000003      46.358000000000004
   244   1      3.5659999999999954      53.490000000000002      49.923999999999992
   245   1      5.3489999999999966      53.490000000000002      51.707000000000001
   246   1      5.3489999999999966      55.273000000000003      49.923999999999992
   247   1      3.5659999999999954      53.490000000000002      53.490000000000002
   248   1      5.3489999999999966      53.490000000000002      55.273000000000003
   249   1      5.3489999999999966      55.273000000000003      53.490000000000002
   250   1      5.3489999999999966      55.273000000000003      57.056000000000004
   251   1      5.3489999999999966      57.056000000000004                  30.311
   252   1      5.3489999999999966      57.056000000000004      33.877000000000002
   253   1      5.3489999999999966      57.056000000000004      37.443000000000005
   254   1      5.3489999999999966      57.056000000000004                  41.009
   255   1      5.3489999999999966      57.056000000000004      44.575000000000003
   256   1      5.3489999999999966      57.056000000000004      48.141000000000005
   257   1      5.3489999999999966      57.056000000000004      51.707000000000001
   258   1      5.3489999999999966      57.056000000000004      55.273000000000003
   259   1      8.9149999999999991                  19.613      21.396000000000001
   260   1      8.9149999999999991                  19.613      24.961999999999996
   261   1      8.9149999999999991                  19.613      28.527999999999995
   262   1      8.9149999999999991                  19.613      32.094000000000001
   263   1      8.9149999999999991                  19.613      35.660000000000004
   264   1      8.9149999999999991                  19.613      39.225999999999999
   265   1      8.9149999999999991                  19.613      42.792000000000002
   266   1      8.9149999999999991                  19.613      46.358000000000004
   267   1      8.9149999999999991                  19.613      49.923999999999992
   268   1      8.9149999999999991                  19.613      53.490000000000002
   269   1      8.9149999999999991                  19.613      57.056000000000004
   270   1      8.9149999999999991                  19.613                  60.622
   271   1      8.9149999999999991                  19.613      64.188000000000002
   272   1      8.9149999999999991      21.396000000000001                  19.613
   273   1      7.1319999999999979      23.179000000000002      23.179000000000002
   274   1      8.9149999999999991      21.396000000000001      23.179000000000002
   275   1      8.9149999999999991      23.179000000000002      21.396000000000001
   276   1      7.1319999999999979      23.179000000000002      26.745000000000001
   277   1      8.9149999999999991      21.396000000000001      26.745000000000001
   278   1      8.9149999999999991      23.179000000000002      24.961999999999996
   279   1      7.1319999999999979      23.179000000000002                  30.311
   280   1      8.9149999999999991      21.396000000000001                  30.311
   281   1      8.9149999999999991      23.179000000000002      28.527999999999995
   282   1      7.1319999999999979      23.179000000000002      33.877000000000002
   283   1      8.9149999999999991      21.396000000000001      33.877000000000002
   284   1      8.9149999999999991      23.179000000000002      32.094000000000001
   285   1      7.1319999999999979      23.179000000000002      37.443000000000005
   286   1      8.9149999999999991      21.396000000000001      37.443000000000005
   287   1      8.9149999999999991      23.179000000000002      35.660000000000004
   288   1      7.1319999999999979      23.179000000000002                  41.009
   289   1      8.9149999999999991      21.396000000000001                  41.009
   290   1      8.9149999999999991      23.179000000000002      39.225999999999999
   291   1      7.1319999999999979      23.179000000000002      44.575000000000003
   292   1      8.9149999999999991      21.396000000000001      44.575000000000003
   293   1      8.9149999999999991      23.179000000000002      42.792000000000002
   294   1      7.1319999999999979      23.179000000000002      48.141000000000005
   295   1      8.9149999999999991      21.396000000000001      48.141000000000005
   296   1      8.9149999999999991      23.179000000000002      46.358000000000004
   297   1      7.1319999999999979      23.179000000000002      51.707000000000001
   298   1      8.9149999999999991      21.396000000000001      51.707000000000001
   299   1      8.9149999999999991      23.179000000000002      49.923999999999992
   300   1      7.1319999999999979      23.179000000000002      55.273000000000003
   301   1      8.9149999999999991      21.396000000000001      55.273000000000003
   302   1      8.9149999999999991      23.179000000000002      53.490000000000002
   303   1      7.1319999999999979      23.179000000000002      58.838999999999999
   304   1      8.9149999999999991      21.396000000000001      58.838999999999999
   305   1      8.9149999999999991      23.179000000000002      57.056000000000004
   306   1      7.1319999999999979      23.179000000000002      62.405000000000001
   307   1      8.9149999999999991      21.396000000000001      62.405000000000001
   308   1      8.9149999999999991      23.179000000000002                  60.622
   309   1      8.9149999999999991      21.396000000000001      65.971000000000004
   310   1      8.9149999999999991      23.179000000000002      64.188000000000002
   311   1      8.9149999999999991      24.961999999999996                  19.613
   312   1      7.1319999999999979      26.745000000000001      23.179000000000002
   313   1      8.9149999999999991      24.961999999999996      23.179000000000002
   314   1      8.9149999999999991      26.745000000000001      21.396000000000001
   315   1      7.1319999999999979      24.961999999999996      24.961999999999996
   316   1      7.1319999999999979      26.745000000000001      26.745000000000001
   317   1      8.9149999999999991      24.961999999999996      26.745000000000001
   318   1      8.9149999999999991      26.745000000000001      24.961999999999996
   319   1      7.1319999999999979      24.961999999999996      28.527999999999995
   320   1      7.1319999999999979      26.745000000000001                  30.311
   321   1      8.9149999999999991      24.961999999999996                  30.311
   322   1      8.9149999999999991      26.745000000000001      28.527999999999995
   323   1      7.1319999999999979      24.961999999999996      32.094000000000001
   324   1      7.1319999999999979      26.745000000000001      33.877000000000002
   325   1      8.9149999999999991      24.961999999999996      33.877000000000002
   326   1      8.9149999999999991      26.745000000000001      32.094000000000001
   327   1      7.1319999999999979      24.961999999999996      35.660000000000004
   328   1      7.1319999999999979      26.745000000000001      37.443000000000005
   329   1      8.9149999999999991      24.961999999999996      37.443000000000005
   330   1      8.9149999999999991      26.745000000000001      35.660000000000004
   331   1      7.1319999999999979      24.961999999999996      39.225999999999999
   332   1      7.1319999999999979      26.745000000000001                  41.009
   333   1      8.9149999999999991      24.961999999999996                  41.009
   334   1      8.9149999999999991      26.745000000000001      39.225999999999999
   335   1      7.1319999999999979      24.961999999999996      42.792000000000002
   336   1      7.1319999999999979      26.745000000000001      44.575000000000003
   337   1      8.9149999999999991      24.961999999999996      44.575000000000003
   338   1      8.9149999999999991      26.745000000000001      42.792000000000002
   339   1      7.1319999999999979      24.961999999999996      46.358000000000004
   340   1      7.1319999999999979      26.745000000000001      48.141000000000005
   341   1      8.9149999999999991      24.961999999999996      48.141000000000005
   342   1      8.9149999999999991      26.745000000000001      46.358000000000004
   343   1      7.1319999999999979      24.961999999999996      49.923999999999992
   344   1      7.1319999999999979      26.745000000000001      51.707000000000001
   345   1      8.9149999999999991      24.961999999999996      51.707000000000001
   346   1      8.9149999999999991      26.745000000000001      49.923999999999992
   347   1      7.1319999999999979      24.961999999999996      53.490000000000002
   348   1      7.1319999999999979      26.745000000000001      55.273000000000003
   349   1      8.9149999999999991      24.961999999999996      55.273000000000003
   350   1      8.9149999999999991      26.745000000000001      53.490000000000002
   351   1      7.1319999999999979      24.961999999999996      57.056000000000004
   352   1      7.1319999999999979      26.745000000000001      58.838999999999999
   353   1      8.9149999999999991      24.961999999999996      58.838999999999999
   354   1      8.9149999999999991      26.745000000000001      57.056000000000004
   355   1      7.1319999999999979      24.961999999999996                  60.622
   356   1      7.1319999999999979      26.745000000000001      62.405000000000001
   357   1      8.9149999999999991      24.961999999999996      62.405000000000001
   358   1      8.9149999999999991      26.745000000000001                  60.622