LAMMPS data file via write_data, version 30 Nov 2020, timestep = 0

30029 atoms
2 atom types

0 87 xlo xhi
0 87 ylo yhi
0 87 zlo zhi

Masses

1 63.546
2 58.689

Atoms # atomic

1 2 1.7830000000000013 37.443000000000005 39.226 0 0 0
2 1 1.7830000000000013 37.443000000000005 42.792 0 0 0
4 1 1.7830000000000013 39.226 37.443000000000005 0 0 0
5 1 0 41.009 41.009 0 0 0
6 1 1.7830000000000013 39.226 41.009 0 0 0
7 2 1.7830000000000013 41.009 39.226 0 0 0
10 1 1.7830000000000013 41.009 42.792 0 0 0
13 2 1.7830000000000013 42.792 37.443000000000005 0 0 0
15 1 1.7830000000000013 42.792 41.009 0 0 0
17 1 0 42.792 42.792 0 0 0
30 1 5.348999999999997 28.527999999999995 30.311 0 0 0
31 2 5.348999999999997 30.311 28.527999999999995 0 0 0
32 2 5.348999999999997 28.527999999999995 33.877 0 0 0
33 1 5.348999999999997 30.311 32.094 0 0 0
34 1 5.348999999999997 28.527999999999995 37.443000000000005 0 0 0
35 2 5.348999999999997 30.311 35.660000000000004 0 0 0
36 1 5.348999999999997 28.527999999999995 41.009 0 0 0
37 2 5.348999999999997 30.311 39.226 0 0 0
39 2 5.348999999999997 30.311 42.792 0 0 0
47 2 5.348999999999997 32.094 30.311 0 0 0
48 1 5.348999999999997 33.877 28.527999999999995 0 0 0
49 1 3.5659999999999954 32.094 32.094 0 0 0
50 1 3.5659999999999954 33.877 33.877 0 0 0
51 2 5.348999999999997 32.094 33.877 0 0 0
52 2 5.348999999999997 33.877 32.094 0 0 0
53 1 3.5659999999999954 32.094 35.660000000000004 0 0 0
54 2 3.5659999999999954 33.877 37.443000000000005 0 0 0
55 2 5.348999999999997 32.094 37.443000000000005 0 0 0
56 1 5.348999999999997 33.877 35.660000000000004 0 0 0
57 1 3.5659999999999954 32.094 39.226 0 0 0
58 1 3.5659999999999954 33.877 41.009 0 0 0
59 2 5.348999999999997 32.094 41.009 0 0 0
60 2 5.348999999999997 33.877 39.226 0 0 0
61 2 3.5659999999999954 32.094 42.792 0 0 0
64 1 5.348999999999997 33.877 42.792 0 0 0
77 2 5.348999999999997 35.660000000000004 30.311 0 0 0
78 2 5.348999999999997 37.443000000000005 28.527999999999995 0 0 0
79 1 3.5659999999999954 35.660000000000004 32.094 0 0 0
80 2 3.5659999999999954 37.443000000000005 33.877 0 0 0
81 2 5.348999999999997 35.660000000000004 33.877 0 0 0
82 2 5.348999999999997 37.443000000000005 32.094 0 0 0
83 1 3.5659999999999954 35.660000000000004 35.660000000000004 0 0 0
84 1 3.5659999999999954 37.443000000000005 37.443000000000005 0 0 0
85 2 5.348999999999997 35.660000000000004 37.443000000000005 0 0 0
86 2 5.348999999999997 37.443000000000005 35.660000000000004 0 0 0
87 2 3.5659999999999954 35.660000000000004 39.226 0 0 0
88 2 3.5659999999999954 37.443000000000005 41.009 0 0 0
89 1 5.348999999999997 35.660000000000004 41.009 0 0 0
90 1 5.348999999999997 37.443000000000005 39.226 0 0 0
91 1 3.5659999999999954 35.660000000000004 42.792 0 0 0
94 1 5.348999999999997 37.443000000000005 42.792 0 0 0
107 2 5.348999999999997 39.226 30.311 0 0 0
108 2 5.348999999999997 41.009 28.527999999999995 0 0 0
109 2 3.5659999999999954 39.226 32.094 0 0 0
110 2 3.5659999999999954 41.009 33.877 0 0 0
111 1 5.348999999999997 39.226 33.877 0 0 0
112 2 5.348999999999997 41.009 32.094 0 0 0
113 2 3.5659999999999954 39.226 35.660000000000004 0 0 0
114 2 3.5659999999999954 41.009 37.443000000000005 0 0 0
115 1 5.348999999999997 39.226 37.443000000000005 0 0 0
116 2 5.348999999999997 41.009 35.660000000000004 0 0 0
117 1 3.5659999999999954 39.226 39.226 0 0 0
118 2 3.5659999999999954 41.009 41.009 0 0 0
119 2 5.348999999999997 39.226 41.009 0 0 0
120 2 5.348999999999997 41.009 39.226 0 0 0
121 2 3.5659999999999954 39.226 42.792 0 0 0
124 2 5.348999999999997 41.009 42.792 0 0 0
137 1 5.348999999999997 42.792 30.311 0 0 0
139 2 3.5659999999999954 42.792 32.094 0 0 0
141 1 5.348999999999997 42.792 33.877 0 0 0
143 1 3.5659999999999954 42.792 35.660000000000004 0 0 0
145 1 5.348999999999997 42.792 37.443000000000005 0 0 0
147 2 3.5659999999999954 42.792 39.226 0 0 0
149 1 5.348999999999997 42.792 41.009 0 0 0
151 2 3.5659999999999954 42.792 42.792 0 0 0
259 1 8.915 19.613 21.396 0 0 0
260 2 8.915 19.613 24.961999999999996 0 0 0
261 2 8.915 19.613 28.527999999999995 0 0 0
262 2 8.915 19.613 32.094 0 0 0
263 2 8.915 19.613 35.660000000000004 0 0 0
264 1 8.915 19.613 39.226 0 0 0
265 2 8.915 19.613 42.792 0 0 0
272 2 8.915 21.396 19.613 0 0 0
273 2 7.131999999999998 23.179000000000002 23.179000000000002 0 0 0
274 2 8.915 21.396 23.179000000000002 0 0 0
275 2 8.915 23.179000000000002 21.396 0 0 0
276 1 7.131999999999998 23.179000000000002 26.745 0 0 0
277 1 8.915 21.396 26.745 0 0 0
278 2 8.915 23.179000000000002 24.961999999999996 0 0 0
279 1 7.131999999999998 23.179000000000002 30.311 0 0 0
280 1 8.915 21.396 30.311 0 0 0
281 1 8.915 23.179000000000002 28.527999999999995 0 0 0
282 1 7.131999999999998 23.179000000000002 33.877 0 0 0
283 2 8.915 21.396 33.877 0 0 0
284 2 8.915 23.179000000000002 32.094 0 0 0
285 1 7.131999999999998 23.179000000000002 37.443000000000005 0 0 0
286 1 8.915 21.396 37.443000000000005 0 0 0
287 1 8.915 23.179000000000002 35.660000000000004 0 0 0
288 1 7.131999999999998 23.179000000000002 41.009 0 0 0
289 1 8.915 21.396 41.009 0 0 0
290 1 8.915 23.179000000000002 39.226 0 0 0
293 2 8.915 23.179000000000002 42.792 0 0 0
311 1 8.915 24.961999999999996 19.613 0 0 0
312 2 7.131999999999998 26.745 23.179000000000002 0 0 0
313 1 8.915 24.961999999999996 23.179000000000002 0 0 0
314 2 8.915 26.745 21.396 0 0 0
315 2 7.131999999999998 24.961999999999996 24.961999999999996 0 0 0
316 1 7.131999999999998 26.745 26.745 0 0 0
317 1 8.915 24.961999999999996 26.745 0 0 0
318 1 8.915 26.745 24.961999999999996 0 0 0
319 2 7.131999999999998 24.961999999999996 28.527999999999995 0 0 0
320 2 7.131999999999998 26.745 30.311 0 0 0
321 2 8.915 24.961999999999996 30.311 0 0 0
322 2 8.915 26.745 28.527999999999995 0 0 0
323 1 7.131999999999998 24.961999999999996 32.094 0 0 0
324 2 7.131999999999998 26.745 33.877 0 0 0
325 1 8.915 24.961999999999996 33.877 0 0 0
326 2 8.915 26.745 32.094 0 0 0
327 1 7.131999999999998 24.961999999999996 35.660000000000004 0 0 0
328 2 7.131999999999998 26.745 37.443000000000005 0 0 0
329 1 8.915 24.961999999999996 37.443000000000005 0 0 0
330 1 8.915 26.745 35.660000000000004 0 0 0
331 2 7.131999999999998 24.961999999999996 39.226 0 0 0
332 1 7.131999999999998 26.745 41.009 0 0 0
333 1 8.915 24.961999999999996 41.009 0 0 0
334 1 8.915 26.745 39.226 0 0 0
335 1 7.131999999999998 24.961999999999996 42.792 0 0 0
338 1 8.915 26.745 42.792 0 0 0
361 1 8.915 28.527999999999995 19.613 0 0 0
362 1 7.131999999999998 30.311 23.179000000000002 0 0 0
363 1 8.915 28.527999999999995 23.179000000000002 0 0 0
364 2 8.915 30.311 21.396 0 0 0
365 2 7.131999999999998 28.527999999999995 24.961999999999996 0 0 0
366 1 7.131999999999998 30.311 26.745 0 0 0
367 1 8.915 28.527999999999995 26.745 0 0 0
368 2 8.915 30.311 24.961999999999996 0 0 0
369 2 7.131999999999998 28.527999999999995 28.527999999999995 0 0 0
370 2 7.131999999999998 30.311 30.311 0 0 0
371 2 8.915 28.527999999999995 30.311 0 0 0
372 2 8.915 30.311 28.527999999999995 0 0 0
373 2 7.131999999999998 28.527999999999995 32.094 0 0 0
374 1 7.131999999999998 30.311 33.877 0 0 0
375 1 8.915 28.527999999999995 33.877 0 0 0
376 1 8.915 30.311 32.094 0 0 0
377 1 7.131999999999998 28.527999999999995 35.660000000000004 0 0 0
378 1 7.131999999999998 30.311 37.443000000000005 0 0 0
379 2 8.915 28.527999999999995 37.443000000000005 0 0 0
380 1 8.915 30.311 35.660000000000004 0 0 0
381 1 7.131999999999998 28.527999999999995 39.226 0 0 0
382 1 7.131999999999998 30.311 41.009 0 0 0
383 2 8.915 28.527999999999995 41.009 0 0 0
384 1 8.915 30.311 39.226 0 0 0
385 1 7.131999999999998 28.527999999999995 42.792 0 0 0
388 2 8.915 30.311 42.792 0 0 0
411 2 8.915 32.094 19.613 0 0 0
412 1 7.131999999999998 33.877 23.179000000000002 0 0 0
413 1 8.915 32.094 23.179000000000002 0 0 0
414 2 8.915 33.877 21.396 0 0 0
415 2 7.131999999999998 32.094 24.961999999999996 0 0 0
416 1 7.131999999999998 33.877 26.745 0 0 0
417 1 8.915 32.094 26.745 0 0 0
418 1 8.915 33.877 24.961999999999996 0 0 0
419 1 7.131999999999998 32.094 28.527999999999995 0 0 0
420 1 7.131999999999998 33.877 30.311 0 0 0
421 2 8.915 32.094 30.311 0 0 0
422 2 8.915 33.877 28.527999999999995 0 0 0
423 1 7.131999999999998 32.094 32.094 0 0 0
424 1 7.131999999999998 33.877 33.877 0 0 0
425 2 8.915 32.094 33.877 0 0 0
426 2 8.915 33.877 32.094 0 0 0
427 1 7.131999999999998 32.094 35.660000000000004 0 0 0
428 1 7.131999999999998 33.877 37.443000000000005 0 0 0
429 2 8.915 32.094 37.443000000000005 0 0 0
430 1 8.915 33.877 35.660000000000004 0 0 0
431 1 7.131999999999998 32.094 39.226 0 0 0
432 1 7.131999999999998 33.877 41.009 0 0 0
433 1 8.915 32.094 41.009 0 0 0
434 1 8.915 33.877 39.226 0 0 0
435 2 7.131999999999998 32.094 42.792 0 0 0
438 1 8.915 33.877 42.792 0 0 0
461 2 8.915 35.660000000000004 19.613 0 0 0
462 2 7.131999999999998 37.443000000000005 23.179000000000002 0 0 0
463 1 8.915 35.660000000000004 23.179000000000002 0 0 0
464 2 8.915 37.443000000000005 21.396 0 0 0
465 2 7.131999999999998 35.660000000000004 24.961999999999996 0 0 0
466 1 7.131999999999998 37.443000000000005 26.745 0 0 0
467 1 8.915 35.660000000000004 26.745 0 0 0
468 2 8.915 37.443000000000005 24.961999999999996 0 0 0
469 2 7.131999999999998 35.660000000000004 28.527999999999995 0 0 0
470 1 7.131999999999998 37.443000000000005 30.311 0 0 0
471 1 8.915 35.660000000000004 30.311 0 0 0
472 2 8.915 37.443000000000005 28.527999999999995 0 0 0
473 1 7.131999999999998 35.660000000000004 32.094 0 0 0
474 1 7.131999999999998 37.443000000000005 33.877 0 0 0
475 1 8.915 35.660000000000004 33.877 0 0 0
476 1 8.915 37.443000000000005 32.094 0 0 0
477 2 7.131999999999998 35.660000000000004 35.660000000000004 0 0 0
478 1 7.131999999999998 37.443000000000005 37.443000000000005 0 0 0
479 1 8.915 35.660000000000004 37.443000000000005 0 0 0
480 2 8.915 37.443000000000005 35.660000000000004 0 0 0
481 2 7.131999999999998 35.660000000000004 39.226 0 0 0
482 1 7.131999999999998 37.443000000000005 41.009 0 0 0
483 1 8.915 35.660000000000004 41.009 0 0 0
484 1 8.915 37.443000000000005 39.226 0 0 0
485 1 7.131999999999998 35.660000000000004 42.792 0 0 0
488 1 8.915 37.443000000000005 42.792 0 0 0
511 1 8.915 39.226 19.613 0 0 0
512 2 7.131999999999998 41.009 23.179000000000002 0 0 0
513 2 8.915 39.226 23.179000000000002 0 0 0
514 2 8.915 41.009 21.396 0 0 0
515 2 7.131999999999998 39.226 24.961999999999996 0 0 0
516 2 7.131999999999998 41.009 26.745 0 0 0
517 2 8.915 39.226 26.745 0 0 0
518 2 8.915 41.009 24.961999999999996 0 0 0
519 1 7.131999999999998 39.226 28.527999999999995 0 0 0
520 2 7.131999999999998 41.009 30.311 0 0 0
521 1 8.915 39.226 30.311 0 0 0
522 1 8.915 41.009 28.527999999999995 0 0 0
523 1 7.131999999999998 39.226 32.094 0 0 0
524 2 7.131999999999998 41.009 33.877 0 0 0
525 1 8.915 39.226 33.877 0 0 0
526 2 8.915 41.009 32.094 0 0 0
527 2 7.131999999999998 39.226 35.660000000000004 0 0 0
528 1 7.131999999999998 41.009 37.443000000000005 0 0 0
529 1 8.915 39.226 37.443000000000005 0 0 0
530 1 8.915 41.009 35.660000000000004 0 0 0
531 1 7.131999999999998 39.226 39.226 0 0 0
532 2 7.131999999999998 41.009 41.009 0 0 0
533 2 8.915 39.226 41.009 0 0 0
534 2 8.915 41.009 39.226 0 0 0
535 2 7.131999999999998 39.226 42.792 0 0 0
538 1 8.915 41.009 42.792 0 0 0
561 1 8.915 42.792 19.613 0 0 0
563 1 8.915 42.792 23.179000000000002 0 0 0
565 1 7.131999999999998 42.792 24.961999999999996 0 0 0
567 1 8.915 42.792 26.745 0 0 0
569 1 7.131999999999998 42.792 28.527999999999995 0 0 0
571 2 8.915 42.792 30.311 0 0 0
573 1 7.131999999999998 42.792 32.094 0 0 0
575 2 8.915 42.792 33.877 0 0 0
577 1 7.131999999999998 42.792 35.660000000000004 0 0 0
579 2 8.915 42.792 37.443000000000005 0 0 0
581 1 7.131999999999998 42.792 39.226 0 0 0
583 2 8.915 42.792 41.009 0 0 0
585 2 7.131999999999998 42.792 42.792 0 0 0
888 2 12.480999999999998 12.480999999999998 14.263999999999998 0 0 0
889 1 12.480999999999998 12.480999999999998 17.83 0 0 0
890 1 12.480999999999998 12.480999999999998 21.396 0 0 0
891 2 12.480999999999998 12.480999999999998 24.961999999999996 0 0 0
892 2 12.480999999999998 12.480999999999998 28.527999999999995 0 0 0
893 2 12.480999999999998 12.480999999999998 32.094 0 0 0
894 2 12.480999999999998 12.480999999999998 35.660000000000004 0 0 0
895 1 12.480999999999998 12.480999999999998 39.226 0 0 0
896 1 12.480999999999998 12.480999999999998 42.792 0 0 0
905 1 12.480999999999998 14.263999999999998 12.480999999999998 0 0 0
906 2 10.698 14.263999999999998 14.263999999999998 0 0 0
907 1 10.698 16.047 16.047 0 0 0
908 2 12.480999999999998 14.263999999999998 16.047 0 0 0
909 1 12.480999999999998 16.047 14.263999999999998 0 0 0
910 2 10.698 14.263999999999998 17.83 0 0 0
911 2 10.698 16.047 19.613 0 0 0
912 2 12.480999999999998 14.263999999999998 19.613 0 0 0
913 2 12.480999999999998 16.047 17.83 0 0 0
914 1 10.698 14.263999999999998 21.396 0 0 0
915 1 10.698 16.047 23.179000000000002 0 0 0
916 2 12.480999999999998 14.263999999999998 23.179000000000002 0 0 0
917 1 12.480999999999998 16.047 21.396 0 0 0
918 1 10.698 14.263999999999998 24.961999999999996 0 0 0
919 1 10.698 16.047 26.745 0 0 0
920 1 12.480999999999998 14.263999999999998 26.745 0 0 0
921 1 12.480999999999998 16.047 24.961999999999996 0 0 0
922 1 10.698 14.263999999999998 28.527999999999995 0 0 0
923 2 10.698 16.047 30.311 0 0 0
924 1 12.480999999999998 14.263999999999998 30.311 0 0 0
925 2 12.480999999999998 16.047 28.527999999999995 0 0 0
926 2 10.698 14.263999999999998 32.094 0 0 0
927 2 10.698 16.047 33.877 0 0 0
928 2 12.480999999999998 14.263999999999998 33.877 0 0 0
929 1 12.480999999999998 16.047 32.094 0 0 0
930 2 10.698 14.263999999999998 35.660000000000004 0 0 0
931 2 10.698 16.047 37.443000000000005 0 0 0
932 1 12.480999999999998 14.263999999999998 37.443000000000005 0 0 0
933 2 12.480999999999998 16.047 35.660000000000004 0 0 0
934 1 10.698 14.263999999999998 39.226 0 0 0
935 2 10.698 16.047 41.009 0 0 0
936 1 12.480999999999998 14.263999999999998 41.009 0 0 0
937 2 12.480999999999998 16.047 39.226 0 0 0
938 2 10.698 14.263999999999998 42.792 0 0 0
941 1 12.480999999999998 16.047 42.792 0 0 0
973 1 12.480999999999998 17.83 12.480999999999998 0 0 0
974 2 10.698 17.83 14.263999999999998 0 0 0
975 1 10.698 19.613 16.047 0 0 0
976 1 12.480999999999998 17.83 16.047 0 0 0
977 1 12.480999999999998 19.613 14.263999999999998 0 0 0
978 1 10.698 17.83 17.83 0 0 0
979 1 10.698 19.613 19.613 0 0 0
980 2 12.480999999999998 17.83 19.613 0 0 0
981 2 12.480999999999998 19.613 17.83 0 0 0
982 2 10.698 17.83 21.396 0 0 0
983 1 10.698 19.613 23.179000000000002 0 0 0
984 1 12.480999999999998 17.83 23.179000000000002 0 0 0
985 1 12.480999999999998 19.613 21.396 0 0 0
986 1 10.698 17.83 24.961999999999996 0 0 0
987 1 10.698 19.613 26.745 0 0 0
988 2 12.480999999999998 17.83 26.745 0 0 0
989 2 12.480999999999998 19.613 24.961999999999996 0 0 0
990 1 10.698 17.83 28.527999999999995 0 0 0
991 2 10.698 19.613 30.311 0 0 0
992 1 12.480999999999998 17.83 30.311 0 0 0
993 1 12.480999999999998 19.613 28.527999999999995 0 0 0
994 1 10.698 17.83 32.094 0 0 0
995 1 10.698 19.613 33.877 0 0 0
996 2 12.480999999999998 17.83 33.877 0 0 0
997 2 12.480999999999998 19.613 32.094 0 0 0
998 2 10.698 17.83 35.660000000000004 0 0 0
999 1 10.698 19.613 37.443000000000005 0 0 0
1000 2 12.480999999999998 17.83 37.443000000000005 0 0 0
1001 2 12.480999999999998 19.613 35.660000000000004 0 0 0
1002 2 10.698 17.83 39.226 0 0 0
1003 2 10.698 19.613 41.009 0 0 0
1004 1 12.480999999999998 17.83 41.009 0 0 0
1005 2 12.480999999999998 19.613 39.226 0 0 0
1006 2 10.698 17.83 42.792 0 0 0
1009 2 12.480999999999998 19.613 42.792 0 0 0
1041 2 12.480999999999998 21.396 12.480999999999998 0 0 0
1042 2 10.698 21.396 14.263999999999998 0 0 0
1043 1 10.698 23.179000000000002 16.047 0 0 0
1044 1 12.480999999999998 21.396 16.047 0 0 0
1045 1 12.480999999999998 23.179000000000002 14.263999999999998 0 0 0
1046 1 10.698 21.396 17.83 0 0 0
1047 2 10.698 23.179000000000002 19.613 0 0 0
1048 1 12.480999999999998 21.396 19.613 0 0 0
1049 1 12.480999999999998 23.179000000000002 17.83 0 0 0
1050 1 10.698 21.396 21.396 0 0 0
1051 2 10.698 23.179000000000002 23.179000000000002 0 0 0
1052 1 12.480999999999998 21.396 23.179000000000002 0 0 0
1053 1 12.480999999999998 23.179000000000002 21.396 0 0 0
1054 1 10.698 21.396 24.961999999999996 0 0 0
1055 1 10.698 23.179000000000002 26.745 0 0 0
1056 1 12.480999999999998 21.396 26.745 0 0 0
1057 1 12.480999999999998 23.179000000000002 24.961999999999996 0 0 0
1058 1 10.698 21.396 28.527999999999995 0 0 0
1059 1 10.698 23.179000000000002 30.311 0 0 0
1060 2 12.480999999999998 21.396 30.311 0 0 0
1061 1 12.480999999999998 23.179000000000002 28.527999999999995 0 0 0
1062 2 10.698 21.396 32.094 0 0 0
1063 2 10.698 23.179000000000002 33.877 0 0 0
1064 1 12.480999999999998 21.396 33.877 0 0 0
1065 1 12.480999999999998 23.179000000000002 32.094 0 0 0
1066 1 10.698 21.396 35.660000000000004 0 0 0
1067 1 10.698 23.179000000000002 37.443000000000005 0 0 0
1068 1 12.480999999999998 21.396 37.443000000000005 0 0 0
1069 1 12.480999999999998 23.179000000000002 35.660000000000004 0 0 0
1070 1 10.698 21.396 39.226 0 0 0
1071 1 10.698 23.179000000000002 41.009 0 0 0
1072 2 12.480999999999998 21.396 41.009 0 0 0
1073 1 12.480999999999998 23.179000000000002 39.226 0 0 0
1074 2 10.698 21.396 42.792 0 0 0
1077 1 12.480999999999998 23.179000000000002 42.792 0 0 0
1109 1 12.480999999999998 24.961999999999996 12.480999999999998 0 0 0
1110 1 10.698 24.961999999999996 14.263999999999998 0 0 0
1111 2 10.698 26.745 16.047 0 0 0
1112 1 12.480999999999998 24.961999999999996 16.047 0 0 0
1113 1 12.480999999999998 26.745 14.263999999999998 0 0 0
1114 1 10.698 24.961999999999996 17.83 0 0 0
1115 2 10.698 26.745 19.613 0 0 0
1116 2 12.480999999999998 24.961999999999996 19.613 0 0 0
1117 1 12.480999999999998 26.745 17.83 0 0 0
1118 1 10.698 24.961999999999996 21.396 0 0 0
1119 2 10.698 26.745 23.179000000000002 0 0 0
1120 2 12.480999999999998 24.961999999999996 23.179000000000002 0 0 0
1121 2 12.480999999999998 26.745 21.396 0 0 0
1122 2 10.698 24.961999999999996 24.961999999999996 0 0 0
1123 2 10.698 26.745 26.745 0 0 0
1124 1 12.480999999999998 24.961999999999996 26.745 0 0 0
1125 2 12.480999999999998 26.745 24.961999999999996 0 0 0
1126 2 10.698 24.961999999999996 28.527999999999995 0 0 0
1127 1 10.698 26.745 30.311 0 0 0
1128 2 12.480999999999998 24.961999999999996 30.311 0 0 0
1129 1 12.480999999999998 26.745 28.527999999999995 0 0 0
1130 2 10.698 24.961999999999996 32.094 0 0 0
1131 2 10.698 26.745 33.877 0 0 0
1132 2 12.480999999999998 24.961999999999996 33.877 0 0 0
1133 2 12.480999999999998 26.745 32.094 0 0 0
1134 2 10.698 24.961999999999996 35.660000000000004 0 0 0
1135 2 10.698 26.745 37.443000000000005 0 0 0
1136 1 12.480999999999998 24.961999999999996 37.443000000000005 0 0 0
1137 1 12.480999999999998 26.745 35.660000000000004 0 0 0
1138 1 10.698 24.961999999999996 39.226 0 0 0
1139 2 10.698 26.745 41.009 0 0 0
1140 1 12.480999999999998 24.961999999999996 41.009 0 0 0
1141 1 12.480999999999998 26.745 39.226 0 0 0
1142 2 10.698 24.961999999999996 42.792 0 0 0
1145 1 12.480999999999998 26.745 42.792 0 0 0
1177 1 12.480999999999998 28.527999999999995 12.480999999999998 0 0 0
1178 2 10.698 28.527999999999995 14.263999999999998 0 0 0
1179 2 10.698 30.311 16.047 0 0 0
1180 1 12.480999999999998 28.527999999999995 16.047 0 0 0
1181 2 12.480999999999998 30.311 14.263999999999998 0 0 0
1182 2 10.698 28.527999999999995 17.83 0 0 0
1183 1 10.698 30.311 19.613 0 0 0
1184 2 12.480999999999998 28.527999999999995 19.613 0 0 0
1185 1 12.480999999999998 30.311 17.83 0 0 0
1186 2 10.698 28.527999999999995 21.396 0 0 0
1187 2 10.698 30.311 23.179000000000002 0 0 0
1188 1 12.480999999999998 28.527999999999995 23.179000000000002 0 0 0
1189 2 12.480999999999998 30.311 21.396 0 0 0
1190 2 10.698 28.527999999999995 24.961999999999996 0 0 0
1191 2 10.698 30.311 26.745 0 0 0
1192 1 12.480999999999998 28.527999999999995 26.745 0 0 0
1193 2 12.480999999999998 30.311 24.961999999999996 0 0 0
1194 2 10.698 28.527999999999995 28.527999999999995 0 0 0
1195 1 10.698 30.311 30.311 0 0 0
1196 2 12.480999999999998 28.527999999999995 30.311 0 0 0
1197 1 12.480999999999998 30.311 28.527999999999995 0 0 0
1198 2 10.698 28.527999999999995 32.094 0 0 0
1199 1 10.698 30.311 33.877 0 0 0
1200 2 12.480999999999998 28.527999999999995 33.877 0 0 0
1201 2 12.480999999999998 30.311 32.094 0 0 0
1202 1 10.698 28.527999999999995 35.660000000000004 0 0 0
1203 1 10.698 30.311 37.443000000000005 0 0 0
1204 2 12.480999999999998 28.527999999999995 37.443000000000005 0 0 0
1205 2 12.480999999999998 30.311 35.660000000000004 0 0 0
1206 2 10.698 28.527999999999995 39.226 0 0 0
1207 2 10.698 30.311 41.009 0 0 0
1208 1 12.480999999999998 28.527999999999995 41.009 0 0 0
1209 1 12.480999999999998 30.311 39.226 0 0 0
1210 2 10.698 28.527999999999995 42.792 0 0 0
1213 1 12.480999999999998 30.311 42.792 0 0 0
1245 2 12.480999999999998 32.094 12.480999999999998 0 0 0
1246 2 10.698 32.094 14.263999999999998 0 0 0
1247 1 10.698 33.877 16.047 0 0 0
1248 2 12.480999999999998 32.094 16.047 0 0 0
1249 1 12.480999999999998 33.877 14.263999999999998 0 0 0
1250 2 10.698 32.094 17.83 0 0 0
1251 2 10.698 33.877 19.613 0 0 0
1252 2 12.480999999999998 32.094 19.613 0 0 0
1253 1 12.480999999999998 33.877 17.83 0 0 0
1254 2 10.698 32.094 21.396 0 0 0
1255 1 10.698 33.877 23.179000000000002 0 0 0
1256 1 12.480999999999998 32.094 23.179000000000002 0 0 0
1257 1 12.480999999999998 33.877 21.396 0 0 0
1258 2 10.698 32.094 24.961999999999996 0 0 0
1259 1 10.698 33.877 26.745 0 0 0
1260 2 12.480999999999998 32.094 26.745 0 0 0
1261 2 12.480999999999998 33.877 24.961999999999996 0 0 0
1262 2 10.698 32.094 28.527999999999995 0 0 0
1263 1 10.698 33.877 30.311 0 0 0
1264 1 12.480999999999998 32.094 30.311 0 0 0
1265 1 12.480999999999998 33.877 28.527999999999995 0 0 0
1266 2 10.698 32.094 32.094 0 0 0
1267 2 10.698 33.877 33.877 0 0 0
1268 2 12.480999999999998 32.094 33.877 0 0 0
1269 2 12.480999999999998 33.877 32.094 0 0 0
1270 2 10.698 32.094 35.660000000000004 0 0 0
1271 2 10.698 33.877 37.443000000000005 0 0 0
1272 2 12.480999999999998 32.094 37.443000000000005 0 0 0
1273 1 12.480999999999998 33.877 35.660000000000004 0 0 0
1274 1 10.698 32.094 39.226 0 0 0
1275 2 10.698 33.877 41.009 0 0 0
1276 2 12.480999999999998 32.094 41.009 0 0 0
1277 1 12.480999999999998 33.877 39.226 0 0 0
1278 2 10.698 32.094 42.792 0 0 0
1281 1 12.480999999999998 33.877 42.792 0 0 0
1313 2 12.480999999999998 35.660000000000004 12.480999999999998 0 0 0
1314 2 10.698 35.660000000000004 14.263999999999998 0 0 0
1315 2 10.698 37.443000000000005 16.047 0 0 0
1316 1 12.480999999999998 35.660000000000004 16.047 0 0 0
1317 2 12.480999999999998 37.443000000000005 14.263999999999998 0 0 0
1318 2 10.698 35.660000000000004 17.83 0 0 0
1319 2 10.698 37.443000000000005 19.613 0 0 0
1320 1 12.480999999999998 35.660000000000004 19.613 0 0 0
1321 2 12.480999999999998 37.443000000000005 17.83 0 0 0
1322 2 10.698 35.660000000000004 21.396 0 0 0
1323 1 10.698 37.443000000000005 23.179000000000002 0 0 0
1324 1 12.480999999999998 35.660000000000004 23.179000000000002 0 0 0
1325 2 12.480999999999998 37.443000000000005 21.396 0 0 0
1326 2 10.698 35.660000000000004 24.961999999999996 0 0 0
1327 2 10.698 37.443000000000005 26.745 0 0 0
1328 2 12.480999999999998 35.660000000000004 26.745 0 0 0
1329 2 12.480999999999998 37.443000000000005 24.961999999999996 0 0 0
1330 2 10.698 35.660000000000004 28.527999999999995 0 0 0
1331 2 10.698 37.443000000000005 30.311 0 0 0
1332 2 12.480999999999998 35.660000000000004 30.311 0 0 0
1333 2 12.480999999999998 37.443000000000005 28.527999999999995 0 0 0
1334 2 10.698 35.660000000000004 32.094 0 0 0
1335 2 10.698 37.443000000000005 33.877 0 0 0
1336 1 12.480999999999998 35.660000000000004 33.877 0 0 0
1337 1 12.480999999999998 37.443000000000005 32.094 0 0 0
1338 1 10.698 35.660000000000004 35.660000000000004 0 0 0
1339 1 10.698 37.443000000000005 37.443000000000005 0 0 0
1340 1 12.480999999999998 35.660000000000004 37.443000000000005 0 0 0
1341 2 12.480999999999998 37.443000000000005 35.660000000000004 0 0 0
1342 2 10.698 35.660000000000004 39.226 0 0 0
1343 2 10.698 37.443000000000005 41.009 0 0 0
1344 1 12.480999999999998 35.660000000000004 41.009 0 0 0
1345 2 12.480999999999998 37.443000000000005 39.226 0 0 0
1346 2 10.698 35.660000000000004 42.792 0 0 0
1349 2 12.480999999999998 37.443000000000005 42.792 0 0 0
1381 1 12.480999999999998 39.226 12.480999999999998 0 0 0
1382 1 10.698 39.226 14.263999999999998 0 0 0
1383 2 10.698 41.009 16.047 0 0 0
1384 2 12.480999999999998 39.226 16.047 0 0 0
1385 2 12.480999999999998 41.009 14.263999999999998 0 0 0
1386 1 10.698 39.226 17.83 0 0 0
1387 2 10.698 41.009 19.613 0 0 0
1388 2 12.480999999999998 39.226 19.613 0 0 0
1389 1 12.480999999999998 41.009 17.83 0 0 0
1390 1 10.698 39.226 21.396 0 0 0
1391 1 10.698 41.009 23.179000000000002 0 0 0
1392 2 12.480999999999998 39.226 23.179000000000002 0 0 0
1393 1 12.480999999999998 41.009 21.396 0 0 0
1394 1 10.698 39.226 24.961999999999996 0 0 0
1395 2 10.698 41.009 26.745 0 0 0
1396 2 12.480999999999998 39.226 26.745 0 0 0
1397 2 12.480999999999998 41.009 24.961999999999996 0 0 0
1398 2 10.698 39.226 28.527999999999995 0 0 0
1399 1 10.698 41.009 30.311 0 0 0
1400 1 12.480999999999998 39.226 30.311 0 0 0
1401 1 12.480999999999998 41.009 28.527999999999995 0 0 0
1402 1 10.698 39.226 32.094 0 0 0
1403 2 10.698 41.009 33.877 0 0 0
1404 1 12.480999999999998 39.226 33.877 0 0 0
1405 1 12.480999999999998 41.009 32.094 0 0 0
1406 1 10.698 39.226 35.660000000000004 0 0 0
1407 2 10.698 41.009 37.443000000000005 0 0 0
1408 1 12.480999999999998 39.226 37.443000000000005 0 0 0
1409 1 12.480999999999998 41.009 35.660000000000004 0 0 0
1410 2 10.698 39.226 39.226 0 0 0
1411 2 10.698 41.009 41.009 0 0 0
1412 1 12.480999999999998 39.226 41.009 0 0 0
1413 2 12.480999999999998 41.009 39.226 0 0 0
1414 1 10.698 39.226 42.792 0 0 0
1417 1 12.480999999999998 41.009 42.792 0 0 0
1449 2 12.480999999999998 42.792 12.480999999999998 0 0 0
1450 2 10.698 42.792 14.263999999999998 0 0 0
1452 1 12.480999999999998 42.792 16.047 0 0 0
1454 1 10.698 42.792 17.83 0 0 0
1456 2 12.480999999999998 42.792 19.613 0 0 0
1458 1 10.698 42.792 21.396 0 0 0
1460 2 12.480999999999998 42.792 23.179000000000002 0 0 0
1462 1 10.698 42.792 24.961999999999996 0 0 0
1464 2 12.480999999999998 42.792 26.745 0 0 0
1466 1 10.698 42.792 28.527999999999995 0 0 0
1468 2 12.480999999999998 42.792 30.311 0 0 0
1470 2 10.698 42.792 32.094 0 0 0
1472 1 12.480999999999998 42.792 33.877 0 0 0
1474 1 10.698 42.792 35.660000000000004 0 0 0
1476 2 12.480999999999998 42.792 37.443000000000005 0 0 0
1478 2 10.698 42.792 39.226 0 0 0
1480 1 12.480999999999998 42.792 41.009 0 0 0
1482 2 10.698 42.792 42.792 0 0 0
2045 1 14.263999999999998 12.480999999999998 12.480999999999998 0 0 0
2046 1 14.263999999999998 10.698 14.263999999999998 0 0 0
2047 2 14.263999999999998 12.480999999999998 16.047 0 0 0
2048 1 16.047 10.698 16.047 0 0 0
2049 2 16.047 12.480999999999998 14.263999999999998 0 0 0
2050 1 14.263999999999998 10.698 17.83 0 0 0
2051 1 14.263999999999998 12.480999999999998 19.613 0 0 0
2052 1 16.047 10.698 19.613 0 0 0
2053 1 16.047 12.480999999999998 17.83 0 0 0
2054 1 14.263999999999998 10.698 21.396 0 0 0
2055 1 14.263999999999998 12.480999999999998 23.179000000000002 0 0 0
2056 1 16.047 10.698 23.179000000000002 0 0 0
2057 1 16.047 12.480999999999998 21.396 0 0 0
2058 2 14.263999999999998 10.698 24.961999999999996 0 0 0
2059 1 14.263999999999998 12.480999999999998 26.745 0 0 0
2060 1 16.047 10.698 26.745 0 0 0
2061 2 16.047 12.480999999999998 24.961999999999996 0 0 0
2062 2 14.263999999999998 10.698 28.527999999999995 0 0 0
2063 2 14.263999999999998 12.480999999999998 30.311 0 0 0
2064 1 16.047 10.698 30.311 0 0 0
2065 1 16.047 12.480999999999998 28.527999999999995 0 0 0
2066 1 14.263999999999998 10.698 32.094 0 0 0
2067 1 14.263999999999998 12.480999999999998 33.877 0 0 0
2068 2 16.047 10.698 33.877 0 0 0
2069 2 16.047 12.480999999999998 32.094 0 0 0
2070 2 14.263999999999998 10.698 35.660000000000004 0 0 0
2071 2 14.263999999999998 12.480999999999998 37.443000000000005 0 0 0
2072 2 16.047 10.698 37.443000000000005 0 0 0
2073 2 16.047 12.480999999999998 35.660000000000004 0 0 0
2074 2 14.263999999999998 10.698 39.226 0 0 0
2075 2 14.263999999999998 12.480999999999998 41.009 0 0 0
2076 1 16.047 10.698 41.009 0 0 0
2077 2 16.047 12.480999999999998 39.226 0 0 0
2078 2 14.263999999999998 10.698 42.792 0 0 0
2081 2 16.047 12.480999999999998 42.792 0 0 0
2113 1 14.263999999999998 14.263999999999998 10.698 0 0 0
2114 2 14.263999999999998 16.047 12.480999999999998 0 0 0
2115 1 16.047 14.263999999999998 12.480999999999998 0 0 0
2116 1 16.047 16.047 10.698 0 0 0
2117 2 14.263999999999998 14.263999999999998 14.263999999999998 0 0 0
2118 2 14.263999999999998 16.047 16.047 0 0 0
2119 1 16.047 14.263999999999998 16.047 0 0 0
2120 2 16.047 16.047 14.263999999999998 0 0 0
2121 2 14.263999999999998 14.263999999999998 17.83 0 0 0
2122 1 14.263999999999998 16.047 19.613 0 0 0
2123 1 16.047 14.263999999999998 19.613 0 0 0
2124 2 16.047 16.047 17.83 0 0 0
2125 2 14.263999999999998 14.263999999999998 21.396 0 0 0
2126 2 14.263999999999998 16.047 23.179000000000002 0 0 0
2127 2 16.047 14.263999999999998 23.179000000000002 0 0 0
2128 2 16.047 16.047 21.396 0 0 0
2129 2 14.263999999999998 14.263999999999998 24.961999999999996 0 0 0
2130 2 14.263999999999998 16.047 26.745 0 0 0
2131 2 16.047 14.263999999999998 26.745 0 0 0
2132 2 16.047 16.047 24.961999999999996 0 0 0
2133 2 14.263999999999998 14.263999999999998 28.527999999999995 0 0 0
2134 1 14.263999999999998 16.047 30.311 0 0 0
2135 1 16.047 14.263999999999998 30.311 0 0 0
2136 1 16.047 16.047 28.527999999999995 0 0 0
2137 1 14.263999999999998 14.263999999999998 32.094 0 0 0
2138 2 14.263999999999998 16.047 33.877 0 0 0
2139 2 16.047 14.263999999999998 33.877 0 0 0