model_files/Cu/Cu_30000/Cu_540/data.Cu_540_fcc_29765 (written by ASE) 

29765 	 atoms 
1  atom types
0.0                     103  xlo xhi
0.0                     103  ylo yhi
0.0                     103  zlo zhi


Atoms 

     1   1                       0      48.734999999999992      48.734999999999992
     2   1      1.8049999999999995      46.929999999999993      48.734999999999992
     3   1      1.8049999999999995      48.734999999999992      46.929999999999993
     4   1                       0      48.734999999999992      52.344999999999992
     5   1      1.8049999999999995      46.929999999999993      52.344999999999992
     6   1      1.8049999999999995      48.734999999999992      50.539999999999999
     7   1      1.8049999999999995      48.734999999999992      54.149999999999991
     8   1                       0      52.344999999999992      48.734999999999992
     9   1      1.8049999999999995      50.539999999999999      48.734999999999992
    10   1      1.8049999999999995      52.344999999999992      46.929999999999993
    11   1                       0      50.539999999999999      50.539999999999999
    12   1                       0      52.344999999999992      52.344999999999992
    13   1      1.8049999999999995      50.539999999999999      52.344999999999992
    14   1      1.8049999999999995      52.344999999999992      50.539999999999999
    15   1      1.8049999999999995      52.344999999999992      54.149999999999991
    16   1      1.8049999999999995      54.149999999999991      48.734999999999992
    17   1      1.8049999999999995      54.149999999999991      52.344999999999992
    18   1       3.609999999999999                  45.125                  45.125
    19   1      5.4149999999999991      43.319999999999993                  45.125
    20   1      5.4149999999999991                  45.125      43.319999999999993
    21   1       3.609999999999999                  45.125      48.734999999999992
    22   1      5.4149999999999991      43.319999999999993      48.734999999999992
    23   1      5.4149999999999991                  45.125      46.929999999999993
    24   1       3.609999999999999                  45.125      52.344999999999992
    25   1      5.4149999999999991      43.319999999999993      52.344999999999992
    26   1      5.4149999999999991                  45.125      50.539999999999999
    27   1       3.609999999999999                  45.125      55.954999999999998
    28   1      5.4149999999999991      43.319999999999993      55.954999999999998
    29   1      5.4149999999999991                  45.125      54.149999999999991
    30   1      5.4149999999999991                  45.125      57.759999999999998
    31   1       3.609999999999999      48.734999999999992                  45.125
    32   1      5.4149999999999991      46.929999999999993                  45.125
    33   1      5.4149999999999991      48.734999999999992      43.319999999999993
    34   1       3.609999999999999      46.929999999999993      46.929999999999993
    35   1       3.609999999999999      48.734999999999992      48.734999999999992
    36   1      5.4149999999999991      46.929999999999993      48.734999999999992
    37   1      5.4149999999999991      48.734999999999992      46.929999999999993
    38   1       3.609999999999999      46.929999999999993      50.539999999999999
    39   1       3.609999999999999      48.734999999999992      52.344999999999992
    40   1      5.4149999999999991      46.929999999999993      52.344999999999992
    41   1      5.4149999999999991      48.734999999999992      50.539999999999999
    42   1       3.609999999999999      46.929999999999993      54.149999999999991
    43   1       3.609999999999999      48.734999999999992      55.954999999999998
    44   1      5.4149999999999991      46.929999999999993      55.954999999999998
    45   1      5.4149999999999991      48.734999999999992      54.149999999999991
    46   1      5.4149999999999991      48.734999999999992      57.759999999999998
    47   1       3.609999999999999      52.344999999999992                  45.125
    48   1      5.4149999999999991      50.539999999999999                  45.125
    49   1      5.4149999999999991      52.344999999999992      43.319999999999993
    50   1       3.609999999999999      50.539999999999999      46.929999999999993
    51   1       3.609999999999999      52.344999999999992      48.734999999999992
    52   1      5.4149999999999991      50.539999999999999      48.734999999999992
    53   1      5.4149999999999991      52.344999999999992      46.929999999999993
    54   1       3.609999999999999      50.539999999999999      50.539999999999999
    55   1       3.609999999999999      52.344999999999992      52.344999999999992
    56   1      5.4149999999999991      50.539999999999999      52.344999999999992
    57   1      5.4149999999999991      52.344999999999992      50.539999999999999
    58   1       3.609999999999999      50.539999999999999      54.149999999999991
    59   1       3.609999999999999      52.344999999999992      55.954999999999998
    60   1      5.4149999999999991      50.539999999999999      55.954999999999998
    61   1      5.4149999999999991      52.344999999999992      54.149999999999991
    62   1      5.4149999999999991      52.344999999999992      57.759999999999998
    63   1       3.609999999999999      55.954999999999998                  45.125
    64   1      5.4149999999999991      54.149999999999991                  45.125
    65   1      5.4149999999999991      55.954999999999998      43.319999999999993
    66   1       3.609999999999999      54.149999999999991      46.929999999999993
    67   1       3.609999999999999      55.954999999999998      48.734999999999992
    68   1      5.4149999999999991      54.149999999999991      48.734999999999992
    69   1      5.4149999999999991      55.954999999999998      46.929999999999993
    70   1       3.609999999999999      54.149999999999991      50.539999999999999
    71   1       3.609999999999999      55.954999999999998      52.344999999999992
    72   1      5.4149999999999991      54.149999999999991      52.344999999999992
    73   1      5.4149999999999991      55.954999999999998      50.539999999999999
    74   1       3.609999999999999      54.149999999999991      54.149999999999991
    75   1       3.609999999999999      55.954999999999998      55.954999999999998
    76   1      5.4149999999999991      54.149999999999991      55.954999999999998
    77   1      5.4149999999999991      55.954999999999998      54.149999999999991
    78   1      5.4149999999999991      55.954999999999998      57.759999999999998
    79   1      5.4149999999999991      57.759999999999998                  45.125
    80   1      5.4149999999999991      57.759999999999998      48.734999999999992
    81   1      5.4149999999999991      57.759999999999998      52.344999999999992
    82   1      5.4149999999999991      57.759999999999998      55.954999999999998
    83   1      9.0249999999999968      37.904999999999994      39.710000000000001
    84   1      9.0249999999999968      37.904999999999994      43.319999999999993
    85   1      9.0249999999999968      37.904999999999994      46.929999999999993
    86   1      9.0249999999999968      37.904999999999994      50.539999999999999
    87   1      9.0249999999999968      37.904999999999994      54.149999999999991
    88   1      9.0249999999999968      37.904999999999994      57.759999999999998
    89   1      9.0249999999999968      37.904999999999994      61.370000000000005
    90   1      9.0249999999999968      39.710000000000001      37.904999999999994
    91   1       7.219999999999998      39.710000000000001      39.710000000000001
    92   1       7.219999999999998      41.515000000000001      41.515000000000001
    93   1      9.0249999999999968      39.710000000000001      41.515000000000001
    94   1      9.0249999999999968      41.515000000000001      39.710000000000001
    95   1       7.219999999999998      39.710000000000001      43.319999999999993
    96   1       7.219999999999998      41.515000000000001                  45.125
    97   1      9.0249999999999968      39.710000000000001                  45.125
    98   1      9.0249999999999968      41.515000000000001      43.319999999999993
    99   1       7.219999999999998      39.710000000000001      46.929999999999993
   100   1       7.219999999999998      41.515000000000001      48.734999999999992
   101   1      9.0249999999999968      39.710000000000001      48.734999999999992
   102   1      9.0249999999999968      41.515000000000001      46.929999999999993
   103   1       7.219999999999998      39.710000000000001      50.539999999999999
   104   1       7.219999999999998      41.515000000000001      52.344999999999992
   105   1      9.0249999999999968      39.710000000000001      52.344999999999992
   106   1      9.0249999999999968      41.515000000000001      50.539999999999999
   107   1       7.219999999999998      39.710000000000001      54.149999999999991
   108   1       7.219999999999998      41.515000000000001      55.954999999999998
   109   1      9.0249999999999968      39.710000000000001      55.954999999999998
   110   1      9.0249999999999968      41.515000000000001      54.149999999999991
   111   1       7.219999999999998      39.710000000000001      57.759999999999998
   112   1       7.219999999999998      41.515000000000001      59.564999999999991
   113   1      9.0249999999999968      39.710000000000001      59.564999999999991
   114   1      9.0249999999999968      41.515000000000001      57.759999999999998
   115   1       7.219999999999998      39.710000000000001      61.370000000000005
   116   1      9.0249999999999968      39.710000000000001      63.175000000000004
   117   1      9.0249999999999968      41.515000000000001      61.370000000000005
   118   1      9.0249999999999968      43.319999999999993      37.904999999999994
   119   1       7.219999999999998      43.319999999999993      39.710000000000001
   120   1       7.219999999999998                  45.125      41.515000000000001
   121   1      9.0249999999999968      43.319999999999993      41.515000000000001
   122   1      9.0249999999999968                  45.125      39.710000000000001
   123   1       7.219999999999998      43.319999999999993      43.319999999999993
   124   1       7.219999999999998                  45.125                  45.125
   125   1      9.0249999999999968      43.319999999999993                  45.125
   126   1      9.0249999999999968                  45.125      43.319999999999993
   127   1       7.219999999999998      43.319999999999993      46.929999999999993
   128   1       7.219999999999998                  45.125      48.734999999999992
   129   1      9.0249999999999968      43.319999999999993      48.734999999999992
   130   1      9.0249999999999968                  45.125      46.929999999999993
   131   1       7.219999999999998      43.319999999999993      50.539999999999999
   132   1       7.219999999999998                  45.125      52.344999999999992
   133   1      9.0249999999999968      43.319999999999993      52.344999999999992
   134   1      9.0249999999999968                  45.125      50.539999999999999
   135   1       7.219999999999998      43.319999999999993      54.149999999999991
   136   1       7.219999999999998                  45.125      55.954999999999998
   137   1      9.0249999999999968      43.319999999999993      55.954999999999998
   138   1      9.0249999999999968                  45.125      54.149999999999991
   139   1       7.219999999999998      43.319999999999993      57.759999999999998
   140   1       7.219999999999998                  45.125      59.564999999999991
   141   1      9.0249999999999968      43.319999999999993      59.564999999999991
   142   1      9.0249999999999968                  45.125      57.759999999999998
   143   1       7.219999999999998      43.319999999999993      61.370000000000005
   144   1      9.0249999999999968      43.319999999999993      63.175000000000004
   145   1      9.0249999999999968                  45.125      61.370000000000005
   146   1      9.0249999999999968      46.929999999999993      37.904999999999994
   147   1       7.219999999999998      46.929999999999993      39.710000000000001
   148   1       7.219999999999998      48.734999999999992      41.515000000000001
   149   1      9.0249999999999968      46.929999999999993      41.515000000000001
   150   1      9.0249999999999968      48.734999999999992      39.710000000000001
   151   1       7.219999999999998      46.929999999999993      43.319999999999993
   152   1       7.219999999999998      48.734999999999992                  45.125
   153   1      9.0249999999999968      46.929999999999993                  45.125
   154   1      9.0249999999999968      48.734999999999992      43.319999999999993
   155   1       7.219999999999998      46.929999999999993      46.929999999999993
   156   1       7.219999999999998      48.734999999999992      48.734999999999992
   157   1      9.0249999999999968      46.929999999999993      48.734999999999992
   158   1      9.0249999999999968      48.734999999999992      46.929999999999993
   159   1       7.219999999999998      46.929999999999993      50.539999999999999
   160   1       7.219999999999998      48.734999999999992      52.344999999999992
   161   1      9.0249999999999968      46.929999999999993      52.344999999999992
   162   1      9.0249999999999968      48.734999999999992      50.539999999999999
   163   1       7.219999999999998      46.929999999999993      54.149999999999991
   164   1       7.219999999999998      48.734999999999992      55.954999999999998
   165   1      9.0249999999999968      46.929999999999993      55.954999999999998
   166   1      9.0249999999999968      48.734999999999992      54.149999999999991
   167   1       7.219999999999998      46.929999999999993      57.759999999999998
   168   1       7.219999999999998      48.734999999999992      59.564999999999991
   169   1      9.0249999999999968      46.929999999999993      59.564999999999991
   170   1      9.0249999999999968      48.734999999999992      57.759999999999998
   171   1       7.219999999999998      46.929999999999993      61.370000000000005
   172   1      9.0249999999999968      46.929999999999993      63.175000000000004
   173   1      9.0249999999999968      48.734999999999992      61.370000000000005
   174   1      9.0249999999999968      50.539999999999999      37.904999999999994
   175   1       7.219999999999998      50.539999999999999      39.710000000000001
   176   1       7.219999999999998      52.344999999999992      41.515000000000001
   177   1      9.0249999999999968      50.539999999999999      41.515000000000001
   178   1      9.0249999999999968      52.344999999999992      39.710000000000001
   179   1       7.219999999999998      50.539999999999999      43.319999999999993
   180   1       7.219999999999998      52.344999999999992                  45.125
   181   1      9.0249999999999968      50.539999999999999                  45.125
   182   1      9.0249999999999968      52.344999999999992      43.319999999999993
   183   1       7.219999999999998      50.539999999999999      46.929999999999993
   184   1       7.219999999999998      52.344999999999992      48.734999999999992
   185   1      9.0249999999999968      50.539999999999999      48.734999999999992
   186   1      9.0249999999999968      52.344999999999992      46.929999999999993
   187   1       7.219999999999998      50.539999999999999      50.539999999999999
   188   1       7.219999999999998      52.344999999999992      52.344999999999992
   189   1      9.0249999999999968      50.539999999999999      52.344999999999992
   190   1      9.0249999999999968      52.344999999999992      50.539999999999999
   191   1       7.219999999999998      50.539999999999999      54.149999999999991
   192   1       7.219999999999998      52.344999999999992      55.954999999999998
   193   1      9.0249999999999968      50.539999999999999      55.954999999999998
   194   1      9.0249999999999968      52.344999999999992      54.149999999999991
   195   1       7.219999999999998      50.539999999999999      57.759999999999998
   196   1       7.219999999999998      52.344999999999992      59.564999999999991
   197   1      9.0249999999999968      50.539999999999999      59.564999999999991
   198   1      9.0249999999999968      52.344999999999992      57.759999999999998
   199   1       7.219999999999998      50.539999999999999      61.370000000000005
   200   1      9.0249999999999968      50.539999999999999      63.175000000000004
   201   1      9.0249999999999968      52.344999999999992      61.370000000000005
   202   1      9.0249999999999968      54.149999999999991      37.904999999999994
   203   1       7.219999999999998      54.149999999999991      39.710000000000001
   204   1       7.219999999999998      55.954999999999998      41.515000000000001
   205   1      9.0249999999999968      54.149999999999991      41.515000000000001
   206   1      9.0249999999999968      55.954999999999998      39.710000000000001
   207   1       7.219999999999998      54.149999999999991      43.319999999999993
   208   1       7.219999999999998      55.954999999999998                  45.125
   209   1      9.0249999999999968      54.149999999999991                  45.125
   210   1      9.0249999999999968      55.954999999999998      43.319999999999993
   211   1       7.219999999999998      54.149999999999991      46.929999999999993
   212   1       7.219999999999998      55.954999999999998      48.734999999999992
   213   1      9.0249999999999968      54.149999999999991      48.734999999999992
   214   1      9.0249999999999968      55.954999999999998      46.929999999999993
   215   1       7.219999999999998      54.149999999999991      50.539999999999999
   216   1       7.219999999999998      55.954999999999998      52.344999999999992
   217   1      9.0249999999999968      54.149999999999991      52.344999999999992
   218   1      9.0249999999999968      55.954999999999998      50.539999999999999
   219   1       7.219999999999998      54.149999999999991      54.149999999999991
   220   1       7.219999999999998      55.954999999999998      55.954999999999998
   221   1      9.0249999999999968      54.149999999999991      55.954999999999998
   222   1      9.0249999999999968      55.954999999999998      54.149999999999991
   223   1       7.219999999999998      54.149999999999991      57.759999999999998
   224   1       7.219999999999998      55.954999999999998      59.564999999999991
   225   1      9.0249999999999968      54.149999999999991      59.564999999999991
   226   1      9.0249999999999968      55.954999999999998      57.759999999999998
   227   1       7.219999999999998      54.149999999999991      61.370000000000005
   228   1      9.0249999999999968      54.149999999999991      63.175000000000004
   229   1      9.0249999999999968      55.954999999999998      61.370000000000005
   230   1      9.0249999999999968      57.759999999999998      37.904999999999994
   231   1       7.219999999999998      57.759999999999998      39.710000000000001
   232   1       7.219999999999998      59.564999999999991      41.515000000000001
   233   1      9.0249999999999968      57.759999999999998      41.515000000000001
   234   1      9.0249999999999968      59.564999999999991      39.710000000000001
   235   1       7.219999999999998      57.759999999999998      43.319999999999993
   236   1       7.219999999999998      59.564999999999991                  45.125
   237   1      9.0249999999999968      57.759999999999998                  45.125
   238   1      9.0249999999999968      59.564999999999991      43.319999999999993
   239   1       7.219999999999998      57.759999999999998      46.929999999999993
   240   1       7.219999999999998      59.564999999999991      48.734999999999992
   241   1      9.0249999999999968      57.759999999999998      48.734999999999992
   242   1      9.0249999999999968      59.564999999999991      46.929999999999993
   243   1       7.219999999999998      57.759999999999998      50.539999999999999
   244   1       7.219999999999998      59.564999999999991      52.344999999999992
   245   1      9.0249999999999968      57.759999999999998      52.344999999999992
   246   1      9.0249999999999968      59.564999999999991      50.539999999999999
   247   1       7.219999999999998      57.759999999999998      54.149999999999991
   248   1       7.219999999999998      59.564999999999991      55.954999999999998
   249   1      9.0249999999999968      57.759999999999998      55.954999999999998
   250   1      9.0249999999999968      59.564999999999991      54.149999999999991
   251   1       7.219999999999998      57.759999999999998      57.759999999999998
   252   1       7.219999999999998      59.564999999999991      59.564999999999991
   253   1      9.0249999999999968      57.759999999999998      59.564999999999991
   254   1      9.0249999999999968      59.564999999999991      57.759999999999998
   255   1       7.219999999999998      57.759999999999998      61.370000000000005
   256   1      9.0249999999999968      57.759999999999998      63.175000000000004
   257   1      9.0249999999999968      59.564999999999991      61.370000000000005
   258   1      9.0249999999999968      61.370000000000005      37.904999999999994
   259   1       7.219999999999998      61.370000000000005      39.710000000000001
   260   1      9.0249999999999968      61.370000000000005      41.515000000000001
   261   1      9.0249999999999968      63.175000000000004      39.710000000000001
   262   1       7.219999999999998      61.370000000000005      43.319999999999993
   263   1      9.0249999999999968      61.370000000000005                  45.125
   264   1      9.0249999999999968      63.175000000000004      43.319999999999993
   265   1       7.219999999999998      61.370000000000005      46.929999999999993
   266   1      9.0249999999999968      61.370000000000005      48.734999999999992
   267   1      9.0249999999999968      63.175000000000004      46.929999999999993
   268   1       7.219999999999998      61.370000000000005      50.539999999999999
   269   1      9.0249999999999968      61.370000000000005      52.344999999999992
   270   1      9.0249999999999968      63.175000000000004      50.539999999999999
   271   1       7.219999999999998      61.370000000000005      54.149999999999991
   272   1      9.0249999999999968      61.370000000000005      55.954999999999998
   273   1      9.0249999999999968      63.175000000000004      54.149999999999991
   274   1       7.219999999999998      61.370000000000005      57.759999999999998
   275   1      9.0249999999999968      61.370000000000005      59.564999999999991
   276   1      9.0249999999999968      63.175000000000004      57.759999999999998
   277   1       7.219999999999998      61.370000000000005      61.370000000000005
   278   1      9.0249999999999968      61.370000000000005      63.175000000000004
   279   1      9.0249999999999968      63.175000000000004      61.370000000000005
   280   1      12.634999999999996      34.295000000000002      36.100000000000001
   281   1      12.634999999999996      34.295000000000002      39.710000000000001
   282   1      12.634999999999996      34.295000000000002      43.319999999999993
   283   1      12.634999999999996      34.295000000000002      46.929999999999993
   284   1      12.634999999999996      34.295000000000002      50.539999999999999
   285   1      12.634999999999996      34.295000000000002      54.149999999999991
   286   1      12.634999999999996      34.295000000000002      57.759999999999998
   287   1      12.634999999999996      34.295000000000002      61.370000000000005
   288   1      12.634999999999996      34.295000000000002       64.97999999999999
   289   1      12.634999999999996      36.100000000000001      34.295000000000002
   290   1      10.829999999999998      36.100000000000001      36.100000000000001
   291   1      10.829999999999998      37.904999999999994      37.904999999999994
   292   1      12.634999999999996      36.100000000000001      37.904999999999994
   293   1      12.634999999999996      37.904999999999994      36.100000000000001
   294   1      10.829999999999998      36.100000000000001      39.710000000000001
   295   1      10.829999999999998      37.904999999999994      41.515000000000001
   296   1      12.634999999999996      36.100000000000001      41.515000000000001
   297   1      12.634999999999996      37.904999999999994      39.710000000000001
   298   1      10.829999999999998      36.100000000000001      43.319999999999993
   299   1      10.829999999999998      37.904999999999994                  45.125
   300   1      12.634999999999996      36.100000000000001                  45.125
   301   1      12.634999999999996      37.904999999999994      43.319999999999993
   302   1      10.829999999999998      36.100000000000001      46.929999999999993
   303   1      10.829999999999998      37.904999999999994      48.734999999999992
   304   1      12.634999999999996      36.100000000000001      48.734999999999992
   305   1      12.634999999999996      37.904999999999994      46.929999999999993
   306   1      10.829999999999998      36.100000000000001      50.539999999999999
   307   1      10.829999999999998      37.904999999999994      52.344999999999992
   308   1      12.634999999999996      36.100000000000001      52.344999999999992
   309   1      12.634999999999996      37.904999999999994      50.539999999999999
   310   1      10.829999999999998      36.100000000000001      54.149999999999991
   311   1      10.829999999999998      37.904999999999994      55.954999999999998
   312   1      12.634999999999996      36.100000000000001      55.954999999999998
   313   1      12.634999999999996      37.904999999999994      54.149999999999991
   314   1      10.829999999999998      36.100000000000001      57.759999999999998
   315   1      10.829999999999998      37.904999999999994      59.564999999999991
   316   1      12.634999999999996      36.100000000000001      59.564999999999991
   317   1      12.634999999999996      37.904999999999994      57.759999999999998
   318   1      10.829999999999998      36.100000000000001      61.370000000000005
   319   1      10.829999999999998      37.904999999999994      63.175000000000004
   320   1      12.634999999999996      36.100000000000001      63.175000000000004
   321   1      12.634999999999996      37.904999999999994      61.370000000000005
   322   1      10.829999999999998      36.100000000000001       64.97999999999999
   323   1      12.634999999999996      36.100000000000001      66.785000000000011
   324   1      12.634999999999996      37.904999999999994       64.97999999999999
   325   1      12.634999999999996      39.710000000000001      34.295000000000002
   326   1      10.829999999999998      39.710000000000001      36.100000000000001
   327   1      10.829999999999998      41.515000000000001      37.904999999999994
   328   1      12.634999999999996      39.710000000000001      37.904999999999994
   329   1      12.634999999999996      41.515000000000001      36.100000000000001
   330   1      10.829999999999998      39.710000000000001      39.710000000000001
   331   1      10.829999999999998      41.515000000000001      41.515000000000001
   332   1      12.634999999999996      39.710000000000001      41.515000000000001
   333   1      12.634999999999996      41.515000000000001      39.710000000000001
   334   1      10.829999999999998      39.710000000000001      43.319999999999993
   335   1      10.829999999999998      41.515000000000001                  45.125
   336   1      12.634999999999996      39.710000000000001                  45.125
   337   1      12.634999999999996      41.515000000000001      43.319999999999993
   338   1      10.829999999999998      39.710000000000001      46.929999999999993
   339   1      10.829999999999998      41.515000000000001      48.734999999999992
   340   1      12.634999999999996      39.710000000000001      48.734999999999992
   341   1      12.634999999999996      41.515000000000001      46.929999999999993
   342   1      10.829999999999998      39.710000000000001      50.539999999999999
   343   1      10.829999999999998      41.515000000000001      52.344999999999992
   344   1      12.634999999999996      39.710000000000001      52.344999999999992
   345   1      12.634999999999996      41.515000000000001      50.539999999999999
   346   1      10.829999999999998      39.710000000000001      54.149999999999991
   347   1      10.829999999999998      41.515000000000001      55.954999999999998
   348   1      12.634999999999996      39.710000000000001      55.954999999999998
   349   1      12.634999999999996      41.515000000000001      54.149999999999991
   350   1      10.829999999999998      39.710000000000001      57.759999999999998
   351   1      10.829999999999998      41.515000000000001      59.564999999999991
   352   1      12.634999999999996      39.710000000000001      59.564999999999991
   353   1      12.634999999999996      41.515000000000001      57.759999999999998
   354   1      10.829999999999998      39.710000000000001      61.370000000000005
   355   1      10.829999999999998      41.515000000000001      63.175000000000004
   356   1      12.634999999999996      39.710000000000001      63.175000000000004
   357   1      12.634999999999996      41.515000000000001      61.370000000000005
   358   1      10.829999999999998      39.710000000000001       64.97999999999999