model_files/PdCo/PdCo_30000/PdCo_431/PdCo_431_fcc_29685_temp.data (written by ASE) 

29685 	 atoms 
2  atom types
0.0                     104  xlo xhi
0.0                     104  ylo yhi
0.0                     104  zlo zhi


Atoms 

     1   1      1.8750000000000002                  46.875                    52.5
     2   1                       0      50.625000000000007      50.625000000000007
     3   1      1.8750000000000002                   48.75      50.625000000000007
     4   1      1.8750000000000002      50.625000000000007                   48.75
     5   1                       0                   48.75                    52.5
     6   1                       0      50.625000000000007                  54.375
     7   1      1.8750000000000002                   48.75                  54.375
     8   1      1.8750000000000002      50.625000000000007                    52.5
     9   1      1.8750000000000002      50.625000000000007      56.250000000000007
    10   1      1.8750000000000002                    52.5                  46.875
    11   1                       0                    52.5                   48.75
    12   1                       0                  54.375      50.625000000000007
    13   1      1.8750000000000002                    52.5      50.625000000000007
    14   1      1.8750000000000002                  54.375                   48.75
    15   1                       0                    52.5                    52.5
    16   1                       0                  54.375                  54.375
    17   1      1.8750000000000002                    52.5                  54.375
    18   1      1.8750000000000002                  54.375                    52.5
    19   1                       0                    52.5      56.250000000000007
    20   1      1.8750000000000002                    52.5      58.125000000000007
    21   1      1.8750000000000002                  54.375      56.250000000000007
    22   1      1.8750000000000002      56.250000000000007      50.625000000000007
    23   1                       0      56.250000000000007                    52.5
    24   1      1.8750000000000002      56.250000000000007                  54.375
    25   1      1.8750000000000002      58.125000000000007                    52.5
    26   1                   5.625                  43.125                   48.75
    27   1                   5.625                  43.125                    52.5
    28   1                   5.625                  43.125      56.250000000000007
    29   1      3.7500000000000004                  46.875                  46.875
    30   1                   5.625                      45                  46.875
    31   1                   5.625                  46.875                      45
    32   1      3.7500000000000004                      45                   48.75
    33   1      3.7500000000000004                  46.875      50.625000000000007
    34   1                   5.625                      45      50.625000000000007
    35   1                   5.625                  46.875                   48.75
    36   1      3.7500000000000004                      45                    52.5
    37   1      3.7500000000000004                  46.875                  54.375
    38   1                   5.625                      45                  54.375
    39   1                   5.625                  46.875                    52.5
    40   1      3.7500000000000004                      45      56.250000000000007
    41   1      3.7500000000000004                  46.875      58.125000000000007
    42   1                   5.625                      45      58.125000000000007
    43   1                   5.625                  46.875      56.250000000000007
    44   1                   5.625                  46.875      60.000000000000007
    45   1                   5.625                   48.75                  43.125
    46   1      3.7500000000000004                   48.75                      45
    47   1      3.7500000000000004      50.625000000000007                  46.875
    48   1                   5.625                   48.75                  46.875
    49   1                   5.625      50.625000000000007                      45
    50   1      3.7500000000000004                   48.75                   48.75
    51   1      3.7500000000000004      50.625000000000007      50.625000000000007
    52   1                   5.625                   48.75      50.625000000000007
    53   1                   5.625      50.625000000000007                   48.75
    54   1      3.7500000000000004                   48.75                    52.5
    55   1      3.7500000000000004      50.625000000000007                  54.375
    56   1                   5.625                   48.75                  54.375
    57   1                   5.625      50.625000000000007                    52.5
    58   1      3.7500000000000004                   48.75      56.250000000000007
    59   1      3.7500000000000004      50.625000000000007      58.125000000000007
    60   1                   5.625                   48.75      58.125000000000007
    61   1                   5.625      50.625000000000007      56.250000000000007
    62   1      3.7500000000000004                   48.75      60.000000000000007
    63   1                   5.625                   48.75      61.875000000000007
    64   1                   5.625      50.625000000000007      60.000000000000007
    65   1                   5.625                    52.5                  43.125
    66   1      3.7500000000000004                    52.5                      45
    67   1      3.7500000000000004                  54.375                  46.875
    68   1                   5.625                    52.5                  46.875
    69   1                   5.625                  54.375                      45
    70   1      3.7500000000000004                    52.5                   48.75
    71   1      3.7500000000000004                  54.375      50.625000000000007
    72   1                   5.625                    52.5      50.625000000000007
    73   1                   5.625                  54.375                   48.75
    74   1      3.7500000000000004                    52.5                    52.5
    75   1      3.7500000000000004                  54.375                  54.375
    76   1                   5.625                    52.5                  54.375
    77   1                   5.625                  54.375                    52.5
    78   1      3.7500000000000004                    52.5      56.250000000000007
    79   1      3.7500000000000004                  54.375      58.125000000000007
    80   1                   5.625                    52.5      58.125000000000007
    81   1                   5.625                  54.375      56.250000000000007
    82   1      3.7500000000000004                    52.5      60.000000000000007
    83   1                   5.625                    52.5      61.875000000000007
    84   1                   5.625                  54.375      60.000000000000007
    85   1                   5.625      56.250000000000007                  43.125
    86   1      3.7500000000000004      56.250000000000007                      45
    87   1      3.7500000000000004      58.125000000000007                  46.875
    88   1                   5.625      56.250000000000007                  46.875
    89   1                   5.625      58.125000000000007                      45
    90   1      3.7500000000000004      56.250000000000007                   48.75
    91   1      3.7500000000000004      58.125000000000007      50.625000000000007
    92   1                   5.625      56.250000000000007      50.625000000000007
    93   1                   5.625      58.125000000000007                   48.75
    94   1      3.7500000000000004      56.250000000000007                    52.5
    95   1      3.7500000000000004      58.125000000000007                  54.375
    96   1                   5.625      56.250000000000007                  54.375
    97   1                   5.625      58.125000000000007                    52.5
    98   1      3.7500000000000004      56.250000000000007      56.250000000000007
    99   1      3.7500000000000004      58.125000000000007      58.125000000000007
   100   1                   5.625      56.250000000000007      58.125000000000007
   101   1                   5.625      58.125000000000007      56.250000000000007
   102   1      3.7500000000000004      56.250000000000007      60.000000000000007
   103   1                   5.625      56.250000000000007      61.875000000000007
   104   1                   5.625      58.125000000000007      60.000000000000007
   105   1                   5.625      60.000000000000007                  46.875
   106   1      3.7500000000000004      60.000000000000007                   48.75
   107   1                   5.625      60.000000000000007      50.625000000000007
   108   1                   5.625      61.875000000000007                   48.75
   109   1      3.7500000000000004      60.000000000000007                    52.5
   110   1                   5.625      60.000000000000007                  54.375
   111   1                   5.625      61.875000000000007                    52.5
   112   1      3.7500000000000004      60.000000000000007      56.250000000000007
   113   1                   5.625      60.000000000000007      58.125000000000007
   114   1                   5.625      61.875000000000007      56.250000000000007
   115   1                   9.375      39.375000000000007                      45
   116   1      7.5000000000000009      39.375000000000007      50.625000000000007
   117   1                   9.375                    37.5      50.625000000000007
   118   1                   9.375      39.375000000000007                   48.75
   119   1      7.5000000000000009      39.375000000000007                  54.375
   120   1                   9.375                    37.5                  54.375
   121   1                   9.375      39.375000000000007                    52.5
   122   1                   9.375      39.375000000000007      56.250000000000007
   123   1                   9.375      39.375000000000007      60.000000000000007
   124   1      7.5000000000000009                  43.125                  43.125
   125   1                   9.375                   41.25                  43.125
   126   1                   9.375                  43.125                   41.25
   127   1      7.5000000000000009                   41.25                      45
   128   1      7.5000000000000009                  43.125                  46.875
   129   1                   9.375                   41.25                  46.875
   130   1                   9.375                  43.125                      45
   131   1      7.5000000000000009                   41.25                   48.75
   132   1      7.5000000000000009                  43.125      50.625000000000007
   133   1                   9.375                   41.25      50.625000000000007
   134   1                   9.375                  43.125                   48.75
   135   1      7.5000000000000009                   41.25                    52.5
   136   1      7.5000000000000009                  43.125                  54.375
   137   1                   9.375                   41.25                  54.375
   138   1                   9.375                  43.125                    52.5
   139   1      7.5000000000000009                   41.25      56.250000000000007
   140   1      7.5000000000000009                  43.125      58.125000000000007
   141   1                   9.375                   41.25      58.125000000000007
   142   1                   9.375                  43.125      56.250000000000007
   143   1      7.5000000000000009                   41.25      60.000000000000007
   144   1      7.5000000000000009                  43.125      61.875000000000007
   145   1                   9.375                   41.25      61.875000000000007
   146   1                   9.375                  43.125      60.000000000000007
   147   1                   9.375                  43.125      63.750000000000007
   148   1                   9.375                      45      39.375000000000007
   149   1      7.5000000000000009                      45                   41.25
   150   1      7.5000000000000009                  46.875                  43.125
   151   1                   9.375                      45                  43.125
   152   1                   9.375                  46.875                   41.25
   153   1      7.5000000000000009                      45                      45
   154   1      7.5000000000000009                  46.875                  46.875
   155   1                   9.375                      45                  46.875
   156   1                   9.375                  46.875                      45
   157   1      7.5000000000000009                      45                   48.75
   158   1      7.5000000000000009                  46.875      50.625000000000007
   159   1                   9.375                      45      50.625000000000007
   160   1                   9.375                  46.875                   48.75
   161   1      7.5000000000000009                      45                    52.5
   162   1      7.5000000000000009                  46.875                  54.375
   163   1                   9.375                      45                  54.375
   164   1                   9.375                  46.875                    52.5
   165   1      7.5000000000000009                      45      56.250000000000007
   166   1      7.5000000000000009                  46.875      58.125000000000007
   167   1                   9.375                      45      58.125000000000007
   168   1                   9.375                  46.875      56.250000000000007
   169   1      7.5000000000000009                      45      60.000000000000007
   170   1      7.5000000000000009                  46.875      61.875000000000007
   171   1                   9.375                      45      61.875000000000007
   172   1                   9.375                  46.875      60.000000000000007
   173   1      7.5000000000000009                      45      63.750000000000007
   174   1                   9.375                      45                  65.625
   175   1                   9.375                  46.875      63.750000000000007
   176   1      7.5000000000000009      50.625000000000007      39.375000000000007
   177   1                   9.375                   48.75      39.375000000000007
   178   1                   9.375      50.625000000000007                    37.5
   179   1      7.5000000000000009                   48.75                   41.25
   180   1      7.5000000000000009      50.625000000000007                  43.125
   181   1                   9.375                   48.75                  43.125
   182   1                   9.375      50.625000000000007                   41.25
   183   1      7.5000000000000009                   48.75                      45
   184   1      7.5000000000000009      50.625000000000007                  46.875
   185   1                   9.375                   48.75                  46.875
   186   1                   9.375      50.625000000000007                      45
   187   1      7.5000000000000009                   48.75                   48.75
   188   1      7.5000000000000009      50.625000000000007      50.625000000000007
   189   1                   9.375                   48.75      50.625000000000007
   190   1                   9.375      50.625000000000007                   48.75
   191   1      7.5000000000000009                   48.75                    52.5
   192   1      7.5000000000000009      50.625000000000007                  54.375
   193   1                   9.375                   48.75                  54.375
   194   1                   9.375      50.625000000000007                    52.5
   195   1      7.5000000000000009                   48.75      56.250000000000007
   196   1      7.5000000000000009      50.625000000000007      58.125000000000007
   197   1                   9.375                   48.75      58.125000000000007
   198   1                   9.375      50.625000000000007      56.250000000000007
   199   1      7.5000000000000009                   48.75      60.000000000000007
   200   1      7.5000000000000009      50.625000000000007      61.875000000000007
   201   1                   9.375                   48.75      61.875000000000007
   202   1                   9.375      50.625000000000007      60.000000000000007
   203   1      7.5000000000000009                   48.75      63.750000000000007
   204   1      7.5000000000000009      50.625000000000007                  65.625
   205   1                   9.375                   48.75                  65.625
   206   1                   9.375      50.625000000000007      63.750000000000007
   207   1                   9.375      50.625000000000007                    67.5
   208   1      7.5000000000000009                  54.375      39.375000000000007
   209   1                   9.375                    52.5      39.375000000000007
   210   1                   9.375                  54.375                    37.5
   211   1      7.5000000000000009                    52.5                   41.25
   212   1      7.5000000000000009                  54.375                  43.125
   213   1                   9.375                    52.5                  43.125
   214   1                   9.375                  54.375                   41.25
   215   1      7.5000000000000009                    52.5                      45
   216   1      7.5000000000000009                  54.375                  46.875
   217   1                   9.375                    52.5                  46.875
   218   1                   9.375                  54.375                      45
   219   1      7.5000000000000009                    52.5                   48.75
   220   1      7.5000000000000009                  54.375      50.625000000000007
   221   1                   9.375                    52.5      50.625000000000007
   222   1                   9.375                  54.375                   48.75
   223   1      7.5000000000000009                    52.5                    52.5
   224   1      7.5000000000000009                  54.375                  54.375
   225   1                   9.375                    52.5                  54.375
   226   1                   9.375                  54.375                    52.5
   227   1      7.5000000000000009                    52.5      56.250000000000007
   228   1      7.5000000000000009                  54.375      58.125000000000007
   229   1                   9.375                    52.5      58.125000000000007
   230   1                   9.375                  54.375      56.250000000000007
   231   1      7.5000000000000009                    52.5      60.000000000000007
   232   1      7.5000000000000009                  54.375      61.875000000000007
   233   1                   9.375                    52.5      61.875000000000007
   234   1                   9.375                  54.375      60.000000000000007
   235   1      7.5000000000000009                    52.5      63.750000000000007
   236   1      7.5000000000000009                  54.375                  65.625
   237   1                   9.375                    52.5                  65.625
   238   1                   9.375                  54.375      63.750000000000007
   239   1                   9.375                  54.375                    67.5
   240   1                   9.375      56.250000000000007      39.375000000000007
   241   1      7.5000000000000009      56.250000000000007                   41.25
   242   1      7.5000000000000009      58.125000000000007                  43.125
   243   1                   9.375      56.250000000000007                  43.125
   244   1                   9.375      58.125000000000007                   41.25
   245   1      7.5000000000000009      56.250000000000007                      45
   246   1      7.5000000000000009      58.125000000000007                  46.875
   247   1                   9.375      56.250000000000007                  46.875
   248   1                   9.375      58.125000000000007                      45
   249   1      7.5000000000000009      56.250000000000007                   48.75
   250   1      7.5000000000000009      58.125000000000007      50.625000000000007
   251   1                   9.375      56.250000000000007      50.625000000000007
   252   1                   9.375      58.125000000000007                   48.75
   253   1      7.5000000000000009      56.250000000000007                    52.5
   254   1      7.5000000000000009      58.125000000000007                  54.375
   255   1                   9.375      56.250000000000007                  54.375
   256   1                   9.375      58.125000000000007                    52.5
   257   1      7.5000000000000009      56.250000000000007      56.250000000000007
   258   1      7.5000000000000009      58.125000000000007      58.125000000000007
   259   1                   9.375      56.250000000000007      58.125000000000007
   260   1                   9.375      58.125000000000007      56.250000000000007
   261   1      7.5000000000000009      56.250000000000007      60.000000000000007
   262   1      7.5000000000000009      58.125000000000007      61.875000000000007
   263   1                   9.375      56.250000000000007      61.875000000000007
   264   1                   9.375      58.125000000000007      60.000000000000007
   265   1      7.5000000000000009      56.250000000000007      63.750000000000007
   266   1                   9.375      56.250000000000007                  65.625
   267   1                   9.375      58.125000000000007      63.750000000000007
   268   1                   9.375      60.000000000000007      39.375000000000007
   269   1      7.5000000000000009      60.000000000000007                   41.25
   270   1      7.5000000000000009      61.875000000000007                  43.125
   271   1                   9.375      60.000000000000007                  43.125
   272   1                   9.375      61.875000000000007                   41.25
   273   1      7.5000000000000009      60.000000000000007                      45
   274   1      7.5000000000000009      61.875000000000007                  46.875
   275   1                   9.375      60.000000000000007                  46.875
   276   1                   9.375      61.875000000000007                      45
   277   1      7.5000000000000009      60.000000000000007                   48.75
   278   1      7.5000000000000009      61.875000000000007      50.625000000000007
   279   1                   9.375      60.000000000000007      50.625000000000007
   280   1                   9.375      61.875000000000007                   48.75
   281   1      7.5000000000000009      60.000000000000007                    52.5
   282   1      7.5000000000000009      61.875000000000007                  54.375
   283   1                   9.375      60.000000000000007                  54.375
   284   1                   9.375      61.875000000000007                    52.5
   285   1      7.5000000000000009      60.000000000000007      56.250000000000007
   286   1      7.5000000000000009      61.875000000000007      58.125000000000007
   287   1                   9.375      60.000000000000007      58.125000000000007
   288   1                   9.375      61.875000000000007      56.250000000000007
   289   1      7.5000000000000009      60.000000000000007      60.000000000000007
   290   1      7.5000000000000009      61.875000000000007      61.875000000000007
   291   1                   9.375      60.000000000000007      61.875000000000007
   292   1                   9.375      61.875000000000007      60.000000000000007
   293   1      7.5000000000000009      60.000000000000007      63.750000000000007
   294   1                   9.375      60.000000000000007                  65.625
   295   1                   9.375      61.875000000000007      63.750000000000007
   296   1                   9.375      63.750000000000007                  43.125
   297   1      7.5000000000000009      63.750000000000007                      45
   298   1                   9.375      63.750000000000007                  46.875
   299   1                   9.375                  65.625                      45
   300   1      7.5000000000000009      63.750000000000007                   48.75
   301   1      7.5000000000000009                  65.625      50.625000000000007
   302   1                   9.375      63.750000000000007      50.625000000000007
   303   1                   9.375                  65.625                   48.75
   304   1      7.5000000000000009      63.750000000000007                    52.5
   305   1      7.5000000000000009                  65.625                  54.375
   306   1                   9.375      63.750000000000007                  54.375
   307   1                   9.375                  65.625                    52.5
   308   1      7.5000000000000009      63.750000000000007      56.250000000000007
   309   1                   9.375      63.750000000000007      58.125000000000007
   310   1                   9.375                  65.625      56.250000000000007
   311   1      7.5000000000000009      63.750000000000007      60.000000000000007
   312   1                   9.375      63.750000000000007      61.875000000000007
   313   1                   9.375                  65.625      60.000000000000007
   314   1                   9.375                    67.5      50.625000000000007
   315   1                   9.375                    67.5                  54.375
   316   1                  13.125      31.875000000000004                    52.5
   317   1                  13.125                  35.625                   41.25
   318   1                   11.25                  35.625                  46.875
   319   1                  13.125                   33.75                  46.875
   320   1                  13.125                  35.625                      45
   321   1                   11.25                  35.625      50.625000000000007
   322   1                  13.125                   33.75      50.625000000000007
   323   1                  13.125                  35.625                   48.75
   324   1                   11.25                   33.75                    52.5
   325   1                   11.25                  35.625                  54.375
   326   1                  13.125                   33.75                  54.375
   327   1                  13.125                  35.625                    52.5
   328   1                   11.25                  35.625      58.125000000000007
   329   1                  13.125                   33.75      58.125000000000007
   330   1                  13.125                  35.625      56.250000000000007
   331   1                  13.125                  35.625      60.000000000000007
   332   1                  13.125                  35.625      63.750000000000007
   333   1                   11.25      39.375000000000007      39.375000000000007
   334   1                  13.125                    37.5      39.375000000000007
   335   1                  13.125      39.375000000000007                    37.5
   336   1                   11.25                    37.5                   41.25
   337   1                   11.25      39.375000000000007                  43.125
   338   1                  13.125                    37.5                  43.125
   339   1                  13.125      39.375000000000007                   41.25
   340   1                   11.25                    37.5                      45
   341   1                   11.25      39.375000000000007                  46.875
   342   1                  13.125                    37.5                  46.875
   343   1                  13.125      39.375000000000007                      45
   344   1                   11.25                    37.5                   48.75
   345   1                   11.25      39.375000000000007      50.625000000000007
   346   1                  13.125                    37.5      50.625000000000007
   347   1                  13.125      39.375000000000007                   48.75
   348   1                   11.25                    37.5                    52.5
   349   1                   11.25      39.375000000000007                  54.375
   350   1                  13.125                    37.5                  54.375
   351   1                  13.125      39.375000000000007                    52.5
   352   1                   11.25                    37.5      56.250000000000007
   353   1                   11.25      39.375000000000007      58.125000000000007
   354   1                  13.125                    37.5      58.125000000000007
   355   1                  13.125      39.375000000000007      56.250000000000007
   356   1                   11.25                    37.5      60.000000000000007
   357   1                   11.25      39.375000000000007      61.875000000000007
   358   1                  13.125                    37.5      61.875000000000007