model_files/Fe/Fe_30000/Fe_310/data.Fe_310_fcc_29409 (written by ASE) 

29409 	 atoms 
1  atom types
0.0                      85  xlo xhi
0.0                      85  ylo yhi
0.0                      85  zlo zhi


Atoms 

     1   1                       0      40.179999999999993      40.179999999999993
     2   1                       0      40.179999999999993      43.049999999999997
     3   1                       0      43.049999999999997      40.179999999999993
     4   1                       0      43.049999999999997      43.049999999999997
     5   1      2.8699999999999974      31.569999999999993      31.569999999999993
     6   1      2.8699999999999974      31.569999999999993      34.439999999999998
     7   1      2.8699999999999974      31.569999999999993      37.309999999999995
     8   1      2.8699999999999974      31.569999999999993      40.179999999999993
     9   1      2.8699999999999974      31.569999999999993      43.049999999999997
    10   1      2.8699999999999974      31.569999999999993      45.919999999999995
    11   1      2.8699999999999974      31.569999999999993      48.789999999999985
    12   1      2.8699999999999974      31.569999999999993      51.659999999999997
    13   1      2.8699999999999974      34.439999999999998      31.569999999999993
    14   1      2.8699999999999974      34.439999999999998      34.439999999999998
    15   1      2.8699999999999974      34.439999999999998      37.309999999999995
    16   1      2.8699999999999974      34.439999999999998      40.179999999999993
    17   1      2.8699999999999974      34.439999999999998      43.049999999999997
    18   1      2.8699999999999974      34.439999999999998      45.919999999999995
    19   1      2.8699999999999974      34.439999999999998      48.789999999999985
    20   1      2.8699999999999974      34.439999999999998      51.659999999999997
    21   1      2.8699999999999974      37.309999999999995      31.569999999999993
    22   1      2.8699999999999974      37.309999999999995      34.439999999999998
    23   1      1.4349999999999952      35.874999999999993      35.874999999999993
    24   1      2.8699999999999974      37.309999999999995      37.309999999999995
    25   1      1.4349999999999952      35.874999999999993       38.74499999999999
    26   1      2.8699999999999974      37.309999999999995      40.179999999999993
    27   1      1.4349999999999952      35.874999999999993      41.614999999999995
    28   1      2.8699999999999974      37.309999999999995      43.049999999999997
    29   1      1.4349999999999952      35.874999999999993      44.484999999999992
    30   1      2.8699999999999974      37.309999999999995      45.919999999999995
    31   1      1.4349999999999952      35.874999999999993       47.35499999999999
    32   1      2.8699999999999974      37.309999999999995      48.789999999999985
    33   1      2.8699999999999974      37.309999999999995      51.659999999999997
    34   1      2.8699999999999974      40.179999999999993      31.569999999999993
    35   1      2.8699999999999974      40.179999999999993      34.439999999999998
    36   1      1.4349999999999952       38.74499999999999      35.874999999999993
    37   1      2.8699999999999974      40.179999999999993      37.309999999999995
    38   1      1.4349999999999952       38.74499999999999       38.74499999999999
    39   1      2.8699999999999974      40.179999999999993      40.179999999999993
    40   1      1.4349999999999952       38.74499999999999      41.614999999999995
    41   1      2.8699999999999974      40.179999999999993      43.049999999999997
    42   1      1.4349999999999952       38.74499999999999      44.484999999999992
    43   1      2.8699999999999974      40.179999999999993      45.919999999999995
    44   1      1.4349999999999952       38.74499999999999       47.35499999999999
    45   1      2.8699999999999974      40.179999999999993      48.789999999999985
    46   1      2.8699999999999974      40.179999999999993      51.659999999999997
    47   1      2.8699999999999974      43.049999999999997      31.569999999999993
    48   1      2.8699999999999974      43.049999999999997      34.439999999999998
    49   1      1.4349999999999952      41.614999999999995      35.874999999999993
    50   1      2.8699999999999974      43.049999999999997      37.309999999999995
    51   1      1.4349999999999952      41.614999999999995       38.74499999999999
    52   1      2.8699999999999974      43.049999999999997      40.179999999999993
    53   1      1.4349999999999952      41.614999999999995      41.614999999999995
    54   1      2.8699999999999974      43.049999999999997      43.049999999999997
    55   1      1.4349999999999952      41.614999999999995      44.484999999999992
    56   1      2.8699999999999974      43.049999999999997      45.919999999999995
    57   1      1.4349999999999952      41.614999999999995       47.35499999999999
    58   1      2.8699999999999974      43.049999999999997      48.789999999999985
    59   1      2.8699999999999974      43.049999999999997      51.659999999999997
    60   1      2.8699999999999974      45.919999999999995      31.569999999999993
    61   1      2.8699999999999974      45.919999999999995      34.439999999999998
    62   1      1.4349999999999952      44.484999999999992      35.874999999999993
    63   1      2.8699999999999974      45.919999999999995      37.309999999999995
    64   1      1.4349999999999952      44.484999999999992       38.74499999999999
    65   1      2.8699999999999974      45.919999999999995      40.179999999999993
    66   1      1.4349999999999952      44.484999999999992      41.614999999999995
    67   1      2.8699999999999974      45.919999999999995      43.049999999999997
    68   1      1.4349999999999952      44.484999999999992      44.484999999999992
    69   1      2.8699999999999974      45.919999999999995      45.919999999999995
    70   1      1.4349999999999952      44.484999999999992       47.35499999999999
    71   1      2.8699999999999974      45.919999999999995      48.789999999999985
    72   1      2.8699999999999974      45.919999999999995      51.659999999999997
    73   1      2.8699999999999974      48.789999999999985      31.569999999999993
    74   1      2.8699999999999974      48.789999999999985      34.439999999999998
    75   1      1.4349999999999952       47.35499999999999      35.874999999999993
    76   1      2.8699999999999974      48.789999999999985      37.309999999999995
    77   1      1.4349999999999952       47.35499999999999       38.74499999999999
    78   1      2.8699999999999974      48.789999999999985      40.179999999999993
    79   1      1.4349999999999952       47.35499999999999      41.614999999999995
    80   1      2.8699999999999974      48.789999999999985      43.049999999999997
    81   1      1.4349999999999952       47.35499999999999      44.484999999999992
    82   1      2.8699999999999974      48.789999999999985      45.919999999999995
    83   1      1.4349999999999952       47.35499999999999       47.35499999999999
    84   1      2.8699999999999974      48.789999999999985      48.789999999999985
    85   1      2.8699999999999974      48.789999999999985      51.659999999999997
    86   1      2.8699999999999974      51.659999999999997      31.569999999999993
    87   1      2.8699999999999974      51.659999999999997      34.439999999999998
    88   1      2.8699999999999974      51.659999999999997      37.309999999999995
    89   1      2.8699999999999974      51.659999999999997      40.179999999999993
    90   1      2.8699999999999974      51.659999999999997      43.049999999999997
    91   1      2.8699999999999974      51.659999999999997      45.919999999999995
    92   1      2.8699999999999974      51.659999999999997      48.789999999999985
    93   1      2.8699999999999974      51.659999999999997      51.659999999999997
    94   1      5.7399999999999949      22.959999999999994      22.959999999999994
    95   1      5.7399999999999949      22.959999999999994      25.829999999999991
    96   1      5.7399999999999949      22.959999999999994      28.699999999999992
    97   1      5.7399999999999949      22.959999999999994      31.569999999999993
    98   1      5.7399999999999949      22.959999999999994      34.439999999999998
    99   1      5.7399999999999949      22.959999999999994      37.309999999999995
   100   1      5.7399999999999949      22.959999999999994      40.179999999999993
   101   1      5.7399999999999949      22.959999999999994      43.049999999999997
   102   1      5.7399999999999949      22.959999999999994      45.919999999999995
   103   1      5.7399999999999949      22.959999999999994      48.789999999999985
   104   1      5.7399999999999949      22.959999999999994      51.659999999999997
   105   1      5.7399999999999949      22.959999999999994      54.529999999999994
   106   1      5.7399999999999949      22.959999999999994      57.399999999999991
   107   1      5.7399999999999949      22.959999999999994      60.269999999999996
   108   1      5.7399999999999949      25.829999999999991      22.959999999999994
   109   1      5.7399999999999949      25.829999999999991      25.829999999999991
   110   1      5.7399999999999949      25.829999999999991      28.699999999999992
   111   1      5.7399999999999949      25.829999999999991      31.569999999999993
   112   1      5.7399999999999949      25.829999999999991      34.439999999999998
   113   1      5.7399999999999949      25.829999999999991      37.309999999999995
   114   1      5.7399999999999949      25.829999999999991      40.179999999999993
   115   1      5.7399999999999949      25.829999999999991      43.049999999999997
   116   1      5.7399999999999949      25.829999999999991      45.919999999999995
   117   1      5.7399999999999949      25.829999999999991      48.789999999999985
   118   1      5.7399999999999949      25.829999999999991      51.659999999999997
   119   1      5.7399999999999949      25.829999999999991      54.529999999999994
   120   1      5.7399999999999949      25.829999999999991      57.399999999999991
   121   1      5.7399999999999949      25.829999999999991      60.269999999999996
   122   1      5.7399999999999949      28.699999999999992      22.959999999999994
   123   1      5.7399999999999949      28.699999999999992      25.829999999999991
   124   1      4.3049999999999997       27.26499999999999       27.26499999999999
   125   1      5.7399999999999949      28.699999999999992      28.699999999999992
   126   1      4.3049999999999997       27.26499999999999      30.134999999999994
   127   1      5.7399999999999949      28.699999999999992      31.569999999999993
   128   1      4.3049999999999997       27.26499999999999      33.004999999999995
   129   1      5.7399999999999949      28.699999999999992      34.439999999999998
   130   1      4.3049999999999997       27.26499999999999      35.874999999999993
   131   1      5.7399999999999949      28.699999999999992      37.309999999999995
   132   1      4.3049999999999997       27.26499999999999       38.74499999999999
   133   1      5.7399999999999949      28.699999999999992      40.179999999999993
   134   1      4.3049999999999997       27.26499999999999      41.614999999999995
   135   1      5.7399999999999949      28.699999999999992      43.049999999999997
   136   1      4.3049999999999997       27.26499999999999      44.484999999999992
   137   1      5.7399999999999949      28.699999999999992      45.919999999999995
   138   1      4.3049999999999997       27.26499999999999       47.35499999999999
   139   1      5.7399999999999949      28.699999999999992      48.789999999999985
   140   1      4.3049999999999997       27.26499999999999      50.224999999999994
   141   1      5.7399999999999949      28.699999999999992      51.659999999999997
   142   1      4.3049999999999997       27.26499999999999      53.094999999999992
   143   1      5.7399999999999949      28.699999999999992      54.529999999999994
   144   1      4.3049999999999997       27.26499999999999      55.964999999999989
   145   1      5.7399999999999949      28.699999999999992      57.399999999999991
   146   1      5.7399999999999949      28.699999999999992      60.269999999999996
   147   1      5.7399999999999949      31.569999999999993      22.959999999999994
   148   1      5.7399999999999949      31.569999999999993      25.829999999999991
   149   1      4.3049999999999997      30.134999999999994       27.26499999999999
   150   1      5.7399999999999949      31.569999999999993      28.699999999999992
   151   1      4.3049999999999997      30.134999999999994      30.134999999999994
   152   1      5.7399999999999949      31.569999999999993      31.569999999999993
   153   1      4.3049999999999997      30.134999999999994      33.004999999999995
   154   1      5.7399999999999949      31.569999999999993      34.439999999999998
   155   1      4.3049999999999997      30.134999999999994      35.874999999999993
   156   1      5.7399999999999949      31.569999999999993      37.309999999999995
   157   1      4.3049999999999997      30.134999999999994       38.74499999999999
   158   1      5.7399999999999949      31.569999999999993      40.179999999999993
   159   1      4.3049999999999997      30.134999999999994      41.614999999999995
   160   1      5.7399999999999949      31.569999999999993      43.049999999999997
   161   1      4.3049999999999997      30.134999999999994      44.484999999999992
   162   1      5.7399999999999949      31.569999999999993      45.919999999999995
   163   1      4.3049999999999997      30.134999999999994       47.35499999999999
   164   1      5.7399999999999949      31.569999999999993      48.789999999999985
   165   1      4.3049999999999997      30.134999999999994      50.224999999999994
   166   1      5.7399999999999949      31.569999999999993      51.659999999999997
   167   1      4.3049999999999997      30.134999999999994      53.094999999999992
   168   1      5.7399999999999949      31.569999999999993      54.529999999999994
   169   1      4.3049999999999997      30.134999999999994      55.964999999999989
   170   1      5.7399999999999949      31.569999999999993      57.399999999999991
   171   1      5.7399999999999949      31.569999999999993      60.269999999999996
   172   1      5.7399999999999949      34.439999999999998      22.959999999999994
   173   1      5.7399999999999949      34.439999999999998      25.829999999999991
   174   1      4.3049999999999997      33.004999999999995       27.26499999999999
   175   1      5.7399999999999949      34.439999999999998      28.699999999999992
   176   1      4.3049999999999997      33.004999999999995      30.134999999999994
   177   1      5.7399999999999949      34.439999999999998      31.569999999999993
   178   1      4.3049999999999997      33.004999999999995      33.004999999999995
   179   1      5.7399999999999949      34.439999999999998      34.439999999999998
   180   1      4.3049999999999997      33.004999999999995      35.874999999999993
   181   1      5.7399999999999949      34.439999999999998      37.309999999999995
   182   1      4.3049999999999997      33.004999999999995       38.74499999999999
   183   1      5.7399999999999949      34.439999999999998      40.179999999999993
   184   1      4.3049999999999997      33.004999999999995      41.614999999999995
   185   1      5.7399999999999949      34.439999999999998      43.049999999999997
   186   1      4.3049999999999997      33.004999999999995      44.484999999999992
   187   1      5.7399999999999949      34.439999999999998      45.919999999999995
   188   1      4.3049999999999997      33.004999999999995       47.35499999999999
   189   1      5.7399999999999949      34.439999999999998      48.789999999999985
   190   1      4.3049999999999997      33.004999999999995      50.224999999999994
   191   1      5.7399999999999949      34.439999999999998      51.659999999999997
   192   1      4.3049999999999997      33.004999999999995      53.094999999999992
   193   1      5.7399999999999949      34.439999999999998      54.529999999999994
   194   1      4.3049999999999997      33.004999999999995      55.964999999999989
   195   1      5.7399999999999949      34.439999999999998      57.399999999999991
   196   1      5.7399999999999949      34.439999999999998      60.269999999999996
   197   1      5.7399999999999949      37.309999999999995      22.959999999999994
   198   1      5.7399999999999949      37.309999999999995      25.829999999999991
   199   1      4.3049999999999997      35.874999999999993       27.26499999999999
   200   1      5.7399999999999949      37.309999999999995      28.699999999999992
   201   1      4.3049999999999997      35.874999999999993      30.134999999999994
   202   1      5.7399999999999949      37.309999999999995      31.569999999999993
   203   1      4.3049999999999997      35.874999999999993      33.004999999999995
   204   1      5.7399999999999949      37.309999999999995      34.439999999999998
   205   1      4.3049999999999997      35.874999999999993      35.874999999999993
   206   1      5.7399999999999949      37.309999999999995      37.309999999999995
   207   1      4.3049999999999997      35.874999999999993       38.74499999999999
   208   1      5.7399999999999949      37.309999999999995      40.179999999999993
   209   1      4.3049999999999997      35.874999999999993      41.614999999999995
   210   1      5.7399999999999949      37.309999999999995      43.049999999999997
   211   1      4.3049999999999997      35.874999999999993      44.484999999999992
   212   1      5.7399999999999949      37.309999999999995      45.919999999999995
   213   1      4.3049999999999997      35.874999999999993       47.35499999999999
   214   1      5.7399999999999949      37.309999999999995      48.789999999999985
   215   1      4.3049999999999997      35.874999999999993      50.224999999999994
   216   1      5.7399999999999949      37.309999999999995      51.659999999999997
   217   1      4.3049999999999997      35.874999999999993      53.094999999999992
   218   1      5.7399999999999949      37.309999999999995      54.529999999999994
   219   1      4.3049999999999997      35.874999999999993      55.964999999999989
   220   1      5.7399999999999949      37.309999999999995      57.399999999999991
   221   1      5.7399999999999949      37.309999999999995      60.269999999999996
   222   1      5.7399999999999949      40.179999999999993      22.959999999999994
   223   1      5.7399999999999949      40.179999999999993      25.829999999999991
   224   1      4.3049999999999997       38.74499999999999       27.26499999999999
   225   1      5.7399999999999949      40.179999999999993      28.699999999999992
   226   1      4.3049999999999997       38.74499999999999      30.134999999999994
   227   1      5.7399999999999949      40.179999999999993      31.569999999999993
   228   1      4.3049999999999997       38.74499999999999      33.004999999999995
   229   1      5.7399999999999949      40.179999999999993      34.439999999999998
   230   1      4.3049999999999997       38.74499999999999      35.874999999999993
   231   1      5.7399999999999949      40.179999999999993      37.309999999999995
   232   1      4.3049999999999997       38.74499999999999       38.74499999999999
   233   1      5.7399999999999949      40.179999999999993      40.179999999999993
   234   1      4.3049999999999997       38.74499999999999      41.614999999999995
   235   1      5.7399999999999949      40.179999999999993      43.049999999999997
   236   1      4.3049999999999997       38.74499999999999      44.484999999999992
   237   1      5.7399999999999949      40.179999999999993      45.919999999999995
   238   1      4.3049999999999997       38.74499999999999       47.35499999999999
   239   1      5.7399999999999949      40.179999999999993      48.789999999999985
   240   1      4.3049999999999997       38.74499999999999      50.224999999999994
   241   1      5.7399999999999949      40.179999999999993      51.659999999999997
   242   1      4.3049999999999997       38.74499999999999      53.094999999999992
   243   1      5.7399999999999949      40.179999999999993      54.529999999999994
   244   1      4.3049999999999997       38.74499999999999      55.964999999999989
   245   1      5.7399999999999949      40.179999999999993      57.399999999999991
   246   1      5.7399999999999949      40.179999999999993      60.269999999999996
   247   1      5.7399999999999949      43.049999999999997      22.959999999999994
   248   1      5.7399999999999949      43.049999999999997      25.829999999999991
   249   1      4.3049999999999997      41.614999999999995       27.26499999999999
   250   1      5.7399999999999949      43.049999999999997      28.699999999999992
   251   1      4.3049999999999997      41.614999999999995      30.134999999999994
   252   1      5.7399999999999949      43.049999999999997      31.569999999999993
   253   1      4.3049999999999997      41.614999999999995      33.004999999999995
   254   1      5.7399999999999949      43.049999999999997      34.439999999999998
   255   1      4.3049999999999997      41.614999999999995      35.874999999999993
   256   1      5.7399999999999949      43.049999999999997      37.309999999999995
   257   1      4.3049999999999997      41.614999999999995       38.74499999999999
   258   1      5.7399999999999949      43.049999999999997      40.179999999999993
   259   1      4.3049999999999997      41.614999999999995      41.614999999999995
   260   1      5.7399999999999949      43.049999999999997      43.049999999999997
   261   1      4.3049999999999997      41.614999999999995      44.484999999999992
   262   1      5.7399999999999949      43.049999999999997      45.919999999999995
   263   1      4.3049999999999997      41.614999999999995       47.35499999999999
   264   1      5.7399999999999949      43.049999999999997      48.789999999999985
   265   1      4.3049999999999997      41.614999999999995      50.224999999999994
   266   1      5.7399999999999949      43.049999999999997      51.659999999999997
   267   1      4.3049999999999997      41.614999999999995      53.094999999999992
   268   1      5.7399999999999949      43.049999999999997      54.529999999999994
   269   1      4.3049999999999997      41.614999999999995      55.964999999999989
   270   1      5.7399999999999949      43.049999999999997      57.399999999999991
   271   1      5.7399999999999949      43.049999999999997      60.269999999999996
   272   1      5.7399999999999949      45.919999999999995      22.959999999999994
   273   1      5.7399999999999949      45.919999999999995      25.829999999999991
   274   1      4.3049999999999997      44.484999999999992       27.26499999999999
   275   1      5.7399999999999949      45.919999999999995      28.699999999999992
   276   1      4.3049999999999997      44.484999999999992      30.134999999999994
   277   1      5.7399999999999949      45.919999999999995      31.569999999999993
   278   1      4.3049999999999997      44.484999999999992      33.004999999999995
   279   1      5.7399999999999949      45.919999999999995      34.439999999999998
   280   1      4.3049999999999997      44.484999999999992      35.874999999999993
   281   1      5.7399999999999949      45.919999999999995      37.309999999999995
   282   1      4.3049999999999997      44.484999999999992       38.74499999999999
   283   1      5.7399999999999949      45.919999999999995      40.179999999999993
   284   1      4.3049999999999997      44.484999999999992      41.614999999999995
   285   1      5.7399999999999949      45.919999999999995      43.049999999999997
   286   1      4.3049999999999997      44.484999999999992      44.484999999999992
   287   1      5.7399999999999949      45.919999999999995      45.919999999999995
   288   1      4.3049999999999997      44.484999999999992       47.35499999999999
   289   1      5.7399999999999949      45.919999999999995      48.789999999999985
   290   1      4.3049999999999997      44.484999999999992      50.224999999999994
   291   1      5.7399999999999949      45.919999999999995      51.659999999999997
   292   1      4.3049999999999997      44.484999999999992      53.094999999999992
   293   1      5.7399999999999949      45.919999999999995      54.529999999999994
   294   1      4.3049999999999997      44.484999999999992      55.964999999999989
   295   1      5.7399999999999949      45.919999999999995      57.399999999999991
   296   1      5.7399999999999949      45.919999999999995      60.269999999999996
   297   1      5.7399999999999949      48.789999999999985      22.959999999999994
   298   1      5.7399999999999949      48.789999999999985      25.829999999999991
   299   1      4.3049999999999997       47.35499999999999       27.26499999999999
   300   1      5.7399999999999949      48.789999999999985      28.699999999999992
   301   1      4.3049999999999997       47.35499999999999      30.134999999999994
   302   1      5.7399999999999949      48.789999999999985      31.569999999999993
   303   1      4.3049999999999997       47.35499999999999      33.004999999999995
   304   1      5.7399999999999949      48.789999999999985      34.439999999999998
   305   1      4.3049999999999997       47.35499999999999      35.874999999999993
   306   1      5.7399999999999949      48.789999999999985      37.309999999999995
   307   1      4.3049999999999997       47.35499999999999       38.74499999999999
   308   1      5.7399999999999949      48.789999999999985      40.179999999999993
   309   1      4.3049999999999997       47.35499999999999      41.614999999999995
   310   1      5.7399999999999949      48.789999999999985      43.049999999999997
   311   1      4.3049999999999997       47.35499999999999      44.484999999999992
   312   1      5.7399999999999949      48.789999999999985      45.919999999999995
   313   1      4.3049999999999997       47.35499999999999       47.35499999999999
   314   1      5.7399999999999949      48.789999999999985      48.789999999999985
   315   1      4.3049999999999997       47.35499999999999      50.224999999999994
   316   1      5.7399999999999949      48.789999999999985      51.659999999999997
   317   1      4.3049999999999997       47.35499999999999      53.094999999999992
   318   1      5.7399999999999949      48.789999999999985      54.529999999999994
   319   1      4.3049999999999997       47.35499999999999      55.964999999999989
   320   1      5.7399999999999949      48.789999999999985      57.399999999999991
   321   1      5.7399999999999949      48.789999999999985      60.269999999999996
   322   1      5.7399999999999949      51.659999999999997      22.959999999999994
   323   1      5.7399999999999949      51.659999999999997      25.829999999999991
   324   1      4.3049999999999997      50.224999999999994       27.26499999999999
   325   1      5.7399999999999949      51.659999999999997      28.699999999999992
   326   1      4.3049999999999997      50.224999999999994      30.134999999999994
   327   1      5.7399999999999949      51.659999999999997      31.569999999999993
   328   1      4.3049999999999997      50.224999999999994      33.004999999999995
   329   1      5.7399999999999949      51.659999999999997      34.439999999999998
   330   1      4.3049999999999997      50.224999999999994      35.874999999999993
   331   1      5.7399999999999949      51.659999999999997      37.309999999999995
   332   1      4.3049999999999997      50.224999999999994       38.74499999999999
   333   1      5.7399999999999949      51.659999999999997      40.179999999999993
   334   1      4.3049999999999997      50.224999999999994      41.614999999999995
   335   1      5.7399999999999949      51.659999999999997      43.049999999999997
   336   1      4.3049999999999997      50.224999999999994      44.484999999999992
   337   1      5.7399999999999949      51.659999999999997      45.919999999999995
   338   1      4.3049999999999997      50.224999999999994       47.35499999999999
   339   1      5.7399999999999949      51.659999999999997      48.789999999999985
   340   1      4.3049999999999997      50.224999999999994      50.224999999999994
   341   1      5.7399999999999949      51.659999999999997      51.659999999999997
   342   1      4.3049999999999997      50.224999999999994      53.094999999999992
   343   1      5.7399999999999949      51.659999999999997      54.529999999999994
   344   1      4.3049999999999997      50.224999999999994      55.964999999999989
   345   1      5.7399999999999949      51.659999999999997      57.399999999999991
   346   1      5.7399999999999949      51.659999999999997      60.269999999999996
   347   1      5.7399999999999949      54.529999999999994      22.959999999999994
   348   1      5.7399999999999949      54.529999999999994      25.829999999999991
   349   1      4.3049999999999997      53.094999999999992       27.26499999999999
   350   1      5.7399999999999949      54.529999999999994      28.699999999999992
   351   1      4.3049999999999997      53.094999999999992      30.134999999999994
   352   1      5.7399999999999949      54.529999999999994      31.569999999999993
   353   1      4.3049999999999997      53.094999999999992      33.004999999999995
   354   1      5.7399999999999949      54.529999999999994      34.439999999999998
   355   1      4.3049999999999997      53.094999999999992      35.874999999999993
   356   1      5.7399999999999949      54.529999999999994      37.309999999999995
   357   1      4.3049999999999997      53.094999999999992       38.74499999999999
   358   1      5.7399999999999949      54.529999999999994      40.179999999999993