LAMMPS data file via write_data, version 30 Nov 2020, timestep = 0

29859 atoms
5 atom types

0 99 xlo xhi
0 99 ylo yhi
0 99 zlo zhi

Masses

1 58.7
2 55.8
3 52
4 59
5 26

Atoms # atomic

1 2 7.105427357601002e-15 46.930000000000014 48.73500000000001 0 0 0
2 3 7.105427357601002e-15 48.73500000000001 46.930000000000014 0 0 0
5 1 3.6100000000000065 41.515000000000015 46.930000000000014 0 0 0
6 2 3.6100000000000065 43.32000000000001 45.125000000000014 0 0 0
8 5 3.6100000000000065 43.32000000000001 48.73500000000001 0 0 0
10 3 3.6100000000000065 45.125000000000014 43.32000000000001 0 0 0
11 4 3.6100000000000065 46.930000000000014 41.515000000000015 0 0 0
12 1 1.8050000000000068 45.125000000000014 45.125000000000014 0 0 0
13 5 1.8050000000000068 46.930000000000014 46.930000000000014 0 0 0
14 2 3.6100000000000065 45.125000000000014 46.930000000000014 0 0 0
15 1 3.6100000000000065 46.930000000000014 45.125000000000014 0 0 0
16 5 1.8050000000000068 45.125000000000014 48.73500000000001 0 0 0
19 2 3.6100000000000065 46.930000000000014 48.73500000000001 0 0 0
24 5 3.6100000000000065 48.73500000000001 43.32000000000001 0 0 0
26 1 1.8050000000000068 48.73500000000001 45.125000000000014 0 0 0
28 5 3.6100000000000065 48.73500000000001 46.930000000000014 0 0 0
30 2 1.8050000000000068 48.73500000000001 48.73500000000001 0 0 0
50 3 7.220000000000007 36.100000000000016 45.125000000000014 0 0 0
51 3 7.220000000000007 36.100000000000016 48.73500000000001 0 0 0
53 1 7.220000000000007 37.90500000000001 39.710000000000015 0 0 0
54 3 7.220000000000007 39.710000000000015 37.90500000000001 0 0 0
55 3 5.415000000000007 39.710000000000015 43.32000000000001 0 0 0
56 1 7.220000000000007 37.90500000000001 43.32000000000001 0 0 0
57 4 7.220000000000007 39.710000000000015 41.515000000000015 0 0 0
58 3 5.415000000000007 39.710000000000015 46.930000000000014 0 0 0
59 4 7.220000000000007 37.90500000000001 46.930000000000014 0 0 0
60 5 7.220000000000007 39.710000000000015 45.125000000000014 0 0 0
61 3 5.415000000000007 37.90500000000001 48.73500000000001 0 0 0
64 5 7.220000000000007 39.710000000000015 48.73500000000001 0 0 0
71 3 5.415000000000007 43.32000000000001 39.710000000000015 0 0 0
72 5 7.220000000000007 41.515000000000015 39.710000000000015 0 0 0
73 5 7.220000000000007 43.32000000000001 37.90500000000001 0 0 0
74 5 5.415000000000007 41.515000000000015 41.515000000000015 0 0 0
75 2 5.415000000000007 43.32000000000001 43.32000000000001 0 0 0
76 3 7.220000000000007 41.515000000000015 43.32000000000001 0 0 0
77 1 7.220000000000007 43.32000000000001 41.515000000000015 0 0 0
78 5 5.415000000000007 41.515000000000015 45.125000000000014 0 0 0
79 2 5.415000000000007 43.32000000000001 46.930000000000014 0 0 0
80 5 7.220000000000007 41.515000000000015 46.930000000000014 0 0 0
81 2 7.220000000000007 43.32000000000001 45.125000000000014 0 0 0
82 4 5.415000000000007 41.515000000000015 48.73500000000001 0 0 0
85 1 7.220000000000007 43.32000000000001 48.73500000000001 0 0 0
95 5 7.220000000000007 45.125000000000014 36.100000000000016 0 0 0
96 5 5.415000000000007 46.930000000000014 39.710000000000015 0 0 0
97 2 7.220000000000007 45.125000000000014 39.710000000000015 0 0 0
98 1 7.220000000000007 46.930000000000014 37.90500000000001 0 0 0
99 4 5.415000000000007 45.125000000000014 41.515000000000015 0 0 0
100 3 5.415000000000007 46.930000000000014 43.32000000000001 0 0 0
101 1 7.220000000000007 45.125000000000014 43.32000000000001 0 0 0
102 2 7.220000000000007 46.930000000000014 41.515000000000015 0 0 0
103 3 5.415000000000007 45.125000000000014 45.125000000000014 0 0 0
104 1 5.415000000000007 46.930000000000014 46.930000000000014 0 0 0
105 1 7.220000000000007 45.125000000000014 46.930000000000014 0 0 0
106 2 7.220000000000007 46.930000000000014 45.125000000000014 0 0 0
107 4 5.415000000000007 45.125000000000014 48.73500000000001 0 0 0
110 3 7.220000000000007 46.930000000000014 48.73500000000001 0 0 0
121 1 7.220000000000007 48.73500000000001 36.100000000000016 0 0 0
122 3 5.415000000000007 48.73500000000001 37.90500000000001 0 0 0
124 3 7.220000000000007 48.73500000000001 39.710000000000015 0 0 0
126 1 5.415000000000007 48.73500000000001 41.515000000000015 0 0 0
128 3 7.220000000000007 48.73500000000001 43.32000000000001 0 0 0
130 2 5.415000000000007 48.73500000000001 45.125000000000014 0 0 0
132 4 7.220000000000007 48.73500000000001 46.930000000000014 0 0 0
134 2 5.415000000000007 48.73500000000001 48.73500000000001 0 0 0
207 3 10.830000000000007 28.88000000000001 48.73500000000001 0 0 0
208 4 10.830000000000007 32.49000000000001 37.90500000000001 0 0 0
209 2 10.830000000000007 30.685000000000013 43.32000000000001 0 0 0
210 2 10.830000000000007 32.49000000000001 41.515000000000015 0 0 0
211 3 9.025000000000006 32.49000000000001 46.930000000000014 0 0 0
212 4 10.830000000000007 30.685000000000013 46.930000000000014 0 0 0
213 4 10.830000000000007 32.49000000000001 45.125000000000014 0 0 0
216 3 10.830000000000007 32.49000000000001 48.73500000000001 0 0 0
221 5 9.025000000000006 36.100000000000016 36.100000000000016 0 0 0
222 3 10.830000000000007 34.29500000000001 36.100000000000016 0 0 0
223 5 10.830000000000007 36.100000000000016 34.29500000000001 0 0 0
224 2 9.025000000000006 36.100000000000016 39.710000000000015 0 0 0
225 1 10.830000000000007 34.29500000000001 39.710000000000015 0 0 0
226 4 10.830000000000007 36.100000000000016 37.90500000000001 0 0 0
227 4 9.025000000000006 34.29500000000001 41.515000000000015 0 0 0
228 5 9.025000000000006 36.100000000000016 43.32000000000001 0 0 0
229 5 10.830000000000007 34.29500000000001 43.32000000000001 0 0 0
230 5 10.830000000000007 36.100000000000016 41.515000000000015 0 0 0
231 5 9.025000000000006 34.29500000000001 45.125000000000014 0 0 0
232 5 9.025000000000006 36.100000000000016 46.930000000000014 0 0 0
233 4 10.830000000000007 34.29500000000001 46.930000000000014 0 0 0
234 4 10.830000000000007 36.100000000000016 45.125000000000014 0 0 0
235 5 9.025000000000006 34.29500000000001 48.73500000000001 0 0 0
238 1 10.830000000000007 36.100000000000016 48.73500000000001 0 0 0
251 3 10.830000000000007 37.90500000000001 32.49000000000001 0 0 0
252 2 9.025000000000006 39.710000000000015 36.100000000000016 0 0 0
253 3 10.830000000000007 37.90500000000001 36.100000000000016 0 0 0
254 3 10.830000000000007 39.710000000000015 34.29500000000001 0 0 0
255 2 9.025000000000006 37.90500000000001 37.90500000000001 0 0 0
256 5 9.025000000000006 39.710000000000015 39.710000000000015 0 0 0
257 2 10.830000000000007 37.90500000000001 39.710000000000015 0 0 0
258 3 10.830000000000007 39.710000000000015 37.90500000000001 0 0 0
259 3 9.025000000000006 37.90500000000001 41.515000000000015 0 0 0
260 1 9.025000000000006 39.710000000000015 43.32000000000001 0 0 0
261 5 10.830000000000007 37.90500000000001 43.32000000000001 0 0 0
262 2 10.830000000000007 39.710000000000015 41.515000000000015 0 0 0
263 5 9.025000000000006 37.90500000000001 45.125000000000014 0 0 0
264 2 9.025000000000006 39.710000000000015 46.930000000000014 0 0 0
265 2 10.830000000000007 37.90500000000001 46.930000000000014 0 0 0
266 1 10.830000000000007 39.710000000000015 45.125000000000014 0 0 0
267 1 9.025000000000006 37.90500000000001 48.73500000000001 0 0 0
270 4 10.830000000000007 39.710000000000015 48.73500000000001 0 0 0
285 1 10.830000000000007 41.515000000000015 32.49000000000001 0 0 0
286 4 10.830000000000007 43.32000000000001 30.685000000000013 0 0 0
287 2 9.025000000000006 41.515000000000015 34.29500000000001 0 0 0
288 4 9.025000000000006 43.32000000000001 36.100000000000016 0 0 0
289 5 10.830000000000007 41.515000000000015 36.100000000000016 0 0 0
290 3 10.830000000000007 43.32000000000001 34.29500000000001 0 0 0
291 4 9.025000000000006 41.515000000000015 37.90500000000001 0 0 0
292 1 9.025000000000006 43.32000000000001 39.710000000000015 0 0 0
293 4 10.830000000000007 41.515000000000015 39.710000000000015 0 0 0
294 3 10.830000000000007 43.32000000000001 37.90500000000001 0 0 0
295 5 9.025000000000006 41.515000000000015 41.515000000000015 0 0 0
296 1 9.025000000000006 43.32000000000001 43.32000000000001 0 0 0
297 3 10.830000000000007 41.515000000000015 43.32000000000001 0 0 0
298 5 10.830000000000007 43.32000000000001 41.515000000000015 0 0 0
299 4 9.025000000000006 41.515000000000015 45.125000000000014 0 0 0
300 5 9.025000000000006 43.32000000000001 46.930000000000014 0 0 0
301 3 10.830000000000007 41.515000000000015 46.930000000000014 0 0 0
302 3 10.830000000000007 43.32000000000001 45.125000000000014 0 0 0
303 5 9.025000000000006 41.515000000000015 48.73500000000001 0 0 0
306 1 10.830000000000007 43.32000000000001 48.73500000000001 0 0 0
323 2 9.025000000000006 46.930000000000014 32.49000000000001 0 0 0
324 1 10.830000000000007 45.125000000000014 32.49000000000001 0 0 0
325 3 10.830000000000007 46.930000000000014 30.685000000000013 0 0 0
326 2 9.025000000000006 45.125000000000014 34.29500000000001 0 0 0
327 2 9.025000000000006 46.930000000000014 36.100000000000016 0 0 0
328 1 10.830000000000007 45.125000000000014 36.100000000000016 0 0 0
329 4 10.830000000000007 46.930000000000014 34.29500000000001 0 0 0
330 1 9.025000000000006 45.125000000000014 37.90500000000001 0 0 0
331 2 9.025000000000006 46.930000000000014 39.710000000000015 0 0 0
332 4 10.830000000000007 45.125000000000014 39.710000000000015 0 0 0
333 5 10.830000000000007 46.930000000000014 37.90500000000001 0 0 0
334 2 9.025000000000006 45.125000000000014 41.515000000000015 0 0 0
335 1 9.025000000000006 46.930000000000014 43.32000000000001 0 0 0
336 3 10.830000000000007 45.125000000000014 43.32000000000001 0 0 0
337 3 10.830000000000007 46.930000000000014 41.515000000000015 0 0 0
338 3 9.025000000000006 45.125000000000014 45.125000000000014 0 0 0
339 2 9.025000000000006 46.930000000000014 46.930000000000014 0 0 0
340 3 10.830000000000007 45.125000000000014 46.930000000000014 0 0 0
341 4 10.830000000000007 46.930000000000014 45.125000000000014 0 0 0
342 4 9.025000000000006 45.125000000000014 48.73500000000001 0 0 0
345 2 10.830000000000007 46.930000000000014 48.73500000000001 0 0 0
363 3 10.830000000000007 48.73500000000001 28.88000000000001 0 0 0
365 3 10.830000000000007 48.73500000000001 32.49000000000001 0 0 0
367 3 9.025000000000006 48.73500000000001 34.29500000000001 0 0 0
369 5 10.830000000000007 48.73500000000001 36.100000000000016 0 0 0
371 5 9.025000000000006 48.73500000000001 37.90500000000001 0 0 0
373 5 10.830000000000007 48.73500000000001 39.710000000000015 0 0 0
375 5 9.025000000000006 48.73500000000001 41.515000000000015 0 0 0
377 4 10.830000000000007 48.73500000000001 43.32000000000001 0 0 0
379 1 9.025000000000006 48.73500000000001 45.125000000000014 0 0 0
381 4 10.830000000000007 48.73500000000001 46.930000000000014 0 0 0
383 2 9.025000000000006 48.73500000000001 48.73500000000001 0 0 0
540 2 14.440000000000005 25.27000000000001 41.515000000000015 0 0 0
541 2 14.440000000000005 23.465000000000007 46.930000000000014 0 0 0
542 2 14.440000000000005 25.27000000000001 45.125000000000014 0 0 0
544 2 14.440000000000005 25.27000000000001 48.73500000000001 0 0 0
547 5 14.440000000000005 28.88000000000001 30.685000000000013 0 0 0
548 4 14.440000000000005 27.075000000000006 36.100000000000016 0 0 0
549 1 14.440000000000005 28.88000000000001 34.29500000000001 0 0 0
550 4 12.635000000000007 28.88000000000001 39.710000000000015 0 0 0
551 2 14.440000000000005 27.075000000000006 39.710000000000015 0 0 0
552 2 14.440000000000005 28.88000000000001 37.90500000000001 0 0 0
553 3 12.635000000000007 28.88000000000001 43.32000000000001 0 0 0
554 5 14.440000000000005 27.075000000000006 43.32000000000001 0 0 0
555 3 14.440000000000005 28.88000000000001 41.515000000000015 0 0 0
556 3 12.635000000000007 27.075000000000006 45.125000000000014 0 0 0
557 3 12.635000000000007 28.88000000000001 46.930000000000014 0 0 0
558 4 14.440000000000005 27.075000000000006 46.930000000000014 0 0 0
559 5 14.440000000000005 28.88000000000001 45.125000000000014 0 0 0
560 2 12.635000000000007 27.075000000000006 48.73500000000001 0 0 0
563 1 14.440000000000005 28.88000000000001 48.73500000000001 0 0 0
575 5 14.440000000000005 30.685000000000013 28.88000000000001 0 0 0
576 2 12.635000000000007 32.49000000000001 32.49000000000001 0 0 0
577 4 14.440000000000005 30.685000000000013 32.49000000000001 0 0 0
578 1 14.440000000000005 32.49000000000001 30.685000000000013 0 0 0
579 5 12.635000000000007 30.685000000000013 34.29500000000001 0 0 0
580 2 12.635000000000007 32.49000000000001 36.100000000000016 0 0 0
581 1 14.440000000000005 30.685000000000013 36.100000000000016 0 0 0
582 5 14.440000000000005 32.49000000000001 34.29500000000001 0 0 0
583 5 12.635000000000007 30.685000000000013 37.90500000000001 0 0 0
584 1 12.635000000000007 32.49000000000001 39.710000000000015 0 0 0
585 5 14.440000000000005 30.685000000000013 39.710000000000015 0 0 0
586 5 14.440000000000005 32.49000000000001 37.90500000000001 0 0 0
587 3 12.635000000000007 30.685000000000013 41.515000000000015 0 0 0
588 4 12.635000000000007 32.49000000000001 43.32000000000001 0 0 0
589 2 14.440000000000005 30.685000000000013 43.32000000000001 0 0 0
590 2 14.440000000000005 32.49000000000001 41.515000000000015 0 0 0
591 3 12.635000000000007 30.685000000000013 45.125000000000014 0 0 0
592 3 12.635000000000007 32.49000000000001 46.930000000000014 0 0 0
593 4 14.440000000000005 30.685000000000013 46.930000000000014 0 0 0
594 3 14.440000000000005 32.49000000000001 45.125000000000014 0 0 0
595 5 12.635000000000007 30.685000000000013 48.73500000000001 0 0 0
598 4 14.440000000000005 32.49000000000001 48.73500000000001 0 0 0
617 3 14.440000000000005 34.29500000000001 28.88000000000001 0 0 0
618 1 14.440000000000005 36.100000000000016 27.075000000000006 0 0 0
619 5 12.635000000000007 34.29500000000001 30.685000000000013 0 0 0
620 4 12.635000000000007 36.100000000000016 32.49000000000001 0 0 0
621 4 14.440000000000005 34.29500000000001 32.49000000000001 0 0 0
622 1 14.440000000000005 36.100000000000016 30.685000000000013 0 0 0
623 3 12.635000000000007 34.29500000000001 34.29500000000001 0 0 0
624 5 12.635000000000007 36.100000000000016 36.100000000000016 0 0 0
625 5 14.440000000000005 34.29500000000001 36.100000000000016 0 0 0
626 4 14.440000000000005 36.100000000000016 34.29500000000001 0 0 0
627 3 12.635000000000007 34.29500000000001 37.90500000000001 0 0 0
628 2 12.635000000000007 36.100000000000016 39.710000000000015 0 0 0
629 5 14.440000000000005 34.29500000000001 39.710000000000015 0 0 0
630 2 14.440000000000005 36.100000000000016 37.90500000000001 0 0 0
631 2 12.635000000000007 34.29500000000001 41.515000000000015 0 0 0
632 1 12.635000000000007 36.100000000000016 43.32000000000001 0 0 0
633 4 14.440000000000005 34.29500000000001 43.32000000000001 0 0 0
634 3 14.440000000000005 36.100000000000016 41.515000000000015 0 0 0
635 3 12.635000000000007 34.29500000000001 45.125000000000014 0 0 0
636 5 12.635000000000007 36.100000000000016 46.930000000000014 0 0 0
637 2 14.440000000000005 34.29500000000001 46.930000000000014 0 0 0
638 1 14.440000000000005 36.100000000000016 45.125000000000014 0 0 0
639 2 12.635000000000007 34.29500000000001 48.73500000000001 0 0 0
642 4 14.440000000000005 36.100000000000016 48.73500000000001 0 0 0
663 2 12.635000000000007 39.710000000000015 28.88000000000001 0 0 0
664 5 14.440000000000005 37.90500000000001 28.88000000000001 0 0 0
665 1 14.440000000000005 39.710000000000015 27.075000000000006 0 0 0
666 4 12.635000000000007 37.90500000000001 30.685000000000013 0 0 0
667 4 12.635000000000007 39.710000000000015 32.49000000000001 0 0 0
668 5 14.440000000000005 37.90500000000001 32.49000000000001 0 0 0
669 5 14.440000000000005 39.710000000000015 30.685000000000013 0 0 0
670 2 12.635000000000007 37.90500000000001 34.29500000000001 0 0 0
671 3 12.635000000000007 39.710000000000015 36.100000000000016 0 0 0
672 5 14.440000000000005 37.90500000000001 36.100000000000016 0 0 0
673 3 14.440000000000005 39.710000000000015 34.29500000000001 0 0 0
674 3 12.635000000000007 37.90500000000001 37.90500000000001 0 0 0
675 3 12.635000000000007 39.710000000000015 39.710000000000015 0 0 0
676 1 14.440000000000005 37.90500000000001 39.710000000000015 0 0 0
677 3 14.440000000000005 39.710000000000015 37.90500000000001 0 0 0
678 5 12.635000000000007 37.90500000000001 41.515000000000015 0 0 0
679 1 12.635000000000007 39.710000000000015 43.32000000000001 0 0 0
680 2 14.440000000000005 37.90500000000001 43.32000000000001 0 0 0
681 2 14.440000000000005 39.710000000000015 41.515000000000015 0 0 0
682 1 12.635000000000007 37.90500000000001 45.125000000000014 0 0 0
683 2 12.635000000000007 39.710000000000015 46.930000000000014 0 0 0
684 4 14.440000000000005 37.90500000000001 46.930000000000014 0 0 0
685 4 14.440000000000005 39.710000000000015 45.125000000000014 0 0 0
686 3 12.635000000000007 37.90500000000001 48.73500000000001 0 0 0
689 2 14.440000000000005 39.710000000000015 48.73500000000001 0 0 0
711 5 14.440000000000005 41.515000000000015 25.27000000000001 0 0 0
712 4 12.635000000000007 43.32000000000001 28.88000000000001 0 0 0
713 2 14.440000000000005 41.515000000000015 28.88000000000001 0 0 0
714 5 14.440000000000005 43.32000000000001 27.075000000000006 0 0 0
715 1 12.635000000000007 41.515000000000015 30.685000000000013 0 0 0
716 4 12.635000000000007 43.32000000000001 32.49000000000001 0 0 0
717 4 14.440000000000005 41.515000000000015 32.49000000000001 0 0 0
718 1 14.440000000000005 43.32000000000001 30.685000000000013 0 0 0
719 2 12.635000000000007 41.515000000000015 34.29500000000001 0 0 0
720 3 12.635000000000007 43.32000000000001 36.100000000000016 0 0 0
721 4 14.440000000000005 41.515000000000015 36.100000000000016 0 0 0
722 5 14.440000000000005 43.32000000000001 34.29500000000001 0 0 0
723 2 12.635000000000007 41.515000000000015 37.90500000000001 0 0 0
724 3 12.635000000000007 43.32000000000001 39.710000000000015 0 0 0
725 4 14.440000000000005 41.515000000000015 39.710000000000015 0 0 0
726 4 14.440000000000005 43.32000000000001 37.90500000000001 0 0 0
727 1 12.635000000000007 41.515000000000015 41.515000000000015 0 0 0
728 5 12.635000000000007 43.32000000000001 43.32000000000001 0 0 0
729 4 14.440000000000005 41.515000000000015 43.32000000000001 0 0 0
730 2 14.440000000000005 43.32000000000001 41.515000000000015 0 0 0
731 1 12.635000000000007 41.515000000000015 45.125000000000014 0 0 0
732 5 12.635000000000007 43.32000000000001 46.930000000000014 0 0 0
733 1 14.440000000000005 41.515000000000015 46.930000000000014 0 0 0
734 4 14.440000000000005 43.32000000000001 45.125000000000014 0 0 0
735 3 12.635000000000007 41.515000000000015 48.73500000000001 0 0 0
738 1 14.440000000000005 43.32000000000001 48.73500000000001 0 0 0
761 2 14.440000000000005 45.125000000000014 25.27000000000001 0 0 0
762 1 14.440000000000005 46.930000000000014 23.465000000000007 0 0 0
763 5 12.635000000000007 45.125000000000014 27.075000000000006 0 0 0
764 1 12.635000000000007 46.930000000000014 28.88000000000001 0 0 0
765 1 14.440000000000005 45.125000000000014 28.88000000000001 0 0 0
766 3 14.440000000000005 46.930000000000014 27.075000000000006 0 0 0
767 3 12.635000000000007 45.125000000000014 30.685000000000013 0 0 0
768 3 12.635000000000007 46.930000000000014 32.49000000000001 0 0 0
769 1 14.440000000000005 45.125000000000014 32.49000000000001 0 0 0
770 5 14.440000000000005 46.930000000000014 30.685000000000013 0 0 0
771 1 12.635000000000007 45.125000000000014 34.29500000000001 0 0 0
772 3 12.635000000000007 46.930000000000014 36.100000000000016 0 0 0
773 2 14.440000000000005 45.125000000000014 36.100000000000016 0 0 0
774 4 14.440000000000005 46.930000000000014 34.29500000000001 0 0 0
775 1 12.635000000000007 45.125000000000014 37.90500000000001 0 0 0
776 2 12.635000000000007 46.930000000000014 39.710000000000015 0 0 0
777 4 14.440000000000005 45.125000000000014 39.710000000000015 0 0 0
778 1 14.440000000000005 46.930000000000014 37.90500000000001 0 0 0
779 2 12.635000000000007 45.125000000000014 41.515000000000015 0 0 0
780 1 12.635000000000007 46.930000000000014 43.32000000000001 0 0 0
781 1 14.440000000000005 45.125000000000014 43.32000000000001 0 0 0
782 1 14.440000000000005 46.930000000000014 41.515000000000015 0 0 0
783 5 12.635000000000007 45.125000000000014 45.125000000000014 0 0 0
784 5 12.635000000000007 46.930000000000014 46.930000000000014 0 0 0
785 4 14.440000000000005 45.125000000000014 46.930000000000014 0 0 0
786 4 14.440000000000005 46.930000000000014 45.125000000000014 0 0 0
787 5 12.635000000000007 45.125000000000014 48.73500000000001 0 0 0
790 4 14.440000000000005 46.930000000000014 48.73500000000001 0 0 0
815 3 14.440000000000005 48.73500000000001 25.27000000000001 0 0 0
817 4 12.635000000000007 48.73500000000001 27.075000000000006 0 0 0
819 3 14.440000000000005 48.73500000000001 28.88000000000001 0 0 0
821 3 12.635000000000007 48.73500000000001 30.685000000000013 0 0 0
823 5 14.440000000000005 48.73500000000001 32.49000000000001 0 0 0
825 5 12.635000000000007 48.73500000000001 34.29500000000001 0 0 0
827 2 14.440000000000005 48.73500000000001 36.100000000000016 0 0 0
829 2 12.635000000000007 48.73500000000001 37.90500000000001 0 0 0
831 3 14.440000000000005 48.73500000000001 39.710000000000015 0 0 0
833 5 12.635000000000007 48.73500000000001 41.515000000000015 0 0 0
835 3 14.440000000000005 48.73500000000001 43.32000000000001 0 0 0
837 3 12.635000000000007 48.73500000000001 45.125000000000014 0 0 0
839 5 14.440000000000005 48.73500000000001 46.930000000000014 0 0 0
841 1 12.635000000000007 48.73500000000001 48.73500000000001 0 0 0
1117 2 18.050000000000008 18.050000000000008 45.125000000000014 0 0 0
1118 5 18.050000000000008 18.050000000000008 48.73500000000001 0 0 0
1120 5 18.050000000000008 21.66000000000001 34.29500000000001 0 0 0
1121 1 18.050000000000008 19.85500000000001 39.710000000000015 0 0 0
1122 5 18.050000000000008 21.66000000000001 37.90500000000001 0 0 0
1123 5 16.245000000000015 21.66000000000001 43.32000000000001 0 0 0
1124 5 18.050000000000008 19.85500000000001 43.32000000000001 0 0 0
1125 1 18.050000000000008 21.66000000000001 41.515000000000015 0 0 0
1126 3 16.245000000000015 21.66000000000001 46.930000000000014 0 0 0
1127 1 18.050000000000008 19.85500000000001 46.930000000000014 0 0 0
1128 3 18.050000000000008 21.66000000000001 45.125000000000014 0 0 0
1129 5 16.245000000000015 19.85500000000001 48.73500000000001 0 0 0
1132 2 18.050000000000008 21.66000000000001 48.73500000000001 0 0 0
1140 3 18.050000000000008 23.465000000000007 28.88000000000001 0 0 0
1141 1 18.050000000000008 25.27000000000001 27.075000000000006 0 0 0
1142 1 16.245000000000015 25.27000000000001 32.49000000000001 0 0 0
1143 1 18.050000000000008 23.465000000000007 32.49000000000001 0 0 0
1144 2 18.050000000000008 25.27000000000001 30.685000000000013 0 0 0
1145 5 16.245000000000015 25.27000000000001 36.100000000000016 0 0 0
1146 1 18.050000000000008 23.465000000000007 36.100000000000016 0 0 0
1147 4 18.050000000000008 25.27000000000001 34.29500000000001 0 0 0
1148 5 16.245000000000015 23.465000000000007 37.90500000000001 0 0 0
1149 3 16.245000000000015 25.27000000000001 39.710000000000015 0 0 0
1150 1 18.050000000000008 23.465000000000007 39.710000000000015 0 0 0
1151 4 18.050000000000008 25.27000000000001 37.90500000000001 0 0 0
1152 2 16.245000000000015 23.465000000000007 41.515000000000015 0 0 0
1153 3 16.245000000000015 25.27000000000001 43.32000000000001 0 0 0
1154 3 18.050000000000008 23.465000000000007 43.32000000000001 0 0 0
1155 2 18.050000000000008 25.27000000000001 41.515000000000015 0 0 0
1156 2 16.245000000000015 23.465000000000007 45.125000000000014 0 0 0
1157 5 16.245000000000015 25.27000000000001 46.930000000000014 0 0 0
1158 3 18.050000000000008 23.465000000000007 46.930000000000014 0 0 0
1159 2 18.050000000000008 25.27000000000001 45.125000000000014 0 0 0
1160 2 16.245000000000015 23.465000000000007 48.73500000000001 0 0 0
1163 3 18.050000000000008 25.27000000000001 48.73500000000001 0 0 0
1182 3 18.050000000000008 27.075000000000006 25.27000000000001 0 0 0
1183 5 18.050000000000008 28.88000000000001 23.465000000000007 0 0 0
1184 4 16.245000000000015 27.075000000000006 27.075000000000006 0 0 0
1185 2 16.245000000000015 28.88000000000001 28.88000000000001 0 0 0
1186 3 18.050000000000008 27.075000000000006 28.88000000000001 0 0 0
1187 1 18.050000000000008 28.88000000000001 27.075000000000006 0 0 0
1188 1 16.245000000000015 27.075000000000006 30.685000000000013 0 0 0
1189 5 16.245000000000015 28.88000000000001 32.49000000000001 0 0 0
1190 3 18.050000000000008 27.075000000000006 32.49000000000001 0 0 0
1191 4 18.050000000000008 28.88000000000001 30.685000000000013 0 0 0
1192 1 16.245000000000015 27.075000000000006 34.29500000000001 0 0 0
1193 4 16.245000000000015 28.88000000000001 36.100000000000016 0 0 0
1194 2 18.050000000000008 27.075000000000006 36.100000000000016 0 0 0
1195 5 18.050000000000008 28.88000000000001 34.29500000000001 0 0 0
1196 5 16.245000000000015 27.075000000000006 37.90500000000001 0 0 0
1197 1 16.245000000000015 28.88000000000001 39.710000000000015 0 0 0
1198 2 18.050000000000008 27.075000000000006 39.710000000000015 0 0 0
1199 4 18.050000000000008 28.88000000000001 37.90500000000001 0 0 0
1200 2 16.245000000000015 27.075000000000006 41.515000000000015 0 0 0
1201 2 16.245000000000015 28.88000000000001 43.32000000000001 0 0 0
1202 4 18.050000000000008 27.075000000000006 43.32000000000001 0 0 0
1203 5 18.050000000000008 28.88000000000001 41.515000000000015 0 0 0
1204 4 16.245000000000015 27.075000000000006 45.125000000000014 0 0 0
1205 2 16.245000000000015 28.88000000000001 46.930000000000014 0 0 0
1206 5 18.050000000000008 27.075000000000006 46.930000000000014 0 0 0
1207 3 18.050000000000008 28.88000000000001 45.125000000000014 0 0 0
1208 3 16.245000000000015 27.075000000000006 48.73500000000001 0 0 0
1211 1 18.050000000000008 28.88000000000001 48.73500000000001 0 0 0
1236 3 16.245000000000015 32.49000000000001 25.27000000000001 0 0 0
1237 4 18.050000000000008 30.685000000000013 25.27000000000001 0 0 0
1238 2 18.050000000000008 32.49000000000001 23.465000000000007 0 0 0
1239 2 16.245000000000015 30.685000000000013 27.075000000000006 0 0 0
1240 2 16.245000000000015 32.49000000000001 28.88000000000001 0 0 0
1241 4 18.050000000000008 30.685000000000013 28.88000000000001 0 0 0
1242 3 18.050000000000008 32.49000000000001 27.075000000000006 0 0 0
1243 4 16.245000000000015 30.685000000000013 30.685000000000013 0 0 0
1244 3 16.245000000000015 32.49000000000001 32.49000000000001 0 0 0
1245 4 18.050000000000008 30.685000000000013 32.49000000000001 0 0 0
1246 2 18.050000000000008 32.49000000000001 30.685000000000013 0 0 0
1247 2 16.245000000000015 30.685000000000013 34.29500000000001 0 0 0
1248 2 16.245000000000015 32.49000000000001 36.100000000000016 0 0 0
1249 4 18.050000000000008 30.685000000000013 36.100000000000016 0 0 0
1250 5 18.050000000000008 32.49000000000001 34.29500000000001 0 0 0
1251 3 16.245000000000015 30.685000000000013 37.90500000000001 0 0 0
1252 2 16.245000000000015 32.49000000000001 39.710000000000015 0 0 0
1253 2 18.050000000000008 30.685000000000013 39.710000000000015 0 0 0
1254 1 18.050000000000008 32.49000000000001 37.90500000000001 0 0 0
1255 1 16.245000000000015 30.685000000000013 41.515000000000015 0 0 0
1256 2 16.245000000000015 32.49000000000001 43.32000000000001 0 0 0
1257 4 18.050000000000008 30.685000000000013 43.32000000000001 0 0 0
1258 3 18.050000000000008 32.49000000000001 41.515000000000015 0 0 0
1259 4 16.245000000000015 30.685000000000013 45.125000000000014 0 0 0
1260 5 16.245000000000015 32.49000000000001 46.930000000000014 0 0 0
1261 5 18.050000000000008 30.685000000000013 46.930000000000014 0 0 0
1262 2 18.050000000000008 32.49000000000001 45.125000000000014 0 0 0
1263 5 16.245000000000015 30.685000000000013 48.73500000000001 0 0 0
1266 3 18.050000000000008 32.49000000000001 48.73500000000001 0 0 0
1292 2 18.050000000000008 34.29500000000001 21.66000000000001 0 0 0
1293 2 16.245000000000015 36.100000000000016 25.27000000000001 0 0 0
1294 1 18.050000000000008 34.29500000000001 25.27000000000001 0 0 0
1295 5 18.050000000000008 36.100000000000016 23.465000000000007 0 0 0
1296 3 16.245000000000015 34.29500000000001 27.075000000000006 0 0 0
1297 5 16.245000000000015 36.100000000000016 28.88000000000001 0 0 0
1298 4 18.050000000000008 34.29500000000001 28.88000000000001 0 0 0
1299 5 18.050000000000008 36.100000000000016 27.075000000000006 0 0 0
1300 1 16.245000000000015 34.29500000000001 30.685000000000013 0 0 0
1301 5 16.245000000000015 36.100000000000016 32.49000000000001 0 0 0
1302 1 18.050000000000008 34.29500000000001 32.49000000000001 0 0 0
1303 5 18.050000000000008 36.100000000000016 30.685000000000013 0 0 0
1304 2 16.245000000000015 34.29500000000001 34.29500000000001 0 0 0
1305 2 16.245000000000015 36.100000000000016 36.100000000000016 0 0 0
1306 5 18.050000000000008 34.29500000000001 36.100000000000016 0 0 0
1307 3 18.050000000000008 36.100000000000016 34.29500000000001 0 0 0
1308 2 16.245000000000015 34.29500000000001 37.90500000000001 0 0 0
1309 3 16.245000000000015 36.100000000000016 39.710000000000015 0 0 0
1310 2 18.050000000000008 34.29500000000001 39.710000000000015 0 0 0
1311 2 18.050000000000008 36.100000000000016 37.90500000000001 0 0 0
1312 5 16.245000000000015 34.29500000000001 41.515000000000015 0 0 0
1313 1 16.245000000000015 36.100000000000016 43.32000000000001 0 0 0
1314 5 18.050000000000008 34.29500000000001 43.32000000000001 0 0 0
1315 5 18.050000000000008 36.100000000000016 41.515000000000015 0 0 0
1316 2 16.245000000000015 34.29500000000001 45.125000000000014 0 0 0
1317 2 16.245000000000015 36.100000000000016 46.930000000000014 0 0 0
1318 2 18.050000000000008 34.29500000000001 46.930000000000014 0 0 0
1319 4 18.050000000000008 36.100000000000016 45.125000000000014 0 0 0
1320 2 16.245000000000015 34.29500000000001 48.73500000000001 0 0 0
1323 5 18.050000000000008 36.100000000000016 48.73500000000001 0 0 0