model_files/NiFeCrCoCu/NiFeCrCoCu_30000/NiFeCrCoCu_210/NiFeCrCoCu_210_fcc_30389_temp.data (written by ASE) 

30389 	 atoms 
5  atom types
0.0                      91  xlo xhi
0.0                      91  ylo yhi
0.0                      91  zlo zhi


Atoms 

     1   1                       0      42.840000000000003                  44.625
     2   1                       0                  44.625      42.840000000000003
     3   1                       0                  44.625      46.410000000000004
     4   1                       0      46.410000000000004                  44.625
     5   1      3.5700000000000003      35.700000000000003      37.484999999999999
     6   1      3.5700000000000003      35.700000000000003                  41.055
     7   1      3.5700000000000003      35.700000000000003                  44.625
     8   1      3.5700000000000003      35.700000000000003      48.195000000000007
     9   1      3.5700000000000003      35.700000000000003      51.765000000000001
    10   1      3.5700000000000003      37.484999999999999      35.700000000000003
    11   1      1.7850000000000037      39.270000000000003      39.270000000000003
    12   1      3.5700000000000003      37.484999999999999      39.270000000000003
    13   1      3.5700000000000003      39.270000000000003      37.484999999999999
    14   1      1.7850000000000037      39.270000000000003      42.840000000000003
    15   1      3.5700000000000003      37.484999999999999      42.840000000000003
    16   1      3.5700000000000003      39.270000000000003                  41.055
    17   1      1.7850000000000037      39.270000000000003      46.410000000000004
    18   1      3.5700000000000003      37.484999999999999      46.410000000000004
    19   1      3.5700000000000003      39.270000000000003                  44.625
    20   1      1.7850000000000037      39.270000000000003      49.979999999999997
    21   1      3.5700000000000003      37.484999999999999      49.979999999999997
    22   1      3.5700000000000003      39.270000000000003      48.195000000000007
    23   1      3.5700000000000003      37.484999999999999      53.550000000000004
    24   1      3.5700000000000003      39.270000000000003      51.765000000000001
    25   1      3.5700000000000003                  41.055      35.700000000000003
    26   1      1.7850000000000037      42.840000000000003      39.270000000000003
    27   1      3.5700000000000003                  41.055      39.270000000000003
    28   1      3.5700000000000003      42.840000000000003      37.484999999999999
    29   1      1.7850000000000037                  41.055                  41.055
    30   1      1.7850000000000037      42.840000000000003      42.840000000000003
    31   1      3.5700000000000003                  41.055      42.840000000000003
    32   1      3.5700000000000003      42.840000000000003                  41.055
    33   1      1.7850000000000037                  41.055                  44.625
    34   1      1.7850000000000037      42.840000000000003      46.410000000000004
    35   1      3.5700000000000003                  41.055      46.410000000000004
    36   1      3.5700000000000003      42.840000000000003                  44.625
    37   1      1.7850000000000037                  41.055      48.195000000000007
    38   1      1.7850000000000037      42.840000000000003      49.979999999999997
    39   1      3.5700000000000003                  41.055      49.979999999999997
    40   1      3.5700000000000003      42.840000000000003      48.195000000000007
    41   1      3.5700000000000003                  41.055      53.550000000000004
    42   1      3.5700000000000003      42.840000000000003      51.765000000000001
    43   1      3.5700000000000003                  44.625      35.700000000000003
    44   1      1.7850000000000037      46.410000000000004      39.270000000000003
    45   1      3.5700000000000003                  44.625      39.270000000000003
    46   1      3.5700000000000003      46.410000000000004      37.484999999999999
    47   1      1.7850000000000037                  44.625                  41.055
    48   1      1.7850000000000037      46.410000000000004      42.840000000000003
    49   1      3.5700000000000003                  44.625      42.840000000000003
    50   1      3.5700000000000003      46.410000000000004                  41.055
    51   1      1.7850000000000037                  44.625                  44.625
    52   1      1.7850000000000037      46.410000000000004      46.410000000000004
    53   1      3.5700000000000003                  44.625      46.410000000000004
    54   1      3.5700000000000003      46.410000000000004                  44.625
    55   1      1.7850000000000037                  44.625      48.195000000000007
    56   1      1.7850000000000037      46.410000000000004      49.979999999999997
    57   1      3.5700000000000003                  44.625      49.979999999999997
    58   1      3.5700000000000003      46.410000000000004      48.195000000000007
    59   1      3.5700000000000003                  44.625      53.550000000000004
    60   1      3.5700000000000003      46.410000000000004      51.765000000000001
    61   1      3.5700000000000003      48.195000000000007      35.700000000000003
    62   1      1.7850000000000037      49.979999999999997      39.270000000000003
    63   1      3.5700000000000003      48.195000000000007      39.270000000000003
    64   1      3.5700000000000003      49.979999999999997      37.484999999999999
    65   1      1.7850000000000037      48.195000000000007                  41.055
    66   1      1.7850000000000037      49.979999999999997      42.840000000000003
    67   1      3.5700000000000003      48.195000000000007      42.840000000000003
    68   1      3.5700000000000003      49.979999999999997                  41.055
    69   1      1.7850000000000037      48.195000000000007                  44.625
    70   1      1.7850000000000037      49.979999999999997      46.410000000000004
    71   1      3.5700000000000003      48.195000000000007      46.410000000000004
    72   1      3.5700000000000003      49.979999999999997                  44.625
    73   1      1.7850000000000037      48.195000000000007      48.195000000000007
    74   1      1.7850000000000037      49.979999999999997      49.979999999999997
    75   1      3.5700000000000003      48.195000000000007      49.979999999999997
    76   1      3.5700000000000003      49.979999999999997      48.195000000000007
    77   1      3.5700000000000003      48.195000000000007      53.550000000000004
    78   1      3.5700000000000003      49.979999999999997      51.765000000000001
    79   1      3.5700000000000003      51.765000000000001      35.700000000000003
    80   1      3.5700000000000003      51.765000000000001      39.270000000000003
    81   1      3.5700000000000003      53.550000000000004      37.484999999999999
    82   1      3.5700000000000003      51.765000000000001      42.840000000000003
    83   1      3.5700000000000003      53.550000000000004                  41.055
    84   1      3.5700000000000003      51.765000000000001      46.410000000000004
    85   1      3.5700000000000003      53.550000000000004                  44.625
    86   1      3.5700000000000003      51.765000000000001      49.979999999999997
    87   1      3.5700000000000003      53.550000000000004      48.195000000000007
    88   1      3.5700000000000003      51.765000000000001      53.550000000000004
    89   1      3.5700000000000003      53.550000000000004      51.765000000000001
    90   1      7.1400000000000006      28.560000000000002      30.345000000000002
    91   1      7.1400000000000006      28.560000000000002      33.914999999999999
    92   1      7.1400000000000006      28.560000000000002      37.484999999999999
    93   1      7.1400000000000006      28.560000000000002                  41.055
    94   1      7.1400000000000006      28.560000000000002                  44.625
    95   1      7.1400000000000006      28.560000000000002      48.195000000000007
    96   1      7.1400000000000006      28.560000000000002      51.765000000000001
    97   1      7.1400000000000006      28.560000000000002      55.335000000000008
    98   1      7.1400000000000006      28.560000000000002      58.905000000000008
    99   1      7.1400000000000006      30.345000000000002      28.560000000000002
   100   1      5.3550000000000049      32.129999999999995      32.129999999999995
   101   1      7.1400000000000006      30.345000000000002      32.129999999999995
   102   1      7.1400000000000006      32.129999999999995      30.345000000000002
   103   1      5.3550000000000049      32.129999999999995      35.700000000000003
   104   1      7.1400000000000006      30.345000000000002      35.700000000000003
   105   1      7.1400000000000006      32.129999999999995      33.914999999999999
   106   1      5.3550000000000049      32.129999999999995      39.270000000000003
   107   1      7.1400000000000006      30.345000000000002      39.270000000000003
   108   1      7.1400000000000006      32.129999999999995      37.484999999999999
   109   1      5.3550000000000049      32.129999999999995      42.840000000000003
   110   1      7.1400000000000006      30.345000000000002      42.840000000000003
   111   1      7.1400000000000006      32.129999999999995                  41.055
   112   1      5.3550000000000049      32.129999999999995      46.410000000000004
   113   1      7.1400000000000006      30.345000000000002      46.410000000000004
   114   1      7.1400000000000006      32.129999999999995                  44.625
   115   1      5.3550000000000049      32.129999999999995      49.979999999999997
   116   1      7.1400000000000006      30.345000000000002      49.979999999999997
   117   1      7.1400000000000006      32.129999999999995      48.195000000000007
   118   1      5.3550000000000049      32.129999999999995      53.550000000000004
   119   1      7.1400000000000006      30.345000000000002      53.550000000000004
   120   1      7.1400000000000006      32.129999999999995      51.765000000000001
   121   1      5.3550000000000049      32.129999999999995      57.119999999999997
   122   1      7.1400000000000006      30.345000000000002      57.119999999999997
   123   1      7.1400000000000006      32.129999999999995      55.335000000000008
   124   1      7.1400000000000006      30.345000000000002      60.690000000000005
   125   1      7.1400000000000006      32.129999999999995      58.905000000000008
   126   1      7.1400000000000006      33.914999999999999      28.560000000000002
   127   1      5.3550000000000049      35.700000000000003      32.129999999999995
   128   1      7.1400000000000006      33.914999999999999      32.129999999999995
   129   1      7.1400000000000006      35.700000000000003      30.345000000000002
   130   1      5.3550000000000049      33.914999999999999      33.914999999999999
   131   1      5.3550000000000049      35.700000000000003      35.700000000000003
   132   1      7.1400000000000006      33.914999999999999      35.700000000000003
   133   1      7.1400000000000006      35.700000000000003      33.914999999999999
   134   1      5.3550000000000049      33.914999999999999      37.484999999999999
   135   1      5.3550000000000049      35.700000000000003      39.270000000000003
   136   1      7.1400000000000006      33.914999999999999      39.270000000000003
   137   1      7.1400000000000006      35.700000000000003      37.484999999999999
   138   1      5.3550000000000049      33.914999999999999                  41.055
   139   1      5.3550000000000049      35.700000000000003      42.840000000000003
   140   1      7.1400000000000006      33.914999999999999      42.840000000000003
   141   1      7.1400000000000006      35.700000000000003                  41.055
   142   1      5.3550000000000049      33.914999999999999                  44.625
   143   1      5.3550000000000049      35.700000000000003      46.410000000000004
   144   1      7.1400000000000006      33.914999999999999      46.410000000000004
   145   1      7.1400000000000006      35.700000000000003                  44.625
   146   1      5.3550000000000049      33.914999999999999      48.195000000000007
   147   1      5.3550000000000049      35.700000000000003      49.979999999999997
   148   1      7.1400000000000006      33.914999999999999      49.979999999999997
   149   1      7.1400000000000006      35.700000000000003      48.195000000000007
   150   1      5.3550000000000049      33.914999999999999      51.765000000000001
   151   1      5.3550000000000049      35.700000000000003      53.550000000000004
   152   1      7.1400000000000006      33.914999999999999      53.550000000000004
   153   1      7.1400000000000006      35.700000000000003      51.765000000000001
   154   1      5.3550000000000049      33.914999999999999      55.335000000000008
   155   1      5.3550000000000049      35.700000000000003      57.119999999999997
   156   1      7.1400000000000006      33.914999999999999      57.119999999999997
   157   1      7.1400000000000006      35.700000000000003      55.335000000000008
   158   1      7.1400000000000006      33.914999999999999      60.690000000000005
   159   1      7.1400000000000006      35.700000000000003      58.905000000000008
   160   1      7.1400000000000006      37.484999999999999      28.560000000000002
   161   1      5.3550000000000049      39.270000000000003      32.129999999999995
   162   1      7.1400000000000006      37.484999999999999      32.129999999999995
   163   1      7.1400000000000006      39.270000000000003      30.345000000000002
   164   1      5.3550000000000049      37.484999999999999      33.914999999999999
   165   1      5.3550000000000049      39.270000000000003      35.700000000000003
   166   1      7.1400000000000006      37.484999999999999      35.700000000000003
   167   1      7.1400000000000006      39.270000000000003      33.914999999999999
   168   1      5.3550000000000049      37.484999999999999      37.484999999999999
   169   1      5.3550000000000049      39.270000000000003      39.270000000000003
   170   1      7.1400000000000006      37.484999999999999      39.270000000000003
   171   1      7.1400000000000006      39.270000000000003      37.484999999999999
   172   1      5.3550000000000049      37.484999999999999                  41.055
   173   1      5.3550000000000049      39.270000000000003      42.840000000000003
   174   1      7.1400000000000006      37.484999999999999      42.840000000000003
   175   1      7.1400000000000006      39.270000000000003                  41.055
   176   1      5.3550000000000049      37.484999999999999                  44.625
   177   1      5.3550000000000049      39.270000000000003      46.410000000000004
   178   1      7.1400000000000006      37.484999999999999      46.410000000000004
   179   1      7.1400000000000006      39.270000000000003                  44.625
   180   1      5.3550000000000049      37.484999999999999      48.195000000000007
   181   1      5.3550000000000049      39.270000000000003      49.979999999999997
   182   1      7.1400000000000006      37.484999999999999      49.979999999999997
   183   1      7.1400000000000006      39.270000000000003      48.195000000000007
   184   1      5.3550000000000049      37.484999999999999      51.765000000000001
   185   1      5.3550000000000049      39.270000000000003      53.550000000000004
   186   1      7.1400000000000006      37.484999999999999      53.550000000000004
   187   1      7.1400000000000006      39.270000000000003      51.765000000000001
   188   1      5.3550000000000049      37.484999999999999      55.335000000000008
   189   1      5.3550000000000049      39.270000000000003      57.119999999999997
   190   1      7.1400000000000006      37.484999999999999      57.119999999999997
   191   1      7.1400000000000006      39.270000000000003      55.335000000000008
   192   1      7.1400000000000006      37.484999999999999      60.690000000000005
   193   1      7.1400000000000006      39.270000000000003      58.905000000000008
   194   1      7.1400000000000006                  41.055      28.560000000000002
   195   1      5.3550000000000049      42.840000000000003      32.129999999999995
   196   1      7.1400000000000006                  41.055      32.129999999999995
   197   1      7.1400000000000006      42.840000000000003      30.345000000000002
   198   1      5.3550000000000049                  41.055      33.914999999999999
   199   1      5.3550000000000049      42.840000000000003      35.700000000000003
   200   1      7.1400000000000006                  41.055      35.700000000000003
   201   1      7.1400000000000006      42.840000000000003      33.914999999999999
   202   1      5.3550000000000049                  41.055      37.484999999999999
   203   1      5.3550000000000049      42.840000000000003      39.270000000000003
   204   1      7.1400000000000006                  41.055      39.270000000000003
   205   1      7.1400000000000006      42.840000000000003      37.484999999999999
   206   1      5.3550000000000049                  41.055                  41.055
   207   1      5.3550000000000049      42.840000000000003      42.840000000000003
   208   1      7.1400000000000006                  41.055      42.840000000000003
   209   1      7.1400000000000006      42.840000000000003                  41.055
   210   1      5.3550000000000049                  41.055                  44.625
   211   1      5.3550000000000049      42.840000000000003      46.410000000000004
   212   1      7.1400000000000006                  41.055      46.410000000000004
   213   1      7.1400000000000006      42.840000000000003                  44.625
   214   1      5.3550000000000049                  41.055      48.195000000000007
   215   1      5.3550000000000049      42.840000000000003      49.979999999999997
   216   1      7.1400000000000006                  41.055      49.979999999999997
   217   1      7.1400000000000006      42.840000000000003      48.195000000000007
   218   1      5.3550000000000049                  41.055      51.765000000000001
   219   1      5.3550000000000049      42.840000000000003      53.550000000000004
   220   1      7.1400000000000006                  41.055      53.550000000000004
   221   1      7.1400000000000006      42.840000000000003      51.765000000000001
   222   1      5.3550000000000049                  41.055      55.335000000000008
   223   1      5.3550000000000049      42.840000000000003      57.119999999999997
   224   1      7.1400000000000006                  41.055      57.119999999999997
   225   1      7.1400000000000006      42.840000000000003      55.335000000000008
   226   1      7.1400000000000006                  41.055      60.690000000000005
   227   1      7.1400000000000006      42.840000000000003      58.905000000000008
   228   1      7.1400000000000006                  44.625      28.560000000000002
   229   1      5.3550000000000049      46.410000000000004      32.129999999999995
   230   1      7.1400000000000006                  44.625      32.129999999999995
   231   1      7.1400000000000006      46.410000000000004      30.345000000000002
   232   1      5.3550000000000049                  44.625      33.914999999999999
   233   1      5.3550000000000049      46.410000000000004      35.700000000000003
   234   1      7.1400000000000006                  44.625      35.700000000000003
   235   1      7.1400000000000006      46.410000000000004      33.914999999999999
   236   1      5.3550000000000049                  44.625      37.484999999999999
   237   1      5.3550000000000049      46.410000000000004      39.270000000000003
   238   1      7.1400000000000006                  44.625      39.270000000000003
   239   1      7.1400000000000006      46.410000000000004      37.484999999999999
   240   1      5.3550000000000049                  44.625                  41.055
   241   1      5.3550000000000049      46.410000000000004      42.840000000000003
   242   1      7.1400000000000006                  44.625      42.840000000000003
   243   1      7.1400000000000006      46.410000000000004                  41.055
   244   1      5.3550000000000049                  44.625                  44.625
   245   1      5.3550000000000049      46.410000000000004      46.410000000000004
   246   1      7.1400000000000006                  44.625      46.410000000000004
   247   1      7.1400000000000006      46.410000000000004                  44.625
   248   1      5.3550000000000049                  44.625      48.195000000000007
   249   1      5.3550000000000049      46.410000000000004      49.979999999999997
   250   1      7.1400000000000006                  44.625      49.979999999999997
   251   1      7.1400000000000006      46.410000000000004      48.195000000000007
   252   1      5.3550000000000049                  44.625      51.765000000000001
   253   1      5.3550000000000049      46.410000000000004      53.550000000000004
   254   1      7.1400000000000006                  44.625      53.550000000000004
   255   1      7.1400000000000006      46.410000000000004      51.765000000000001
   256   1      5.3550000000000049                  44.625      55.335000000000008
   257   1      5.3550000000000049      46.410000000000004      57.119999999999997
   258   1      7.1400000000000006                  44.625      57.119999999999997
   259   1      7.1400000000000006      46.410000000000004      55.335000000000008
   260   1      7.1400000000000006                  44.625      60.690000000000005
   261   1      7.1400000000000006      46.410000000000004      58.905000000000008
   262   1      7.1400000000000006      48.195000000000007      28.560000000000002
   263   1      5.3550000000000049      49.979999999999997      32.129999999999995
   264   1      7.1400000000000006      48.195000000000007      32.129999999999995
   265   1      7.1400000000000006      49.979999999999997      30.345000000000002
   266   1      5.3550000000000049      48.195000000000007      33.914999999999999
   267   1      5.3550000000000049      49.979999999999997      35.700000000000003
   268   1      7.1400000000000006      48.195000000000007      35.700000000000003
   269   1      7.1400000000000006      49.979999999999997      33.914999999999999
   270   1      5.3550000000000049      48.195000000000007      37.484999999999999
   271   1      5.3550000000000049      49.979999999999997      39.270000000000003
   272   1      7.1400000000000006      48.195000000000007      39.270000000000003
   273   1      7.1400000000000006      49.979999999999997      37.484999999999999
   274   1      5.3550000000000049      48.195000000000007                  41.055
   275   1      5.3550000000000049      49.979999999999997      42.840000000000003
   276   1      7.1400000000000006      48.195000000000007      42.840000000000003
   277   1      7.1400000000000006      49.979999999999997                  41.055
   278   1      5.3550000000000049      48.195000000000007                  44.625
   279   1      5.3550000000000049      49.979999999999997      46.410000000000004
   280   1      7.1400000000000006      48.195000000000007      46.410000000000004
   281   1      7.1400000000000006      49.979999999999997                  44.625
   282   1      5.3550000000000049      48.195000000000007      48.195000000000007
   283   1      5.3550000000000049      49.979999999999997      49.979999999999997
   284   1      7.1400000000000006      48.195000000000007      49.979999999999997
   285   1      7.1400000000000006      49.979999999999997      48.195000000000007
   286   1      5.3550000000000049      48.195000000000007      51.765000000000001
   287   1      5.3550000000000049      49.979999999999997      53.550000000000004
   288   1      7.1400000000000006      48.195000000000007      53.550000000000004
   289   1      7.1400000000000006      49.979999999999997      51.765000000000001
   290   1      5.3550000000000049      48.195000000000007      55.335000000000008
   291   1      5.3550000000000049      49.979999999999997      57.119999999999997
   292   1      7.1400000000000006      48.195000000000007      57.119999999999997
   293   1      7.1400000000000006      49.979999999999997      55.335000000000008
   294   1      7.1400000000000006      48.195000000000007      60.690000000000005
   295   1      7.1400000000000006      49.979999999999997      58.905000000000008
   296   1      7.1400000000000006      51.765000000000001      28.560000000000002
   297   1      5.3550000000000049      53.550000000000004      32.129999999999995
   298   1      7.1400000000000006      51.765000000000001      32.129999999999995
   299   1      7.1400000000000006      53.550000000000004      30.345000000000002
   300   1      5.3550000000000049      51.765000000000001      33.914999999999999
   301   1      5.3550000000000049      53.550000000000004      35.700000000000003
   302   1      7.1400000000000006      51.765000000000001      35.700000000000003
   303   1      7.1400000000000006      53.550000000000004      33.914999999999999
   304   1      5.3550000000000049      51.765000000000001      37.484999999999999
   305   1      5.3550000000000049      53.550000000000004      39.270000000000003
   306   1      7.1400000000000006      51.765000000000001      39.270000000000003
   307   1      7.1400000000000006      53.550000000000004      37.484999999999999
   308   1      5.3550000000000049      51.765000000000001                  41.055
   309   1      5.3550000000000049      53.550000000000004      42.840000000000003
   310   1      7.1400000000000006      51.765000000000001      42.840000000000003
   311   1      7.1400000000000006      53.550000000000004                  41.055
   312   1      5.3550000000000049      51.765000000000001                  44.625
   313   1      5.3550000000000049      53.550000000000004      46.410000000000004
   314   1      7.1400000000000006      51.765000000000001      46.410000000000004
   315   1      7.1400000000000006      53.550000000000004                  44.625
   316   1      5.3550000000000049      51.765000000000001      48.195000000000007
   317   1      5.3550000000000049      53.550000000000004      49.979999999999997
   318   1      7.1400000000000006      51.765000000000001      49.979999999999997
   319   1      7.1400000000000006      53.550000000000004      48.195000000000007
   320   1      5.3550000000000049      51.765000000000001      51.765000000000001
   321   1      5.3550000000000049      53.550000000000004      53.550000000000004
   322   1      7.1400000000000006      51.765000000000001      53.550000000000004
   323   1      7.1400000000000006      53.550000000000004      51.765000000000001
   324   1      5.3550000000000049      51.765000000000001      55.335000000000008
   325   1      5.3550000000000049      53.550000000000004      57.119999999999997
   326   1      7.1400000000000006      51.765000000000001      57.119999999999997
   327   1      7.1400000000000006      53.550000000000004      55.335000000000008
   328   1      7.1400000000000006      51.765000000000001      60.690000000000005
   329   1      7.1400000000000006      53.550000000000004      58.905000000000008
   330   1      7.1400000000000006      55.335000000000008      28.560000000000002
   331   1      5.3550000000000049      57.119999999999997      32.129999999999995
   332   1      7.1400000000000006      55.335000000000008      32.129999999999995
   333   1      7.1400000000000006      57.119999999999997      30.345000000000002
   334   1      5.3550000000000049      55.335000000000008      33.914999999999999
   335   1      5.3550000000000049      57.119999999999997      35.700000000000003
   336   1      7.1400000000000006      55.335000000000008      35.700000000000003
   337   1      7.1400000000000006      57.119999999999997      33.914999999999999
   338   1      5.3550000000000049      55.335000000000008      37.484999999999999
   339   1      5.3550000000000049      57.119999999999997      39.270000000000003
   340   1      7.1400000000000006      55.335000000000008      39.270000000000003
   341   1      7.1400000000000006      57.119999999999997      37.484999999999999
   342   1      5.3550000000000049      55.335000000000008                  41.055
   343   1      5.3550000000000049      57.119999999999997      42.840000000000003
   344   1      7.1400000000000006      55.335000000000008      42.840000000000003
   345   1      7.1400000000000006      57.119999999999997                  41.055
   346   1      5.3550000000000049      55.335000000000008                  44.625
   347   1      5.3550000000000049      57.119999999999997      46.410000000000004
   348   1      7.1400000000000006      55.335000000000008      46.410000000000004
   349   1      7.1400000000000006      57.119999999999997                  44.625
   350   1      5.3550000000000049      55.335000000000008      48.195000000000007
   351   1      5.3550000000000049      57.119999999999997      49.979999999999997
   352   1      7.1400000000000006      55.335000000000008      49.979999999999997
   353   1      7.1400000000000006      57.119999999999997      48.195000000000007
   354   1      5.3550000000000049      55.335000000000008      51.765000000000001
   355   1      5.3550000000000049      57.119999999999997      53.550000000000004
   356   1      7.1400000000000006      55.335000000000008      53.550000000000004
   357   1      7.1400000000000006      57.119999999999997      51.765000000000001
   358   1      5.3550000000000049      55.335000000000008      55.335000000000008