model_files/Pt/Pt_30000/Pt_432/data.Pt_432_fcc_29911 (written by ASE) 

29911 	 atoms 
1  atom types
0.0                     119  xlo xhi
0.0                     119  ylo yhi
0.0                     119  zlo zhi


Atoms 

     1   1      1.9600000000000009      56.839999999999996      58.799999999999997
     2   1      1.9600000000000009      58.799999999999997      56.839999999999996
     3   1                       0      58.799999999999997      58.799999999999997
     4   1      1.9600000000000009      58.799999999999997      60.759999999999991
     5   1      1.9600000000000009      60.759999999999991      58.799999999999997
     6   1      5.8799999999999955                      49      58.799999999999997
     7   1      3.9200000000000017      52.919999999999995      56.839999999999996
     8   1      5.8799999999999955      50.959999999999994      56.839999999999996
     9   1      5.8799999999999955      52.919999999999995      54.879999999999995
    10   1      3.9200000000000017      52.919999999999995      60.759999999999991
    11   1      5.8799999999999955      50.959999999999994      60.759999999999991
    12   1      5.8799999999999955      52.919999999999995      58.799999999999997
    13   1      5.8799999999999955      52.919999999999995      62.719999999999992
    14   1      3.9200000000000017      56.839999999999996      52.919999999999995
    15   1      5.8799999999999955      54.879999999999995      52.919999999999995
    16   1      5.8799999999999955      56.839999999999996      50.959999999999994
    17   1      3.9200000000000017      54.879999999999995      54.879999999999995
    18   1      3.9200000000000017      56.839999999999996      56.839999999999996
    19   1      5.8799999999999955      54.879999999999995      56.839999999999996
    20   1      5.8799999999999955      56.839999999999996      54.879999999999995
    21   1      3.9200000000000017      54.879999999999995      58.799999999999997
    22   1      3.9200000000000017      56.839999999999996      60.759999999999991
    23   1      5.8799999999999955      54.879999999999995      60.759999999999991
    24   1      5.8799999999999955      56.839999999999996      58.799999999999997
    25   1      3.9200000000000017      54.879999999999995      62.719999999999992
    26   1      3.9200000000000017      56.839999999999996      64.679999999999993
    27   1      5.8799999999999955      54.879999999999995      64.679999999999993
    28   1      5.8799999999999955      56.839999999999996      62.719999999999992
    29   1      5.8799999999999955      56.839999999999996      66.639999999999986
    30   1      5.8799999999999955      58.799999999999997                      49
    31   1      3.9200000000000017      60.759999999999991      52.919999999999995
    32   1      5.8799999999999955      58.799999999999997      52.919999999999995
    33   1      5.8799999999999955      60.759999999999991      50.959999999999994
    34   1      3.9200000000000017      58.799999999999997      54.879999999999995
    35   1      3.9200000000000017      60.759999999999991      56.839999999999996
    36   1      5.8799999999999955      58.799999999999997      56.839999999999996
    37   1      5.8799999999999955      60.759999999999991      54.879999999999995
    38   1      3.9200000000000017      58.799999999999997      58.799999999999997
    39   1      3.9200000000000017      60.759999999999991      60.759999999999991
    40   1      5.8799999999999955      58.799999999999997      60.759999999999991
    41   1      5.8799999999999955      60.759999999999991      58.799999999999997
    42   1      3.9200000000000017      58.799999999999997      62.719999999999992
    43   1      3.9200000000000017      60.759999999999991      64.679999999999993
    44   1      5.8799999999999955      58.799999999999997      64.679999999999993
    45   1      5.8799999999999955      60.759999999999991      62.719999999999992
    46   1      5.8799999999999955      58.799999999999997      68.599999999999994
    47   1      5.8799999999999955      60.759999999999991      66.639999999999986
    48   1      5.8799999999999955      62.719999999999992      52.919999999999995
    49   1      3.9200000000000017      62.719999999999992      54.879999999999995
    50   1      3.9200000000000017      64.679999999999993      56.839999999999996
    51   1      5.8799999999999955      62.719999999999992      56.839999999999996
    52   1      5.8799999999999955      64.679999999999993      54.879999999999995
    53   1      3.9200000000000017      62.719999999999992      58.799999999999997
    54   1      3.9200000000000017      64.679999999999993      60.759999999999991
    55   1      5.8799999999999955      62.719999999999992      60.759999999999991
    56   1      5.8799999999999955      64.679999999999993      58.799999999999997
    57   1      3.9200000000000017      62.719999999999992      62.719999999999992
    58   1      5.8799999999999955      62.719999999999992      64.679999999999993
    59   1      5.8799999999999955      64.679999999999993      62.719999999999992
    60   1      5.8799999999999955      66.639999999999986      56.839999999999996
    61   1      5.8799999999999955      66.639999999999986      60.759999999999991
    62   1      5.8799999999999955      68.599999999999994      58.799999999999997
    63   1      9.7999999999999972      45.079999999999998      58.799999999999997
    64   1      9.7999999999999972                      49      50.959999999999994
    65   1      7.8399999999999954                      49      56.839999999999996
    66   1      9.7999999999999972      47.039999999999999      56.839999999999996
    67   1      9.7999999999999972                      49      54.879999999999995
    68   1      7.8399999999999954      47.039999999999999      58.799999999999997
    69   1      7.8399999999999954                      49      60.759999999999991
    70   1      9.7999999999999972      47.039999999999999      60.759999999999991
    71   1      9.7999999999999972                      49      58.799999999999997
    72   1      9.7999999999999972                      49      62.719999999999992
    73   1      9.7999999999999972                      49      66.639999999999986
    74   1      9.7999999999999972      50.959999999999994                      49
    75   1      7.8399999999999954      52.919999999999995      52.919999999999995
    76   1      9.7999999999999972      50.959999999999994      52.919999999999995
    77   1      9.7999999999999972      52.919999999999995      50.959999999999994
    78   1      7.8399999999999954      50.959999999999994      54.879999999999995
    79   1      7.8399999999999954      52.919999999999995      56.839999999999996
    80   1      9.7999999999999972      50.959999999999994      56.839999999999996
    81   1      9.7999999999999972      52.919999999999995      54.879999999999995
    82   1      7.8399999999999954      50.959999999999994      58.799999999999997
    83   1      7.8399999999999954      52.919999999999995      60.759999999999991
    84   1      9.7999999999999972      50.959999999999994      60.759999999999991
    85   1      9.7999999999999972      52.919999999999995      58.799999999999997
    86   1      7.8399999999999954      50.959999999999994      62.719999999999992
    87   1      7.8399999999999954      52.919999999999995      64.679999999999993
    88   1      9.7999999999999972      50.959999999999994      64.679999999999993
    89   1      9.7999999999999972      52.919999999999995      62.719999999999992
    90   1      9.7999999999999972      50.959999999999994      68.599999999999994
    91   1      9.7999999999999972      52.919999999999995      66.639999999999986
    92   1      7.8399999999999954      56.839999999999996                      49
    93   1      9.7999999999999972      54.879999999999995                      49
    94   1      9.7999999999999972      56.839999999999996      47.039999999999999
    95   1      7.8399999999999954      54.879999999999995      50.959999999999994
    96   1      7.8399999999999954      56.839999999999996      52.919999999999995
    97   1      9.7999999999999972      54.879999999999995      52.919999999999995
    98   1      9.7999999999999972      56.839999999999996      50.959999999999994
    99   1      7.8399999999999954      54.879999999999995      54.879999999999995
   100   1      7.8399999999999954      56.839999999999996      56.839999999999996
   101   1      9.7999999999999972      54.879999999999995      56.839999999999996
   102   1      9.7999999999999972      56.839999999999996      54.879999999999995
   103   1      7.8399999999999954      54.879999999999995      58.799999999999997
   104   1      7.8399999999999954      56.839999999999996      60.759999999999991
   105   1      9.7999999999999972      54.879999999999995      60.759999999999991
   106   1      9.7999999999999972      56.839999999999996      58.799999999999997
   107   1      7.8399999999999954      54.879999999999995      62.719999999999992
   108   1      7.8399999999999954      56.839999999999996      64.679999999999993
   109   1      9.7999999999999972      54.879999999999995      64.679999999999993
   110   1      9.7999999999999972      56.839999999999996      62.719999999999992
   111   1      7.8399999999999954      54.879999999999995      66.639999999999986
   112   1      7.8399999999999954      56.839999999999996      68.599999999999994
   113   1      9.7999999999999972      54.879999999999995      68.599999999999994
   114   1      9.7999999999999972      56.839999999999996      66.639999999999986
   115   1      9.7999999999999972      56.839999999999996      70.559999999999988
   116   1      9.7999999999999972      58.799999999999997      45.079999999999998
   117   1      7.8399999999999954      58.799999999999997      47.039999999999999
   118   1      7.8399999999999954      60.759999999999991                      49
   119   1      9.7999999999999972      58.799999999999997                      49
   120   1      9.7999999999999972      60.759999999999991      47.039999999999999
   121   1      7.8399999999999954      58.799999999999997      50.959999999999994
   122   1      7.8399999999999954      60.759999999999991      52.919999999999995
   123   1      9.7999999999999972      58.799999999999997      52.919999999999995
   124   1      9.7999999999999972      60.759999999999991      50.959999999999994
   125   1      7.8399999999999954      58.799999999999997      54.879999999999995
   126   1      7.8399999999999954      60.759999999999991      56.839999999999996
   127   1      9.7999999999999972      58.799999999999997      56.839999999999996
   128   1      9.7999999999999972      60.759999999999991      54.879999999999995
   129   1      7.8399999999999954      58.799999999999997      58.799999999999997
   130   1      7.8399999999999954      60.759999999999991      60.759999999999991
   131   1      9.7999999999999972      58.799999999999997      60.759999999999991
   132   1      9.7999999999999972      60.759999999999991      58.799999999999997
   133   1      7.8399999999999954      58.799999999999997      62.719999999999992
   134   1      7.8399999999999954      60.759999999999991      64.679999999999993
   135   1      9.7999999999999972      58.799999999999997      64.679999999999993
   136   1      9.7999999999999972      60.759999999999991      62.719999999999992
   137   1      7.8399999999999954      58.799999999999997      66.639999999999986
   138   1      7.8399999999999954      60.759999999999991      68.599999999999994
   139   1      9.7999999999999972      58.799999999999997      68.599999999999994
   140   1      9.7999999999999972      60.759999999999991      66.639999999999986
   141   1      7.8399999999999954      58.799999999999997      70.559999999999988
   142   1      9.7999999999999972      58.799999999999997      72.519999999999996
   143   1      9.7999999999999972      60.759999999999991      70.559999999999988
   144   1      9.7999999999999972      62.719999999999992                      49
   145   1      7.8399999999999954      62.719999999999992      50.959999999999994
   146   1      7.8399999999999954      64.679999999999993      52.919999999999995
   147   1      9.7999999999999972      62.719999999999992      52.919999999999995
   148   1      9.7999999999999972      64.679999999999993      50.959999999999994
   149   1      7.8399999999999954      62.719999999999992      54.879999999999995
   150   1      7.8399999999999954      64.679999999999993      56.839999999999996
   151   1      9.7999999999999972      62.719999999999992      56.839999999999996
   152   1      9.7999999999999972      64.679999999999993      54.879999999999995
   153   1      7.8399999999999954      62.719999999999992      58.799999999999997
   154   1      7.8399999999999954      64.679999999999993      60.759999999999991
   155   1      9.7999999999999972      62.719999999999992      60.759999999999991
   156   1      9.7999999999999972      64.679999999999993      58.799999999999997
   157   1      7.8399999999999954      62.719999999999992      62.719999999999992
   158   1      7.8399999999999954      64.679999999999993      64.679999999999993
   159   1      9.7999999999999972      62.719999999999992      64.679999999999993
   160   1      9.7999999999999972      64.679999999999993      62.719999999999992
   161   1      7.8399999999999954      62.719999999999992      66.639999999999986
   162   1      9.7999999999999972      62.719999999999992      68.599999999999994
   163   1      9.7999999999999972      64.679999999999993      66.639999999999986
   164   1      9.7999999999999972      66.639999999999986                      49
   165   1      9.7999999999999972      66.639999999999986      52.919999999999995
   166   1      9.7999999999999972      68.599999999999994      50.959999999999994
   167   1      7.8399999999999954      66.639999999999986      54.879999999999995
   168   1      7.8399999999999954      68.599999999999994      56.839999999999996
   169   1      9.7999999999999972      66.639999999999986      56.839999999999996
   170   1      9.7999999999999972      68.599999999999994      54.879999999999995
   171   1      7.8399999999999954      66.639999999999986      58.799999999999997
   172   1      7.8399999999999954      68.599999999999994      60.759999999999991
   173   1      9.7999999999999972      66.639999999999986      60.759999999999991
   174   1      9.7999999999999972      68.599999999999994      58.799999999999997
   175   1      7.8399999999999954      66.639999999999986      62.719999999999992
   176   1      9.7999999999999972      66.639999999999986      64.679999999999993
   177   1      9.7999999999999972      68.599999999999994      62.719999999999992
   178   1      9.7999999999999972      66.639999999999986      68.599999999999994
   179   1      9.7999999999999972      68.599999999999994      66.639999999999986
   180   1      9.7999999999999972      70.559999999999988      56.839999999999996
   181   1      7.8399999999999954      70.559999999999988      58.799999999999997
   182   1      9.7999999999999972      70.559999999999988      60.759999999999991
   183   1      9.7999999999999972      72.519999999999996      58.799999999999997
   184   1      13.719999999999999      41.159999999999997      54.879999999999995
   185   1      13.719999999999999      41.159999999999997      58.799999999999997
   186   1      13.719999999999999      41.159999999999997      62.719999999999992
   187   1      11.759999999999998      45.079999999999998      52.919999999999995
   188   1      13.719999999999999      43.119999999999997      52.919999999999995
   189   1      13.719999999999999      45.079999999999998      50.959999999999994
   190   1      11.759999999999998      45.079999999999998      56.839999999999996
   191   1      13.719999999999999      43.119999999999997      56.839999999999996
   192   1      13.719999999999999      45.079999999999998      54.879999999999995
   193   1      11.759999999999998      43.119999999999997      58.799999999999997
   194   1      11.759999999999998      45.079999999999998      60.759999999999991
   195   1      13.719999999999999      43.119999999999997      60.759999999999991
   196   1      13.719999999999999      45.079999999999998      58.799999999999997
   197   1      11.759999999999998      45.079999999999998      64.679999999999993
   198   1      13.719999999999999      43.119999999999997      64.679999999999993
   199   1      13.719999999999999      45.079999999999998      62.719999999999992
   200   1      13.719999999999999      45.079999999999998      66.639999999999986
   201   1      11.759999999999998                      49                      49
   202   1      13.719999999999999      47.039999999999999                      49
   203   1      13.719999999999999                      49      47.039999999999999
   204   1      11.759999999999998      47.039999999999999      50.959999999999994
   205   1      11.759999999999998                      49      52.919999999999995
   206   1      13.719999999999999      47.039999999999999      52.919999999999995
   207   1      13.719999999999999                      49      50.959999999999994
   208   1      11.759999999999998      47.039999999999999      54.879999999999995
   209   1      11.759999999999998                      49      56.839999999999996
   210   1      13.719999999999999      47.039999999999999      56.839999999999996
   211   1      13.719999999999999                      49      54.879999999999995
   212   1      11.759999999999998      47.039999999999999      58.799999999999997
   213   1      11.759999999999998                      49      60.759999999999991
   214   1      13.719999999999999      47.039999999999999      60.759999999999991
   215   1      13.719999999999999                      49      58.799999999999997
   216   1      11.759999999999998      47.039999999999999      62.719999999999992
   217   1      11.759999999999998                      49      64.679999999999993
   218   1      13.719999999999999      47.039999999999999      64.679999999999993
   219   1      13.719999999999999                      49      62.719999999999992
   220   1      11.759999999999998      47.039999999999999      66.639999999999986
   221   1      11.759999999999998                      49      68.599999999999994
   222   1      13.719999999999999      47.039999999999999      68.599999999999994
   223   1      13.719999999999999                      49      66.639999999999986
   224   1      13.719999999999999                      49      70.559999999999988
   225   1      11.759999999999998      52.919999999999995      45.079999999999998
   226   1      13.719999999999999      50.959999999999994      45.079999999999998
   227   1      13.719999999999999      52.919999999999995      43.119999999999997
   228   1      11.759999999999998      50.959999999999994      47.039999999999999
   229   1      11.759999999999998      52.919999999999995                      49
   230   1      13.719999999999999      50.959999999999994                      49
   231   1      13.719999999999999      52.919999999999995      47.039999999999999
   232   1      11.759999999999998      50.959999999999994      50.959999999999994
   233   1      11.759999999999998      52.919999999999995      52.919999999999995
   234   1      13.719999999999999      50.959999999999994      52.919999999999995
   235   1      13.719999999999999      52.919999999999995      50.959999999999994
   236   1      11.759999999999998      50.959999999999994      54.879999999999995
   237   1      11.759999999999998      52.919999999999995      56.839999999999996
   238   1      13.719999999999999      50.959999999999994      56.839999999999996
   239   1      13.719999999999999      52.919999999999995      54.879999999999995
   240   1      11.759999999999998      50.959999999999994      58.799999999999997
   241   1      11.759999999999998      52.919999999999995      60.759999999999991
   242   1      13.719999999999999      50.959999999999994      60.759999999999991
   243   1      13.719999999999999      52.919999999999995      58.799999999999997
   244   1      11.759999999999998      50.959999999999994      62.719999999999992
   245   1      11.759999999999998      52.919999999999995      64.679999999999993
   246   1      13.719999999999999      50.959999999999994      64.679999999999993
   247   1      13.719999999999999      52.919999999999995      62.719999999999992
   248   1      11.759999999999998      50.959999999999994      66.639999999999986
   249   1      11.759999999999998      52.919999999999995      68.599999999999994
   250   1      13.719999999999999      50.959999999999994      68.599999999999994
   251   1      13.719999999999999      52.919999999999995      66.639999999999986
   252   1      11.759999999999998      50.959999999999994      70.559999999999988
   253   1      11.759999999999998      52.919999999999995      72.519999999999996
   254   1      13.719999999999999      50.959999999999994      72.519999999999996
   255   1      13.719999999999999      52.919999999999995      70.559999999999988
   256   1      13.719999999999999      52.919999999999995      74.480000000000004
   257   1      13.719999999999999      54.879999999999995      41.159999999999997
   258   1      11.759999999999998      56.839999999999996      45.079999999999998
   259   1      13.719999999999999      54.879999999999995      45.079999999999998
   260   1      13.719999999999999      56.839999999999996      43.119999999999997
   261   1      11.759999999999998      54.879999999999995      47.039999999999999
   262   1      11.759999999999998      56.839999999999996                      49
   263   1      13.719999999999999      54.879999999999995                      49
   264   1      13.719999999999999      56.839999999999996      47.039999999999999
   265   1      11.759999999999998      54.879999999999995      50.959999999999994
   266   1      11.759999999999998      56.839999999999996      52.919999999999995
   267   1      13.719999999999999      54.879999999999995      52.919999999999995
   268   1      13.719999999999999      56.839999999999996      50.959999999999994
   269   1      11.759999999999998      54.879999999999995      54.879999999999995
   270   1      11.759999999999998      56.839999999999996      56.839999999999996
   271   1      13.719999999999999      54.879999999999995      56.839999999999996
   272   1      13.719999999999999      56.839999999999996      54.879999999999995
   273   1      11.759999999999998      54.879999999999995      58.799999999999997
   274   1      11.759999999999998      56.839999999999996      60.759999999999991
   275   1      13.719999999999999      54.879999999999995      60.759999999999991
   276   1      13.719999999999999      56.839999999999996      58.799999999999997
   277   1      11.759999999999998      54.879999999999995      62.719999999999992
   278   1      11.759999999999998      56.839999999999996      64.679999999999993
   279   1      13.719999999999999      54.879999999999995      64.679999999999993
   280   1      13.719999999999999      56.839999999999996      62.719999999999992
   281   1      11.759999999999998      54.879999999999995      66.639999999999986
   282   1      11.759999999999998      56.839999999999996      68.599999999999994
   283   1      13.719999999999999      54.879999999999995      68.599999999999994
   284   1      13.719999999999999      56.839999999999996      66.639999999999986
   285   1      11.759999999999998      54.879999999999995      70.559999999999988
   286   1      11.759999999999998      56.839999999999996      72.519999999999996
   287   1      13.719999999999999      54.879999999999995      72.519999999999996
   288   1      13.719999999999999      56.839999999999996      70.559999999999988
   289   1      13.719999999999999      54.879999999999995      76.439999999999998
   290   1      13.719999999999999      56.839999999999996      74.480000000000004
   291   1      13.719999999999999      58.799999999999997      41.159999999999997
   292   1      11.759999999999998      58.799999999999997      43.119999999999997
   293   1      11.759999999999998      60.759999999999991      45.079999999999998
   294   1      13.719999999999999      58.799999999999997      45.079999999999998
   295   1      13.719999999999999      60.759999999999991      43.119999999999997
   296   1      11.759999999999998      58.799999999999997      47.039999999999999
   297   1      11.759999999999998      60.759999999999991                      49
   298   1      13.719999999999999      58.799999999999997                      49
   299   1      13.719999999999999      60.759999999999991      47.039999999999999
   300   1      11.759999999999998      58.799999999999997      50.959999999999994
   301   1      11.759999999999998      60.759999999999991      52.919999999999995
   302   1      13.719999999999999      58.799999999999997      52.919999999999995
   303   1      13.719999999999999      60.759999999999991      50.959999999999994
   304   1      11.759999999999998      58.799999999999997      54.879999999999995
   305   1      11.759999999999998      60.759999999999991      56.839999999999996
   306   1      13.719999999999999      58.799999999999997      56.839999999999996
   307   1      13.719999999999999      60.759999999999991      54.879999999999995
   308   1      11.759999999999998      58.799999999999997      58.799999999999997
   309   1      11.759999999999998      60.759999999999991      60.759999999999991
   310   1      13.719999999999999      58.799999999999997      60.759999999999991
   311   1      13.719999999999999      60.759999999999991      58.799999999999997
   312   1      11.759999999999998      58.799999999999997      62.719999999999992
   313   1      11.759999999999998      60.759999999999991      64.679999999999993
   314   1      13.719999999999999      58.799999999999997      64.679999999999993
   315   1      13.719999999999999      60.759999999999991      62.719999999999992
   316   1      11.759999999999998      58.799999999999997      66.639999999999986
   317   1      11.759999999999998      60.759999999999991      68.599999999999994
   318   1      13.719999999999999      58.799999999999997      68.599999999999994
   319   1      13.719999999999999      60.759999999999991      66.639999999999986
   320   1      11.759999999999998      58.799999999999997      70.559999999999988
   321   1      11.759999999999998      60.759999999999991      72.519999999999996
   322   1      13.719999999999999      58.799999999999997      72.519999999999996
   323   1      13.719999999999999      60.759999999999991      70.559999999999988
   324   1      11.759999999999998      58.799999999999997      74.480000000000004
   325   1      13.719999999999999      58.799999999999997      76.439999999999998
   326   1      13.719999999999999      60.759999999999991      74.480000000000004
   327   1      13.719999999999999      62.719999999999992      41.159999999999997
   328   1      11.759999999999998      64.679999999999993      45.079999999999998
   329   1      13.719999999999999      62.719999999999992      45.079999999999998
   330   1      13.719999999999999      64.679999999999993      43.119999999999997
   331   1      11.759999999999998      62.719999999999992      47.039999999999999
   332   1      11.759999999999998      64.679999999999993                      49
   333   1      13.719999999999999      62.719999999999992                      49
   334   1      13.719999999999999      64.679999999999993      47.039999999999999
   335   1      11.759999999999998      62.719999999999992      50.959999999999994
   336   1      11.759999999999998      64.679999999999993      52.919999999999995
   337   1      13.719999999999999      62.719999999999992      52.919999999999995
   338   1      13.719999999999999      64.679999999999993      50.959999999999994
   339   1      11.759999999999998      62.719999999999992      54.879999999999995
   340   1      11.759999999999998      64.679999999999993      56.839999999999996
   341   1      13.719999999999999      62.719999999999992      56.839999999999996
   342   1      13.719999999999999      64.679999999999993      54.879999999999995
   343   1      11.759999999999998      62.719999999999992      58.799999999999997
   344   1      11.759999999999998      64.679999999999993      60.759999999999991
   345   1      13.719999999999999      62.719999999999992      60.759999999999991
   346   1      13.719999999999999      64.679999999999993      58.799999999999997
   347   1      11.759999999999998      62.719999999999992      62.719999999999992
   348   1      11.759999999999998      64.679999999999993      64.679999999999993
   349   1      13.719999999999999      62.719999999999992      64.679999999999993
   350   1      13.719999999999999      64.679999999999993      62.719999999999992
   351   1      11.759999999999998      62.719999999999992      66.639999999999986
   352   1      11.759999999999998      64.679999999999993      68.599999999999994
   353   1      13.719999999999999      62.719999999999992      68.599999999999994
   354   1      13.719999999999999      64.679999999999993      66.639999999999986
   355   1      11.759999999999998      62.719999999999992      70.559999999999988
   356   1      11.759999999999998      64.679999999999993      72.519999999999996
   357   1      13.719999999999999      62.719999999999992      72.519999999999996
   358   1      13.719999999999999      64.679999999999993      70.559999999999988