model_files/Au/Au_30000/Au_540/data.Au_540_fcc_29765 (written by ASE) 

29765 	 atoms 
1  atom types
0.0                     114  xlo xhi
0.0                     114  ylo yhi
0.0                     114  zlo zhi


Atoms 

     1   1                       0      55.079999999999998      55.079999999999998
     2   1      2.0399999999999991      53.040000000000006      55.079999999999998
     3   1      2.0399999999999991      55.079999999999998      53.040000000000006
     4   1                       0      55.079999999999998      59.159999999999997
     5   1      2.0399999999999991      53.040000000000006      59.159999999999997
     6   1      2.0399999999999991      55.079999999999998      57.120000000000005
     7   1      2.0399999999999991      55.079999999999998      61.200000000000003
     8   1                       0      59.159999999999997      55.079999999999998
     9   1      2.0399999999999991      57.120000000000005      55.079999999999998
    10   1      2.0399999999999991      59.159999999999997      53.040000000000006
    11   1                       0      57.120000000000005      57.120000000000005
    12   1                       0      59.159999999999997      59.159999999999997
    13   1      2.0399999999999991      57.120000000000005      59.159999999999997
    14   1      2.0399999999999991      59.159999999999997      57.120000000000005
    15   1      2.0399999999999991      59.159999999999997      61.200000000000003
    16   1      2.0399999999999991      61.200000000000003      55.079999999999998
    17   1      2.0399999999999991      61.200000000000003      59.159999999999997
    18   1      4.0799999999999983      50.999999999999993      50.999999999999993
    19   1      6.1200000000000045      48.959999999999994      50.999999999999993
    20   1      6.1200000000000045      50.999999999999993      48.959999999999994
    21   1      4.0799999999999983      50.999999999999993      55.079999999999998
    22   1      6.1200000000000045      48.959999999999994      55.079999999999998
    23   1      6.1200000000000045      50.999999999999993      53.040000000000006
    24   1      4.0799999999999983      50.999999999999993      59.159999999999997
    25   1      6.1200000000000045      48.959999999999994      59.159999999999997
    26   1      6.1200000000000045      50.999999999999993      57.120000000000005
    27   1      4.0799999999999983      50.999999999999993      63.240000000000002
    28   1      6.1200000000000045      48.959999999999994      63.240000000000002
    29   1      6.1200000000000045      50.999999999999993      61.200000000000003
    30   1      6.1200000000000045      50.999999999999993      65.280000000000001
    31   1      4.0799999999999983      55.079999999999998      50.999999999999993
    32   1      6.1200000000000045      53.040000000000006      50.999999999999993
    33   1      6.1200000000000045      55.079999999999998      48.959999999999994
    34   1      4.0799999999999983      53.040000000000006      53.040000000000006
    35   1      4.0799999999999983      55.079999999999998      55.079999999999998
    36   1      6.1200000000000045      53.040000000000006      55.079999999999998
    37   1      6.1200000000000045      55.079999999999998      53.040000000000006
    38   1      4.0799999999999983      53.040000000000006      57.120000000000005
    39   1      4.0799999999999983      55.079999999999998      59.159999999999997
    40   1      6.1200000000000045      53.040000000000006      59.159999999999997
    41   1      6.1200000000000045      55.079999999999998      57.120000000000005
    42   1      4.0799999999999983      53.040000000000006      61.200000000000003
    43   1      4.0799999999999983      55.079999999999998      63.240000000000002
    44   1      6.1200000000000045      53.040000000000006      63.240000000000002
    45   1      6.1200000000000045      55.079999999999998      61.200000000000003
    46   1      6.1200000000000045      55.079999999999998      65.280000000000001
    47   1      4.0799999999999983      59.159999999999997      50.999999999999993
    48   1      6.1200000000000045      57.120000000000005      50.999999999999993
    49   1      6.1200000000000045      59.159999999999997      48.959999999999994
    50   1      4.0799999999999983      57.120000000000005      53.040000000000006
    51   1      4.0799999999999983      59.159999999999997      55.079999999999998
    52   1      6.1200000000000045      57.120000000000005      55.079999999999998
    53   1      6.1200000000000045      59.159999999999997      53.040000000000006
    54   1      4.0799999999999983      57.120000000000005      57.120000000000005
    55   1      4.0799999999999983      59.159999999999997      59.159999999999997
    56   1      6.1200000000000045      57.120000000000005      59.159999999999997
    57   1      6.1200000000000045      59.159999999999997      57.120000000000005
    58   1      4.0799999999999983      57.120000000000005      61.200000000000003
    59   1      4.0799999999999983      59.159999999999997      63.240000000000002
    60   1      6.1200000000000045      57.120000000000005      63.240000000000002
    61   1      6.1200000000000045      59.159999999999997      61.200000000000003
    62   1      6.1200000000000045      59.159999999999997      65.280000000000001
    63   1      4.0799999999999983      63.240000000000002      50.999999999999993
    64   1      6.1200000000000045      61.200000000000003      50.999999999999993
    65   1      6.1200000000000045      63.240000000000002      48.959999999999994
    66   1      4.0799999999999983      61.200000000000003      53.040000000000006
    67   1      4.0799999999999983      63.240000000000002      55.079999999999998
    68   1      6.1200000000000045      61.200000000000003      55.079999999999998
    69   1      6.1200000000000045      63.240000000000002      53.040000000000006
    70   1      4.0799999999999983      61.200000000000003      57.120000000000005
    71   1      4.0799999999999983      63.240000000000002      59.159999999999997
    72   1      6.1200000000000045      61.200000000000003      59.159999999999997
    73   1      6.1200000000000045      63.240000000000002      57.120000000000005
    74   1      4.0799999999999983      61.200000000000003      61.200000000000003
    75   1      4.0799999999999983      63.240000000000002      63.240000000000002
    76   1      6.1200000000000045      61.200000000000003      63.240000000000002
    77   1      6.1200000000000045      63.240000000000002      61.200000000000003
    78   1      6.1200000000000045      63.240000000000002      65.280000000000001
    79   1      6.1200000000000045      65.280000000000001      50.999999999999993
    80   1      6.1200000000000045      65.280000000000001      55.079999999999998
    81   1      6.1200000000000045      65.280000000000001      59.159999999999997
    82   1      6.1200000000000045      65.280000000000001      63.240000000000002
    83   1      10.200000000000001      42.840000000000003      44.880000000000003
    84   1      10.200000000000001      42.840000000000003      48.959999999999994
    85   1      10.200000000000001      42.840000000000003      53.040000000000006
    86   1      10.200000000000001      42.840000000000003      57.120000000000005
    87   1      10.200000000000001      42.840000000000003      61.200000000000003
    88   1      10.200000000000001      42.840000000000003      65.280000000000001
    89   1      10.200000000000001      42.840000000000003      69.359999999999985
    90   1      10.200000000000001      44.880000000000003      42.840000000000003
    91   1      8.1600000000000019      44.880000000000003      44.880000000000003
    92   1      8.1600000000000019      46.920000000000002      46.920000000000002
    93   1      10.200000000000001      44.880000000000003      46.920000000000002
    94   1      10.200000000000001      46.920000000000002      44.880000000000003
    95   1      8.1600000000000019      44.880000000000003      48.959999999999994
    96   1      8.1600000000000019      46.920000000000002      50.999999999999993
    97   1      10.200000000000001      44.880000000000003      50.999999999999993
    98   1      10.200000000000001      46.920000000000002      48.959999999999994
    99   1      8.1600000000000019      44.880000000000003      53.040000000000006
   100   1      8.1600000000000019      46.920000000000002      55.079999999999998
   101   1      10.200000000000001      44.880000000000003      55.079999999999998
   102   1      10.200000000000001      46.920000000000002      53.040000000000006
   103   1      8.1600000000000019      44.880000000000003      57.120000000000005
   104   1      8.1600000000000019      46.920000000000002      59.159999999999997
   105   1      10.200000000000001      44.880000000000003      59.159999999999997
   106   1      10.200000000000001      46.920000000000002      57.120000000000005
   107   1      8.1600000000000019      44.880000000000003      61.200000000000003
   108   1      8.1600000000000019      46.920000000000002      63.240000000000002
   109   1      10.200000000000001      44.880000000000003      63.240000000000002
   110   1      10.200000000000001      46.920000000000002      61.200000000000003
   111   1      8.1600000000000019      44.880000000000003      65.280000000000001
   112   1      8.1600000000000019      46.920000000000002      67.319999999999993
   113   1      10.200000000000001      44.880000000000003      67.319999999999993
   114   1      10.200000000000001      46.920000000000002      65.280000000000001
   115   1      8.1600000000000019      44.880000000000003      69.359999999999985
   116   1      10.200000000000001      44.880000000000003      71.400000000000006
   117   1      10.200000000000001      46.920000000000002      69.359999999999985
   118   1      10.200000000000001      48.959999999999994      42.840000000000003
   119   1      8.1600000000000019      48.959999999999994      44.880000000000003
   120   1      8.1600000000000019      50.999999999999993      46.920000000000002
   121   1      10.200000000000001      48.959999999999994      46.920000000000002
   122   1      10.200000000000001      50.999999999999993      44.880000000000003
   123   1      8.1600000000000019      48.959999999999994      48.959999999999994
   124   1      8.1600000000000019      50.999999999999993      50.999999999999993
   125   1      10.200000000000001      48.959999999999994      50.999999999999993
   126   1      10.200000000000001      50.999999999999993      48.959999999999994
   127   1      8.1600000000000019      48.959999999999994      53.040000000000006
   128   1      8.1600000000000019      50.999999999999993      55.079999999999998
   129   1      10.200000000000001      48.959999999999994      55.079999999999998
   130   1      10.200000000000001      50.999999999999993      53.040000000000006
   131   1      8.1600000000000019      48.959999999999994      57.120000000000005
   132   1      8.1600000000000019      50.999999999999993      59.159999999999997
   133   1      10.200000000000001      48.959999999999994      59.159999999999997
   134   1      10.200000000000001      50.999999999999993      57.120000000000005
   135   1      8.1600000000000019      48.959999999999994      61.200000000000003
   136   1      8.1600000000000019      50.999999999999993      63.240000000000002
   137   1      10.200000000000001      48.959999999999994      63.240000000000002
   138   1      10.200000000000001      50.999999999999993      61.200000000000003
   139   1      8.1600000000000019      48.959999999999994      65.280000000000001
   140   1      8.1600000000000019      50.999999999999993      67.319999999999993
   141   1      10.200000000000001      48.959999999999994      67.319999999999993
   142   1      10.200000000000001      50.999999999999993      65.280000000000001
   143   1      8.1600000000000019      48.959999999999994      69.359999999999985
   144   1      10.200000000000001      48.959999999999994      71.400000000000006
   145   1      10.200000000000001      50.999999999999993      69.359999999999985
   146   1      10.200000000000001      53.040000000000006      42.840000000000003
   147   1      8.1600000000000019      53.040000000000006      44.880000000000003
   148   1      8.1600000000000019      55.079999999999998      46.920000000000002
   149   1      10.200000000000001      53.040000000000006      46.920000000000002
   150   1      10.200000000000001      55.079999999999998      44.880000000000003
   151   1      8.1600000000000019      53.040000000000006      48.959999999999994
   152   1      8.1600000000000019      55.079999999999998      50.999999999999993
   153   1      10.200000000000001      53.040000000000006      50.999999999999993
   154   1      10.200000000000001      55.079999999999998      48.959999999999994
   155   1      8.1600000000000019      53.040000000000006      53.040000000000006
   156   1      8.1600000000000019      55.079999999999998      55.079999999999998
   157   1      10.200000000000001      53.040000000000006      55.079999999999998
   158   1      10.200000000000001      55.079999999999998      53.040000000000006
   159   1      8.1600000000000019      53.040000000000006      57.120000000000005
   160   1      8.1600000000000019      55.079999999999998      59.159999999999997
   161   1      10.200000000000001      53.040000000000006      59.159999999999997
   162   1      10.200000000000001      55.079999999999998      57.120000000000005
   163   1      8.1600000000000019      53.040000000000006      61.200000000000003
   164   1      8.1600000000000019      55.079999999999998      63.240000000000002
   165   1      10.200000000000001      53.040000000000006      63.240000000000002
   166   1      10.200000000000001      55.079999999999998      61.200000000000003
   167   1      8.1600000000000019      53.040000000000006      65.280000000000001
   168   1      8.1600000000000019      55.079999999999998      67.319999999999993
   169   1      10.200000000000001      53.040000000000006      67.319999999999993
   170   1      10.200000000000001      55.079999999999998      65.280000000000001
   171   1      8.1600000000000019      53.040000000000006      69.359999999999985
   172   1      10.200000000000001      53.040000000000006      71.400000000000006
   173   1      10.200000000000001      55.079999999999998      69.359999999999985
   174   1      10.200000000000001      57.120000000000005      42.840000000000003
   175   1      8.1600000000000019      57.120000000000005      44.880000000000003
   176   1      8.1600000000000019      59.159999999999997      46.920000000000002
   177   1      10.200000000000001      57.120000000000005      46.920000000000002
   178   1      10.200000000000001      59.159999999999997      44.880000000000003
   179   1      8.1600000000000019      57.120000000000005      48.959999999999994
   180   1      8.1600000000000019      59.159999999999997      50.999999999999993
   181   1      10.200000000000001      57.120000000000005      50.999999999999993
   182   1      10.200000000000001      59.159999999999997      48.959999999999994
   183   1      8.1600000000000019      57.120000000000005      53.040000000000006
   184   1      8.1600000000000019      59.159999999999997      55.079999999999998
   185   1      10.200000000000001      57.120000000000005      55.079999999999998
   186   1      10.200000000000001      59.159999999999997      53.040000000000006
   187   1      8.1600000000000019      57.120000000000005      57.120000000000005
   188   1      8.1600000000000019      59.159999999999997      59.159999999999997
   189   1      10.200000000000001      57.120000000000005      59.159999999999997
   190   1      10.200000000000001      59.159999999999997      57.120000000000005
   191   1      8.1600000000000019      57.120000000000005      61.200000000000003
   192   1      8.1600000000000019      59.159999999999997      63.240000000000002
   193   1      10.200000000000001      57.120000000000005      63.240000000000002
   194   1      10.200000000000001      59.159999999999997      61.200000000000003
   195   1      8.1600000000000019      57.120000000000005      65.280000000000001
   196   1      8.1600000000000019      59.159999999999997      67.319999999999993
   197   1      10.200000000000001      57.120000000000005      67.319999999999993
   198   1      10.200000000000001      59.159999999999997      65.280000000000001
   199   1      8.1600000000000019      57.120000000000005      69.359999999999985
   200   1      10.200000000000001      57.120000000000005      71.400000000000006
   201   1      10.200000000000001      59.159999999999997      69.359999999999985
   202   1      10.200000000000001      61.200000000000003      42.840000000000003
   203   1      8.1600000000000019      61.200000000000003      44.880000000000003
   204   1      8.1600000000000019      63.240000000000002      46.920000000000002
   205   1      10.200000000000001      61.200000000000003      46.920000000000002
   206   1      10.200000000000001      63.240000000000002      44.880000000000003
   207   1      8.1600000000000019      61.200000000000003      48.959999999999994
   208   1      8.1600000000000019      63.240000000000002      50.999999999999993
   209   1      10.200000000000001      61.200000000000003      50.999999999999993
   210   1      10.200000000000001      63.240000000000002      48.959999999999994
   211   1      8.1600000000000019      61.200000000000003      53.040000000000006
   212   1      8.1600000000000019      63.240000000000002      55.079999999999998
   213   1      10.200000000000001      61.200000000000003      55.079999999999998
   214   1      10.200000000000001      63.240000000000002      53.040000000000006
   215   1      8.1600000000000019      61.200000000000003      57.120000000000005
   216   1      8.1600000000000019      63.240000000000002      59.159999999999997
   217   1      10.200000000000001      61.200000000000003      59.159999999999997
   218   1      10.200000000000001      63.240000000000002      57.120000000000005
   219   1      8.1600000000000019      61.200000000000003      61.200000000000003
   220   1      8.1600000000000019      63.240000000000002      63.240000000000002
   221   1      10.200000000000001      61.200000000000003      63.240000000000002
   222   1      10.200000000000001      63.240000000000002      61.200000000000003
   223   1      8.1600000000000019      61.200000000000003      65.280000000000001
   224   1      8.1600000000000019      63.240000000000002      67.319999999999993
   225   1      10.200000000000001      61.200000000000003      67.319999999999993
   226   1      10.200000000000001      63.240000000000002      65.280000000000001
   227   1      8.1600000000000019      61.200000000000003      69.359999999999985
   228   1      10.200000000000001      61.200000000000003      71.400000000000006
   229   1      10.200000000000001      63.240000000000002      69.359999999999985
   230   1      10.200000000000001      65.280000000000001      42.840000000000003
   231   1      8.1600000000000019      65.280000000000001      44.880000000000003
   232   1      8.1600000000000019      67.319999999999993      46.920000000000002
   233   1      10.200000000000001      65.280000000000001      46.920000000000002
   234   1      10.200000000000001      67.319999999999993      44.880000000000003
   235   1      8.1600000000000019      65.280000000000001      48.959999999999994
   236   1      8.1600000000000019      67.319999999999993      50.999999999999993
   237   1      10.200000000000001      65.280000000000001      50.999999999999993
   238   1      10.200000000000001      67.319999999999993      48.959999999999994
   239   1      8.1600000000000019      65.280000000000001      53.040000000000006
   240   1      8.1600000000000019      67.319999999999993      55.079999999999998
   241   1      10.200000000000001      65.280000000000001      55.079999999999998
   242   1      10.200000000000001      67.319999999999993      53.040000000000006
   243   1      8.1600000000000019      65.280000000000001      57.120000000000005
   244   1      8.1600000000000019      67.319999999999993      59.159999999999997
   245   1      10.200000000000001      65.280000000000001      59.159999999999997
   246   1      10.200000000000001      67.319999999999993      57.120000000000005
   247   1      8.1600000000000019      65.280000000000001      61.200000000000003
   248   1      8.1600000000000019      67.319999999999993      63.240000000000002
   249   1      10.200000000000001      65.280000000000001      63.240000000000002
   250   1      10.200000000000001      67.319999999999993      61.200000000000003
   251   1      8.1600000000000019      65.280000000000001      65.280000000000001
   252   1      8.1600000000000019      67.319999999999993      67.319999999999993
   253   1      10.200000000000001      65.280000000000001      67.319999999999993
   254   1      10.200000000000001      67.319999999999993      65.280000000000001
   255   1      8.1600000000000019      65.280000000000001      69.359999999999985
   256   1      10.200000000000001      65.280000000000001      71.400000000000006
   257   1      10.200000000000001      67.319999999999993      69.359999999999985
   258   1      10.200000000000001      69.359999999999985      42.840000000000003
   259   1      8.1600000000000019      69.359999999999985      44.880000000000003
   260   1      10.200000000000001      69.359999999999985      46.920000000000002
   261   1      10.200000000000001      71.400000000000006      44.880000000000003
   262   1      8.1600000000000019      69.359999999999985      48.959999999999994
   263   1      10.200000000000001      69.359999999999985      50.999999999999993
   264   1      10.200000000000001      71.400000000000006      48.959999999999994
   265   1      8.1600000000000019      69.359999999999985      53.040000000000006
   266   1      10.200000000000001      69.359999999999985      55.079999999999998
   267   1      10.200000000000001      71.400000000000006      53.040000000000006
   268   1      8.1600000000000019      69.359999999999985      57.120000000000005
   269   1      10.200000000000001      69.359999999999985      59.159999999999997
   270   1      10.200000000000001      71.400000000000006      57.120000000000005
   271   1      8.1600000000000019      69.359999999999985      61.200000000000003
   272   1      10.200000000000001      69.359999999999985      63.240000000000002
   273   1      10.200000000000001      71.400000000000006      61.200000000000003
   274   1      8.1600000000000019      69.359999999999985      65.280000000000001
   275   1      10.200000000000001      69.359999999999985      67.319999999999993
   276   1      10.200000000000001      71.400000000000006      65.280000000000001
   277   1      8.1600000000000019      69.359999999999985      69.359999999999985
   278   1      10.200000000000001      69.359999999999985      71.400000000000006
   279   1      10.200000000000001      71.400000000000006      69.359999999999985
   280   1      14.280000000000001      38.759999999999998      40.799999999999997
   281   1      14.280000000000001      38.759999999999998      44.880000000000003
   282   1      14.280000000000001      38.759999999999998      48.959999999999994
   283   1      14.280000000000001      38.759999999999998      53.040000000000006
   284   1      14.280000000000001      38.759999999999998      57.120000000000005
   285   1      14.280000000000001      38.759999999999998      61.200000000000003
   286   1      14.280000000000001      38.759999999999998      65.280000000000001
   287   1      14.280000000000001      38.759999999999998      69.359999999999985
   288   1      14.280000000000001      38.759999999999998      73.439999999999998
   289   1      14.280000000000001      40.799999999999997      38.759999999999998
   290   1                   12.24      40.799999999999997      40.799999999999997
   291   1                   12.24      42.840000000000003      42.840000000000003
   292   1      14.280000000000001      40.799999999999997      42.840000000000003
   293   1      14.280000000000001      42.840000000000003      40.799999999999997
   294   1                   12.24      40.799999999999997      44.880000000000003
   295   1                   12.24      42.840000000000003      46.920000000000002
   296   1      14.280000000000001      40.799999999999997      46.920000000000002
   297   1      14.280000000000001      42.840000000000003      44.880000000000003
   298   1                   12.24      40.799999999999997      48.959999999999994
   299   1                   12.24      42.840000000000003      50.999999999999993
   300   1      14.280000000000001      40.799999999999997      50.999999999999993
   301   1      14.280000000000001      42.840000000000003      48.959999999999994
   302   1                   12.24      40.799999999999997      53.040000000000006
   303   1                   12.24      42.840000000000003      55.079999999999998
   304   1      14.280000000000001      40.799999999999997      55.079999999999998
   305   1      14.280000000000001      42.840000000000003      53.040000000000006
   306   1                   12.24      40.799999999999997      57.120000000000005
   307   1                   12.24      42.840000000000003      59.159999999999997
   308   1      14.280000000000001      40.799999999999997      59.159999999999997
   309   1      14.280000000000001      42.840000000000003      57.120000000000005
   310   1                   12.24      40.799999999999997      61.200000000000003
   311   1                   12.24      42.840000000000003      63.240000000000002
   312   1      14.280000000000001      40.799999999999997      63.240000000000002
   313   1      14.280000000000001      42.840000000000003      61.200000000000003
   314   1                   12.24      40.799999999999997      65.280000000000001
   315   1                   12.24      42.840000000000003      67.319999999999993
   316   1      14.280000000000001      40.799999999999997      67.319999999999993
   317   1      14.280000000000001      42.840000000000003      65.280000000000001
   318   1                   12.24      40.799999999999997      69.359999999999985
   319   1                   12.24      42.840000000000003      71.400000000000006
   320   1      14.280000000000001      40.799999999999997      71.400000000000006
   321   1      14.280000000000001      42.840000000000003      69.359999999999985
   322   1                   12.24      40.799999999999997      73.439999999999998
   323   1      14.280000000000001      40.799999999999997      75.480000000000004
   324   1      14.280000000000001      42.840000000000003      73.439999999999998
   325   1      14.280000000000001      44.880000000000003      38.759999999999998
   326   1                   12.24      44.880000000000003      40.799999999999997
   327   1                   12.24      46.920000000000002      42.840000000000003
   328   1      14.280000000000001      44.880000000000003      42.840000000000003
   329   1      14.280000000000001      46.920000000000002      40.799999999999997
   330   1                   12.24      44.880000000000003      44.880000000000003
   331   1                   12.24      46.920000000000002      46.920000000000002
   332   1      14.280000000000001      44.880000000000003      46.920000000000002
   333   1      14.280000000000001      46.920000000000002      44.880000000000003
   334   1                   12.24      44.880000000000003      48.959999999999994
   335   1                   12.24      46.920000000000002      50.999999999999993
   336   1      14.280000000000001      44.880000000000003      50.999999999999993
   337   1      14.280000000000001      46.920000000000002      48.959999999999994
   338   1                   12.24      44.880000000000003      53.040000000000006
   339   1                   12.24      46.920000000000002      55.079999999999998
   340   1      14.280000000000001      44.880000000000003      55.079999999999998
   341   1      14.280000000000001      46.920000000000002      53.040000000000006
   342   1                   12.24      44.880000000000003      57.120000000000005
   343   1                   12.24      46.920000000000002      59.159999999999997
   344   1      14.280000000000001      44.880000000000003      59.159999999999997
   345   1      14.280000000000001      46.920000000000002      57.120000000000005
   346   1                   12.24      44.880000000000003      61.200000000000003
   347   1                   12.24      46.920000000000002      63.240000000000002
   348   1      14.280000000000001      44.880000000000003      63.240000000000002
   349   1      14.280000000000001      46.920000000000002      61.200000000000003
   350   1                   12.24      44.880000000000003      65.280000000000001
   351   1                   12.24      46.920000000000002      67.319999999999993
   352   1      14.280000000000001      44.880000000000003      67.319999999999993
   353   1      14.280000000000001      46.920000000000002      65.280000000000001
   354   1                   12.24      44.880000000000003      69.359999999999985
   355   1                   12.24      46.920000000000002      71.400000000000006
   356   1      14.280000000000001      44.880000000000003      71.400000000000006
   357   1      14.280000000000001      46.920000000000002      69.359999999999985
   358   1                   12.24      44.880000000000003      73.439999999999998