model_files/Ni/Ni_30000/Ni_533/data.Ni_533_fcc_30085 (written by ASE) 

30085 	 atoms 
1  atom types
0.0                     102  xlo xhi
0.0                     102  ylo yhi
0.0                     102  zlo zhi


Atoms 

     1   1  7.1054273576010019e-15      49.280000000000008      51.040000000000006
     2   1  7.1054273576010019e-15      51.040000000000006      49.280000000000008
     3   1  7.1054273576010019e-15      51.040000000000006      52.800000000000004
     4   1  7.1054273576010019e-15      52.800000000000004      51.040000000000006
     5   1      3.5200000000000102      45.760000000000005      51.040000000000006
     6   1      1.7600000000000122      49.280000000000008      49.280000000000008
     7   1      3.5200000000000102       47.52000000000001      49.280000000000008
     8   1      3.5200000000000102      49.280000000000008       47.52000000000001
     9   1      1.7600000000000122       47.52000000000001      51.040000000000006
    10   1      1.7600000000000122      49.280000000000008      52.800000000000004
    11   1      3.5200000000000102       47.52000000000001      52.800000000000004
    12   1      3.5200000000000102      49.280000000000008      51.040000000000006
    13   1      3.5200000000000102      49.280000000000008      54.560000000000009
    14   1      3.5200000000000102      51.040000000000006      45.760000000000005
    15   1      1.7600000000000122      51.040000000000006       47.52000000000001
    16   1      1.7600000000000122      52.800000000000004      49.280000000000008
    17   1      3.5200000000000102      51.040000000000006      49.280000000000008
    18   1      3.5200000000000102      52.800000000000004       47.52000000000001
    19   1      1.7600000000000122      51.040000000000006      51.040000000000006
    20   1      1.7600000000000122      52.800000000000004      52.800000000000004
    21   1      3.5200000000000102      51.040000000000006      52.800000000000004
    22   1      3.5200000000000102      52.800000000000004      51.040000000000006
    23   1      1.7600000000000122      51.040000000000006      54.560000000000009
    24   1      3.5200000000000102      51.040000000000006      56.320000000000007
    25   1      3.5200000000000102      52.800000000000004      54.560000000000009
    26   1      3.5200000000000102      54.560000000000009      49.280000000000008
    27   1      1.7600000000000122      54.560000000000009      51.040000000000006
    28   1      3.5200000000000102      54.560000000000009      52.800000000000004
    29   1      3.5200000000000102      56.320000000000007      51.040000000000006
    30   1      7.0400000000000063      38.720000000000006      51.040000000000006
    31   1      5.2800000000000082      42.240000000000009      49.280000000000008
    32   1      7.0400000000000063      40.480000000000011      49.280000000000008
    33   1      7.0400000000000063      42.240000000000009       47.52000000000001
    34   1      5.2800000000000082      40.480000000000011      51.040000000000006
    35   1      5.2800000000000082      42.240000000000009      52.800000000000004
    36   1      7.0400000000000063      40.480000000000011      52.800000000000004
    37   1      7.0400000000000063      42.240000000000009      51.040000000000006
    38   1      7.0400000000000063      42.240000000000009      54.560000000000009
    39   1      5.2800000000000082      45.760000000000005      45.760000000000005
    40   1      7.0400000000000063      44.000000000000007      45.760000000000005
    41   1      7.0400000000000063      45.760000000000005      44.000000000000007
    42   1      5.2800000000000082      44.000000000000007       47.52000000000001
    43   1      5.2800000000000082      45.760000000000005      49.280000000000008
    44   1      7.0400000000000063      44.000000000000007      49.280000000000008
    45   1      7.0400000000000063      45.760000000000005       47.52000000000001
    46   1      5.2800000000000082      44.000000000000007      51.040000000000006
    47   1      5.2800000000000082      45.760000000000005      52.800000000000004
    48   1      7.0400000000000063      44.000000000000007      52.800000000000004
    49   1      7.0400000000000063      45.760000000000005      51.040000000000006
    50   1      5.2800000000000082      44.000000000000007      54.560000000000009
    51   1      5.2800000000000082      45.760000000000005      56.320000000000007
    52   1      7.0400000000000063      44.000000000000007      56.320000000000007
    53   1      7.0400000000000063      45.760000000000005      54.560000000000009
    54   1      7.0400000000000063      45.760000000000005      58.080000000000013
    55   1      5.2800000000000082      49.280000000000008      42.240000000000009
    56   1      7.0400000000000063       47.52000000000001      42.240000000000009
    57   1      7.0400000000000063      49.280000000000008      40.480000000000011
    58   1      5.2800000000000082       47.52000000000001      44.000000000000007
    59   1      5.2800000000000082      49.280000000000008      45.760000000000005
    60   1      7.0400000000000063       47.52000000000001      45.760000000000005
    61   1      7.0400000000000063      49.280000000000008      44.000000000000007
    62   1      5.2800000000000082       47.52000000000001       47.52000000000001
    63   1      5.2800000000000082      49.280000000000008      49.280000000000008
    64   1      7.0400000000000063       47.52000000000001      49.280000000000008
    65   1      7.0400000000000063      49.280000000000008       47.52000000000001
    66   1      5.2800000000000082       47.52000000000001      51.040000000000006
    67   1      5.2800000000000082      49.280000000000008      52.800000000000004
    68   1      7.0400000000000063       47.52000000000001      52.800000000000004
    69   1      7.0400000000000063      49.280000000000008      51.040000000000006
    70   1      5.2800000000000082       47.52000000000001      54.560000000000009
    71   1      5.2800000000000082      49.280000000000008      56.320000000000007
    72   1      7.0400000000000063       47.52000000000001      56.320000000000007
    73   1      7.0400000000000063      49.280000000000008      54.560000000000009
    74   1      5.2800000000000082       47.52000000000001      58.080000000000013
    75   1      5.2800000000000082      49.280000000000008      59.840000000000011
    76   1      7.0400000000000063       47.52000000000001      59.840000000000011
    77   1      7.0400000000000063      49.280000000000008      58.080000000000013
    78   1      7.0400000000000063      49.280000000000008      61.600000000000009
    79   1      7.0400000000000063      51.040000000000006      38.720000000000006
    80   1      5.2800000000000082      51.040000000000006      40.480000000000011
    81   1      5.2800000000000082      52.800000000000004      42.240000000000009
    82   1      7.0400000000000063      51.040000000000006      42.240000000000009
    83   1      7.0400000000000063      52.800000000000004      40.480000000000011
    84   1      5.2800000000000082      51.040000000000006      44.000000000000007
    85   1      5.2800000000000082      52.800000000000004      45.760000000000005
    86   1      7.0400000000000063      51.040000000000006      45.760000000000005
    87   1      7.0400000000000063      52.800000000000004      44.000000000000007
    88   1      5.2800000000000082      51.040000000000006       47.52000000000001
    89   1      5.2800000000000082      52.800000000000004      49.280000000000008
    90   1      7.0400000000000063      51.040000000000006      49.280000000000008
    91   1      7.0400000000000063      52.800000000000004       47.52000000000001
    92   1      5.2800000000000082      51.040000000000006      51.040000000000006
    93   1      5.2800000000000082      52.800000000000004      52.800000000000004
    94   1      7.0400000000000063      51.040000000000006      52.800000000000004
    95   1      7.0400000000000063      52.800000000000004      51.040000000000006
    96   1      5.2800000000000082      51.040000000000006      54.560000000000009
    97   1      5.2800000000000082      52.800000000000004      56.320000000000007
    98   1      7.0400000000000063      51.040000000000006      56.320000000000007
    99   1      7.0400000000000063      52.800000000000004      54.560000000000009
   100   1      5.2800000000000082      51.040000000000006      58.080000000000013
   101   1      5.2800000000000082      52.800000000000004      59.840000000000011
   102   1      7.0400000000000063      51.040000000000006      59.840000000000011
   103   1      7.0400000000000063      52.800000000000004      58.080000000000013
   104   1      5.2800000000000082      51.040000000000006      61.600000000000009
   105   1      7.0400000000000063      51.040000000000006      63.360000000000014
   106   1      7.0400000000000063      52.800000000000004      61.600000000000009
   107   1      7.0400000000000063      54.560000000000009      42.240000000000009
   108   1      5.2800000000000082      54.560000000000009      44.000000000000007
   109   1      5.2800000000000082      56.320000000000007      45.760000000000005
   110   1      7.0400000000000063      54.560000000000009      45.760000000000005
   111   1      7.0400000000000063      56.320000000000007      44.000000000000007
   112   1      5.2800000000000082      54.560000000000009       47.52000000000001
   113   1      5.2800000000000082      56.320000000000007      49.280000000000008
   114   1      7.0400000000000063      54.560000000000009      49.280000000000008
   115   1      7.0400000000000063      56.320000000000007       47.52000000000001
   116   1      5.2800000000000082      54.560000000000009      51.040000000000006
   117   1      5.2800000000000082      56.320000000000007      52.800000000000004
   118   1      7.0400000000000063      54.560000000000009      52.800000000000004
   119   1      7.0400000000000063      56.320000000000007      51.040000000000006
   120   1      5.2800000000000082      54.560000000000009      54.560000000000009
   121   1      5.2800000000000082      56.320000000000007      56.320000000000007
   122   1      7.0400000000000063      54.560000000000009      56.320000000000007
   123   1      7.0400000000000063      56.320000000000007      54.560000000000009
   124   1      5.2800000000000082      54.560000000000009      58.080000000000013
   125   1      7.0400000000000063      54.560000000000009      59.840000000000011
   126   1      7.0400000000000063      56.320000000000007      58.080000000000013
   127   1      7.0400000000000063      58.080000000000013      45.760000000000005
   128   1      5.2800000000000082      58.080000000000013       47.52000000000001
   129   1      5.2800000000000082      59.840000000000011      49.280000000000008
   130   1      7.0400000000000063      58.080000000000013      49.280000000000008
   131   1      7.0400000000000063      59.840000000000011       47.52000000000001
   132   1      5.2800000000000082      58.080000000000013      51.040000000000006
   133   1      5.2800000000000082      59.840000000000011      52.800000000000004
   134   1      7.0400000000000063      58.080000000000013      52.800000000000004
   135   1      7.0400000000000063      59.840000000000011      51.040000000000006
   136   1      5.2800000000000082      58.080000000000013      54.560000000000009
   137   1      7.0400000000000063      58.080000000000013      56.320000000000007
   138   1      7.0400000000000063      59.840000000000011      54.560000000000009
   139   1      7.0400000000000063      61.600000000000009      49.280000000000008
   140   1      5.2800000000000082      61.600000000000009      51.040000000000006
   141   1      7.0400000000000063      61.600000000000009      52.800000000000004
   142   1      7.0400000000000063      63.360000000000014      51.040000000000006
   143   1      10.560000000000009      31.680000000000007      51.040000000000006
   144   1      10.560000000000009      33.440000000000012      49.280000000000008
   145   1      10.560000000000009       35.20000000000001       47.52000000000001
   146   1      10.560000000000009      33.440000000000012      52.800000000000004
   147   1      10.560000000000009       35.20000000000001      51.040000000000006
   148   1      10.560000000000009       35.20000000000001      54.560000000000009
   149   1      10.560000000000009      36.960000000000008      45.760000000000005
   150   1      10.560000000000009      38.720000000000006      44.000000000000007
   151   1      8.8000000000000114      38.720000000000006      49.280000000000008
   152   1      10.560000000000009      36.960000000000008      49.280000000000008
   153   1      10.560000000000009      38.720000000000006       47.52000000000001
   154   1      8.8000000000000114      36.960000000000008      51.040000000000006
   155   1      8.8000000000000114      38.720000000000006      52.800000000000004
   156   1      10.560000000000009      36.960000000000008      52.800000000000004
   157   1      10.560000000000009      38.720000000000006      51.040000000000006
   158   1      10.560000000000009      36.960000000000008      56.320000000000007
   159   1      10.560000000000009      38.720000000000006      54.560000000000009
   160   1      10.560000000000009      38.720000000000006      58.080000000000013
   161   1      10.560000000000009      40.480000000000011      42.240000000000009
   162   1      10.560000000000009      42.240000000000009      40.480000000000011
   163   1      8.8000000000000114      42.240000000000009      45.760000000000005
   164   1      10.560000000000009      40.480000000000011      45.760000000000005
   165   1      10.560000000000009      42.240000000000009      44.000000000000007
   166   1      8.8000000000000114      40.480000000000011       47.52000000000001
   167   1      8.8000000000000114      42.240000000000009      49.280000000000008
   168   1      10.560000000000009      40.480000000000011      49.280000000000008
   169   1      10.560000000000009      42.240000000000009       47.52000000000001
   170   1      8.8000000000000114      40.480000000000011      51.040000000000006
   171   1      8.8000000000000114      42.240000000000009      52.800000000000004
   172   1      10.560000000000009      40.480000000000011      52.800000000000004
   173   1      10.560000000000009      42.240000000000009      51.040000000000006
   174   1      8.8000000000000114      40.480000000000011      54.560000000000009
   175   1      8.8000000000000114      42.240000000000009      56.320000000000007
   176   1      10.560000000000009      40.480000000000011      56.320000000000007
   177   1      10.560000000000009      42.240000000000009      54.560000000000009
   178   1      10.560000000000009      40.480000000000011      59.840000000000011
   179   1      10.560000000000009      42.240000000000009      58.080000000000013
   180   1      10.560000000000009      42.240000000000009      61.600000000000009
   181   1      10.560000000000009      44.000000000000007      38.720000000000006
   182   1      10.560000000000009      45.760000000000005      36.960000000000008
   183   1      8.8000000000000114      45.760000000000005      42.240000000000009
   184   1      10.560000000000009      44.000000000000007      42.240000000000009
   185   1      10.560000000000009      45.760000000000005      40.480000000000011
   186   1      8.8000000000000114      44.000000000000007      44.000000000000007
   187   1      8.8000000000000114      45.760000000000005      45.760000000000005
   188   1      10.560000000000009      44.000000000000007      45.760000000000005
   189   1      10.560000000000009      45.760000000000005      44.000000000000007
   190   1      8.8000000000000114      44.000000000000007       47.52000000000001
   191   1      8.8000000000000114      45.760000000000005      49.280000000000008
   192   1      10.560000000000009      44.000000000000007      49.280000000000008
   193   1      10.560000000000009      45.760000000000005       47.52000000000001
   194   1      8.8000000000000114      44.000000000000007      51.040000000000006
   195   1      8.8000000000000114      45.760000000000005      52.800000000000004
   196   1      10.560000000000009      44.000000000000007      52.800000000000004
   197   1      10.560000000000009      45.760000000000005      51.040000000000006
   198   1      8.8000000000000114      44.000000000000007      54.560000000000009
   199   1      8.8000000000000114      45.760000000000005      56.320000000000007
   200   1      10.560000000000009      44.000000000000007      56.320000000000007
   201   1      10.560000000000009      45.760000000000005      54.560000000000009
   202   1      8.8000000000000114      44.000000000000007      58.080000000000013
   203   1      8.8000000000000114      45.760000000000005      59.840000000000011
   204   1      10.560000000000009      44.000000000000007      59.840000000000011
   205   1      10.560000000000009      45.760000000000005      58.080000000000013
   206   1      10.560000000000009      44.000000000000007      63.360000000000014
   207   1      10.560000000000009      45.760000000000005      61.600000000000009
   208   1      10.560000000000009      45.760000000000005      65.120000000000005
   209   1      10.560000000000009       47.52000000000001       35.20000000000001
   210   1      10.560000000000009      49.280000000000008      33.440000000000012
   211   1      8.8000000000000114      49.280000000000008      38.720000000000006
   212   1      10.560000000000009       47.52000000000001      38.720000000000006
   213   1      10.560000000000009      49.280000000000008      36.960000000000008
   214   1      8.8000000000000114       47.52000000000001      40.480000000000011
   215   1      8.8000000000000114      49.280000000000008      42.240000000000009
   216   1      10.560000000000009       47.52000000000001      42.240000000000009
   217   1      10.560000000000009      49.280000000000008      40.480000000000011
   218   1      8.8000000000000114       47.52000000000001      44.000000000000007
   219   1      8.8000000000000114      49.280000000000008      45.760000000000005
   220   1      10.560000000000009       47.52000000000001      45.760000000000005
   221   1      10.560000000000009      49.280000000000008      44.000000000000007
   222   1      8.8000000000000114       47.52000000000001       47.52000000000001
   223   1      8.8000000000000114      49.280000000000008      49.280000000000008
   224   1      10.560000000000009       47.52000000000001      49.280000000000008
   225   1      10.560000000000009      49.280000000000008       47.52000000000001
   226   1      8.8000000000000114       47.52000000000001      51.040000000000006
   227   1      8.8000000000000114      49.280000000000008      52.800000000000004
   228   1      10.560000000000009       47.52000000000001      52.800000000000004
   229   1      10.560000000000009      49.280000000000008      51.040000000000006
   230   1      8.8000000000000114       47.52000000000001      54.560000000000009
   231   1      8.8000000000000114      49.280000000000008      56.320000000000007
   232   1      10.560000000000009       47.52000000000001      56.320000000000007
   233   1      10.560000000000009      49.280000000000008      54.560000000000009
   234   1      8.8000000000000114       47.52000000000001      58.080000000000013
   235   1      8.8000000000000114      49.280000000000008      59.840000000000011
   236   1      10.560000000000009       47.52000000000001      59.840000000000011
   237   1      10.560000000000009      49.280000000000008      58.080000000000013
   238   1      8.8000000000000114       47.52000000000001      61.600000000000009
   239   1      8.8000000000000114      49.280000000000008      63.360000000000014
   240   1      10.560000000000009       47.52000000000001      63.360000000000014
   241   1      10.560000000000009      49.280000000000008      61.600000000000009
   242   1      10.560000000000009       47.52000000000001       66.88000000000001
   243   1      10.560000000000009      49.280000000000008      65.120000000000005
   244   1      10.560000000000009      49.280000000000008      68.640000000000015
   245   1      10.560000000000009      51.040000000000006      31.680000000000007
   246   1      10.560000000000009      51.040000000000006       35.20000000000001
   247   1      10.560000000000009      52.800000000000004      33.440000000000012
   248   1      8.8000000000000114      51.040000000000006      36.960000000000008
   249   1      8.8000000000000114      52.800000000000004      38.720000000000006
   250   1      10.560000000000009      51.040000000000006      38.720000000000006
   251   1      10.560000000000009      52.800000000000004      36.960000000000008
   252   1      8.8000000000000114      51.040000000000006      40.480000000000011
   253   1      8.8000000000000114      52.800000000000004      42.240000000000009
   254   1      10.560000000000009      51.040000000000006      42.240000000000009
   255   1      10.560000000000009      52.800000000000004      40.480000000000011
   256   1      8.8000000000000114      51.040000000000006      44.000000000000007
   257   1      8.8000000000000114      52.800000000000004      45.760000000000005
   258   1      10.560000000000009      51.040000000000006      45.760000000000005
   259   1      10.560000000000009      52.800000000000004      44.000000000000007
   260   1      8.8000000000000114      51.040000000000006       47.52000000000001
   261   1      8.8000000000000114      52.800000000000004      49.280000000000008
   262   1      10.560000000000009      51.040000000000006      49.280000000000008
   263   1      10.560000000000009      52.800000000000004       47.52000000000001
   264   1      8.8000000000000114      51.040000000000006      51.040000000000006
   265   1      8.8000000000000114      52.800000000000004      52.800000000000004
   266   1      10.560000000000009      51.040000000000006      52.800000000000004
   267   1      10.560000000000009      52.800000000000004      51.040000000000006
   268   1      8.8000000000000114      51.040000000000006      54.560000000000009
   269   1      8.8000000000000114      52.800000000000004      56.320000000000007
   270   1      10.560000000000009      51.040000000000006      56.320000000000007
   271   1      10.560000000000009      52.800000000000004      54.560000000000009
   272   1      8.8000000000000114      51.040000000000006      58.080000000000013
   273   1      8.8000000000000114      52.800000000000004      59.840000000000011
   274   1      10.560000000000009      51.040000000000006      59.840000000000011
   275   1      10.560000000000009      52.800000000000004      58.080000000000013
   276   1      8.8000000000000114      51.040000000000006      61.600000000000009
   277   1      8.8000000000000114      52.800000000000004      63.360000000000014
   278   1      10.560000000000009      51.040000000000006      63.360000000000014
   279   1      10.560000000000009      52.800000000000004      61.600000000000009
   280   1      8.8000000000000114      51.040000000000006      65.120000000000005
   281   1      10.560000000000009      51.040000000000006       66.88000000000001
   282   1      10.560000000000009      52.800000000000004      65.120000000000005
   283   1      10.560000000000009      51.040000000000006       70.40000000000002
   284   1      10.560000000000009      52.800000000000004      68.640000000000015
   285   1      10.560000000000009      54.560000000000009       35.20000000000001
   286   1      10.560000000000009      54.560000000000009      38.720000000000006
   287   1      10.560000000000009      56.320000000000007      36.960000000000008
   288   1      8.8000000000000114      54.560000000000009      40.480000000000011
   289   1      8.8000000000000114      56.320000000000007      42.240000000000009
   290   1      10.560000000000009      54.560000000000009      42.240000000000009
   291   1      10.560000000000009      56.320000000000007      40.480000000000011
   292   1      8.8000000000000114      54.560000000000009      44.000000000000007
   293   1      8.8000000000000114      56.320000000000007      45.760000000000005
   294   1      10.560000000000009      54.560000000000009      45.760000000000005
   295   1      10.560000000000009      56.320000000000007      44.000000000000007
   296   1      8.8000000000000114      54.560000000000009       47.52000000000001
   297   1      8.8000000000000114      56.320000000000007      49.280000000000008
   298   1      10.560000000000009      54.560000000000009      49.280000000000008
   299   1      10.560000000000009      56.320000000000007       47.52000000000001
   300   1      8.8000000000000114      54.560000000000009      51.040000000000006
   301   1      8.8000000000000114      56.320000000000007      52.800000000000004
   302   1      10.560000000000009      54.560000000000009      52.800000000000004
   303   1      10.560000000000009      56.320000000000007      51.040000000000006
   304   1      8.8000000000000114      54.560000000000009      54.560000000000009
   305   1      8.8000000000000114      56.320000000000007      56.320000000000007
   306   1      10.560000000000009      54.560000000000009      56.320000000000007
   307   1      10.560000000000009      56.320000000000007      54.560000000000009
   308   1      8.8000000000000114      54.560000000000009      58.080000000000013
   309   1      8.8000000000000114      56.320000000000007      59.840000000000011
   310   1      10.560000000000009      54.560000000000009      59.840000000000011
   311   1      10.560000000000009      56.320000000000007      58.080000000000013
   312   1      8.8000000000000114      54.560000000000009      61.600000000000009
   313   1      10.560000000000009      54.560000000000009      63.360000000000014
   314   1      10.560000000000009      56.320000000000007      61.600000000000009
   315   1      10.560000000000009      54.560000000000009       66.88000000000001
   316   1      10.560000000000009      56.320000000000007      65.120000000000005
   317   1      10.560000000000009      58.080000000000013      38.720000000000006
   318   1      10.560000000000009      58.080000000000013      42.240000000000009
   319   1      10.560000000000009      59.840000000000011      40.480000000000011
   320   1      8.8000000000000114      58.080000000000013      44.000000000000007
   321   1      8.8000000000000114      59.840000000000011      45.760000000000005
   322   1      10.560000000000009      58.080000000000013      45.760000000000005
   323   1      10.560000000000009      59.840000000000011      44.000000000000007
   324   1      8.8000000000000114      58.080000000000013       47.52000000000001
   325   1      8.8000000000000114      59.840000000000011      49.280000000000008
   326   1      10.560000000000009      58.080000000000013      49.280000000000008
   327   1      10.560000000000009      59.840000000000011       47.52000000000001
   328   1      8.8000000000000114      58.080000000000013      51.040000000000006
   329   1      8.8000000000000114      59.840000000000011      52.800000000000004
   330   1      10.560000000000009      58.080000000000013      52.800000000000004
   331   1      10.560000000000009      59.840000000000011      51.040000000000006
   332   1      8.8000000000000114      58.080000000000013      54.560000000000009
   333   1      8.8000000000000114      59.840000000000011      56.320000000000007
   334   1      10.560000000000009      58.080000000000013      56.320000000000007
   335   1      10.560000000000009      59.840000000000011      54.560000000000009
   336   1      8.8000000000000114      58.080000000000013      58.080000000000013
   337   1      10.560000000000009      58.080000000000013      59.840000000000011
   338   1      10.560000000000009      59.840000000000011      58.080000000000013
   339   1      10.560000000000009      58.080000000000013      63.360000000000014
   340   1      10.560000000000009      59.840000000000011      61.600000000000009
   341   1      10.560000000000009      61.600000000000009      42.240000000000009
   342   1      10.560000000000009      61.600000000000009      45.760000000000005
   343   1      10.560000000000009      63.360000000000014      44.000000000000007
   344   1      8.8000000000000114      61.600000000000009       47.52000000000001
   345   1      8.8000000000000114      63.360000000000014      49.280000000000008
   346   1      10.560000000000009      61.600000000000009      49.280000000000008
   347   1      10.560000000000009      63.360000000000014       47.52000000000001
   348   1      8.8000000000000114      61.600000000000009      51.040000000000006
   349   1      8.8000000000000114      63.360000000000014      52.800000000000004
   350   1      10.560000000000009      61.600000000000009      52.800000000000004
   351   1      10.560000000000009      63.360000000000014      51.040000000000006
   352   1      8.8000000000000114      61.600000000000009      54.560000000000009
   353   1      10.560000000000009      61.600000000000009      56.320000000000007
   354   1      10.560000000000009      63.360000000000014      54.560000000000009
   355   1      10.560000000000009      61.600000000000009      59.840000000000011
   356   1      10.560000000000009      63.360000000000014      58.080000000000013
   357   1      10.560000000000009      65.120000000000005      45.760000000000005
   358   1      10.560000000000009      65.120000000000005      49.280000000000008