model_files/NiCoCrFeMn/NiCoCrFeMn_30000/NiCoCrFeMn_210/NiCoCrFeMn_210_fcc_30389_temp.data (written by ASE) 

30389 	 atoms 
5  atom types
0.0                      91  xlo xhi
0.0                      91  ylo yhi
0.0                      91  zlo zhi


Atoms 

     1   1                       0      43.140000000000008                 44.9375
     2   1                       0                 44.9375      43.140000000000008
     3   1                       0                 44.9375      46.734999999999999
     4   1                       0      46.734999999999999                 44.9375
     5   1      3.5949999999999993      35.950000000000003      37.747500000000009
     6   1      3.5949999999999993      35.950000000000003      41.342500000000008
     7   1      3.5949999999999993      35.950000000000003                 44.9375
     8   1      3.5949999999999993      35.950000000000003      48.532500000000006
     9   1      3.5949999999999993      35.950000000000003      52.127500000000012
    10   1      3.5949999999999993      37.747500000000009      35.950000000000003
    11   1      1.7974999999999997      39.545000000000002      39.545000000000002
    12   1      3.5949999999999993      37.747500000000009      39.545000000000002
    13   1      3.5949999999999993      39.545000000000002      37.747500000000009
    14   1      1.7974999999999997      39.545000000000002      43.140000000000008
    15   1      3.5949999999999993      37.747500000000009      43.140000000000008
    16   1      3.5949999999999993      39.545000000000002      41.342500000000008
    17   1      1.7974999999999997      39.545000000000002      46.734999999999999
    18   1      3.5949999999999993      37.747500000000009      46.734999999999999
    19   1      3.5949999999999993      39.545000000000002                 44.9375
    20   1      1.7974999999999997      39.545000000000002      50.330000000000005
    21   1      3.5949999999999993      37.747500000000009      50.330000000000005
    22   1      3.5949999999999993      39.545000000000002      48.532500000000006
    23   1      3.5949999999999993      37.747500000000009      53.925000000000011
    24   1      3.5949999999999993      39.545000000000002      52.127500000000012
    25   1      3.5949999999999993      41.342500000000008      35.950000000000003
    26   1      1.7974999999999997      43.140000000000008      39.545000000000002
    27   1      3.5949999999999993      41.342500000000008      39.545000000000002
    28   1      3.5949999999999993      43.140000000000008      37.747500000000009
    29   1      1.7974999999999997      41.342500000000008      41.342500000000008
    30   1      1.7974999999999997      43.140000000000008      43.140000000000008
    31   1      3.5949999999999993      41.342500000000008      43.140000000000008
    32   1      3.5949999999999993      43.140000000000008      41.342500000000008
    33   1      1.7974999999999997      41.342500000000008                 44.9375
    34   1      1.7974999999999997      43.140000000000008      46.734999999999999
    35   1      3.5949999999999993      41.342500000000008      46.734999999999999
    36   1      3.5949999999999993      43.140000000000008                 44.9375
    37   1      1.7974999999999997      41.342500000000008      48.532500000000006
    38   1      1.7974999999999997      43.140000000000008      50.330000000000005
    39   1      3.5949999999999993      41.342500000000008      50.330000000000005
    40   1      3.5949999999999993      43.140000000000008      48.532500000000006
    41   1      3.5949999999999993      41.342500000000008      53.925000000000011
    42   1      3.5949999999999993      43.140000000000008      52.127500000000012
    43   1      3.5949999999999993                 44.9375      35.950000000000003
    44   1      1.7974999999999997      46.734999999999999      39.545000000000002
    45   1      3.5949999999999993                 44.9375      39.545000000000002
    46   1      3.5949999999999993      46.734999999999999      37.747500000000009
    47   1      1.7974999999999997                 44.9375      41.342500000000008
    48   1      1.7974999999999997      46.734999999999999      43.140000000000008
    49   1      3.5949999999999993                 44.9375      43.140000000000008
    50   1      3.5949999999999993      46.734999999999999      41.342500000000008
    51   1      1.7974999999999997                 44.9375                 44.9375
    52   1      1.7974999999999997      46.734999999999999      46.734999999999999
    53   1      3.5949999999999993                 44.9375      46.734999999999999
    54   1      3.5949999999999993      46.734999999999999                 44.9375
    55   1      1.7974999999999997                 44.9375      48.532500000000006
    56   1      1.7974999999999997      46.734999999999999      50.330000000000005
    57   1      3.5949999999999993                 44.9375      50.330000000000005
    58   1      3.5949999999999993      46.734999999999999      48.532500000000006
    59   1      3.5949999999999993                 44.9375      53.925000000000011
    60   1      3.5949999999999993      46.734999999999999      52.127500000000012
    61   1      3.5949999999999993      48.532500000000006      35.950000000000003
    62   1      1.7974999999999997      50.330000000000005      39.545000000000002
    63   1      3.5949999999999993      48.532500000000006      39.545000000000002
    64   1      3.5949999999999993      50.330000000000005      37.747500000000009
    65   1      1.7974999999999997      48.532500000000006      41.342500000000008
    66   1      1.7974999999999997      50.330000000000005      43.140000000000008
    67   1      3.5949999999999993      48.532500000000006      43.140000000000008
    68   1      3.5949999999999993      50.330000000000005      41.342500000000008
    69   1      1.7974999999999997      48.532500000000006                 44.9375
    70   1      1.7974999999999997      50.330000000000005      46.734999999999999
    71   1      3.5949999999999993      48.532500000000006      46.734999999999999
    72   1      3.5949999999999993      50.330000000000005                 44.9375
    73   1      1.7974999999999997      48.532500000000006      48.532500000000006
    74   1      1.7974999999999997      50.330000000000005      50.330000000000005
    75   1      3.5949999999999993      48.532500000000006      50.330000000000005
    76   1      3.5949999999999993      50.330000000000005      48.532500000000006
    77   1      3.5949999999999993      48.532500000000006      53.925000000000011
    78   1      3.5949999999999993      50.330000000000005      52.127500000000012
    79   1      3.5949999999999993      52.127500000000012      35.950000000000003
    80   1      3.5949999999999993      52.127500000000012      39.545000000000002
    81   1      3.5949999999999993      53.925000000000011      37.747500000000009
    82   1      3.5949999999999993      52.127500000000012      43.140000000000008
    83   1      3.5949999999999993      53.925000000000011      41.342500000000008
    84   1      3.5949999999999993      52.127500000000012      46.734999999999999
    85   1      3.5949999999999993      53.925000000000011                 44.9375
    86   1      3.5949999999999993      52.127500000000012      50.330000000000005
    87   1      3.5949999999999993      53.925000000000011      48.532500000000006
    88   1      3.5949999999999993      52.127500000000012      53.925000000000011
    89   1      3.5949999999999993      53.925000000000011      52.127500000000012
    90   1      7.1899999999999986      28.760000000000002      30.557500000000005
    91   1      7.1899999999999986      28.760000000000002      34.152500000000003
    92   1      7.1899999999999986      28.760000000000002      37.747500000000009
    93   1      7.1899999999999986      28.760000000000002      41.342500000000008
    94   1      7.1899999999999986      28.760000000000002                 44.9375
    95   1      7.1899999999999986      28.760000000000002      48.532500000000006
    96   1      7.1899999999999986      28.760000000000002      52.127500000000012
    97   1      7.1899999999999986      28.760000000000002      55.722500000000011
    98   1      7.1899999999999986      28.760000000000002      59.317500000000003
    99   1      7.1899999999999986      30.557500000000005      28.760000000000002
   100   1      5.3924999999999983      32.355000000000011      32.355000000000011
   101   1      7.1899999999999986      30.557500000000005      32.355000000000011
   102   1      7.1899999999999986      32.355000000000011      30.557500000000005
   103   1      5.3924999999999983      32.355000000000011      35.950000000000003
   104   1      7.1899999999999986      30.557500000000005      35.950000000000003
   105   1      7.1899999999999986      32.355000000000011      34.152500000000003
   106   1      5.3924999999999983      32.355000000000011      39.545000000000002
   107   1      7.1899999999999986      30.557500000000005      39.545000000000002
   108   1      7.1899999999999986      32.355000000000011      37.747500000000009
   109   1      5.3924999999999983      32.355000000000011      43.140000000000008
   110   1      7.1899999999999986      30.557500000000005      43.140000000000008
   111   1      7.1899999999999986      32.355000000000011      41.342500000000008
   112   1      5.3924999999999983      32.355000000000011      46.734999999999999
   113   1      7.1899999999999986      30.557500000000005      46.734999999999999
   114   1      7.1899999999999986      32.355000000000011                 44.9375
   115   1      5.3924999999999983      32.355000000000011      50.330000000000005
   116   1      7.1899999999999986      30.557500000000005      50.330000000000005
   117   1      7.1899999999999986      32.355000000000011      48.532500000000006
   118   1      5.3924999999999983      32.355000000000011      53.925000000000011
   119   1      7.1899999999999986      30.557500000000005      53.925000000000011
   120   1      7.1899999999999986      32.355000000000011      52.127500000000012
   121   1      5.3924999999999983      32.355000000000011      57.520000000000003
   122   1      7.1899999999999986      30.557500000000005      57.520000000000003
   123   1      7.1899999999999986      32.355000000000011      55.722500000000011
   124   1      7.1899999999999986      30.557500000000005      61.115000000000009
   125   1      7.1899999999999986      32.355000000000011      59.317500000000003
   126   1      7.1899999999999986      34.152500000000003      28.760000000000002
   127   1      5.3924999999999983      35.950000000000003      32.355000000000011
   128   1      7.1899999999999986      34.152500000000003      32.355000000000011
   129   1      7.1899999999999986      35.950000000000003      30.557500000000005
   130   1      5.3924999999999983      34.152500000000003      34.152500000000003
   131   1      5.3924999999999983      35.950000000000003      35.950000000000003
   132   1      7.1899999999999986      34.152500000000003      35.950000000000003
   133   1      7.1899999999999986      35.950000000000003      34.152500000000003
   134   1      5.3924999999999983      34.152500000000003      37.747500000000009
   135   1      5.3924999999999983      35.950000000000003      39.545000000000002
   136   1      7.1899999999999986      34.152500000000003      39.545000000000002
   137   1      7.1899999999999986      35.950000000000003      37.747500000000009
   138   1      5.3924999999999983      34.152500000000003      41.342500000000008
   139   1      5.3924999999999983      35.950000000000003      43.140000000000008
   140   1      7.1899999999999986      34.152500000000003      43.140000000000008
   141   1      7.1899999999999986      35.950000000000003      41.342500000000008
   142   1      5.3924999999999983      34.152500000000003                 44.9375
   143   1      5.3924999999999983      35.950000000000003      46.734999999999999
   144   1      7.1899999999999986      34.152500000000003      46.734999999999999
   145   1      7.1899999999999986      35.950000000000003                 44.9375
   146   1      5.3924999999999983      34.152500000000003      48.532500000000006
   147   1      5.3924999999999983      35.950000000000003      50.330000000000005
   148   1      7.1899999999999986      34.152500000000003      50.330000000000005
   149   1      7.1899999999999986      35.950000000000003      48.532500000000006
   150   1      5.3924999999999983      34.152500000000003      52.127500000000012
   151   1      5.3924999999999983      35.950000000000003      53.925000000000011
   152   1      7.1899999999999986      34.152500000000003      53.925000000000011
   153   1      7.1899999999999986      35.950000000000003      52.127500000000012
   154   1      5.3924999999999983      34.152500000000003      55.722500000000011
   155   1      5.3924999999999983      35.950000000000003      57.520000000000003
   156   1      7.1899999999999986      34.152500000000003      57.520000000000003
   157   1      7.1899999999999986      35.950000000000003      55.722500000000011
   158   1      7.1899999999999986      34.152500000000003      61.115000000000009
   159   1      7.1899999999999986      35.950000000000003      59.317500000000003
   160   1      7.1899999999999986      37.747500000000009      28.760000000000002
   161   1      5.3924999999999983      39.545000000000002      32.355000000000011
   162   1      7.1899999999999986      37.747500000000009      32.355000000000011
   163   1      7.1899999999999986      39.545000000000002      30.557500000000005
   164   1      5.3924999999999983      37.747500000000009      34.152500000000003
   165   1      5.3924999999999983      39.545000000000002      35.950000000000003
   166   1      7.1899999999999986      37.747500000000009      35.950000000000003
   167   1      7.1899999999999986      39.545000000000002      34.152500000000003
   168   1      5.3924999999999983      37.747500000000009      37.747500000000009
   169   1      5.3924999999999983      39.545000000000002      39.545000000000002
   170   1      7.1899999999999986      37.747500000000009      39.545000000000002
   171   1      7.1899999999999986      39.545000000000002      37.747500000000009
   172   1      5.3924999999999983      37.747500000000009      41.342500000000008
   173   1      5.3924999999999983      39.545000000000002      43.140000000000008
   174   1      7.1899999999999986      37.747500000000009      43.140000000000008
   175   1      7.1899999999999986      39.545000000000002      41.342500000000008
   176   1      5.3924999999999983      37.747500000000009                 44.9375
   177   1      5.3924999999999983      39.545000000000002      46.734999999999999
   178   1      7.1899999999999986      37.747500000000009      46.734999999999999
   179   1      7.1899999999999986      39.545000000000002                 44.9375
   180   1      5.3924999999999983      37.747500000000009      48.532500000000006
   181   1      5.3924999999999983      39.545000000000002      50.330000000000005
   182   1      7.1899999999999986      37.747500000000009      50.330000000000005
   183   1      7.1899999999999986      39.545000000000002      48.532500000000006
   184   1      5.3924999999999983      37.747500000000009      52.127500000000012
   185   1      5.3924999999999983      39.545000000000002      53.925000000000011
   186   1      7.1899999999999986      37.747500000000009      53.925000000000011
   187   1      7.1899999999999986      39.545000000000002      52.127500000000012
   188   1      5.3924999999999983      37.747500000000009      55.722500000000011
   189   1      5.3924999999999983      39.545000000000002      57.520000000000003
   190   1      7.1899999999999986      37.747500000000009      57.520000000000003
   191   1      7.1899999999999986      39.545000000000002      55.722500000000011
   192   1      7.1899999999999986      37.747500000000009      61.115000000000009
   193   1      7.1899999999999986      39.545000000000002      59.317500000000003
   194   1      7.1899999999999986      41.342500000000008      28.760000000000002
   195   1      5.3924999999999983      43.140000000000008      32.355000000000011
   196   1      7.1899999999999986      41.342500000000008      32.355000000000011
   197   1      7.1899999999999986      43.140000000000008      30.557500000000005
   198   1      5.3924999999999983      41.342500000000008      34.152500000000003
   199   1      5.3924999999999983      43.140000000000008      35.950000000000003
   200   1      7.1899999999999986      41.342500000000008      35.950000000000003
   201   1      7.1899999999999986      43.140000000000008      34.152500000000003
   202   1      5.3924999999999983      41.342500000000008      37.747500000000009
   203   1      5.3924999999999983      43.140000000000008      39.545000000000002
   204   1      7.1899999999999986      41.342500000000008      39.545000000000002
   205   1      7.1899999999999986      43.140000000000008      37.747500000000009
   206   1      5.3924999999999983      41.342500000000008      41.342500000000008
   207   1      5.3924999999999983      43.140000000000008      43.140000000000008
   208   1      7.1899999999999986      41.342500000000008      43.140000000000008
   209   1      7.1899999999999986      43.140000000000008      41.342500000000008
   210   1      5.3924999999999983      41.342500000000008                 44.9375
   211   1      5.3924999999999983      43.140000000000008      46.734999999999999
   212   1      7.1899999999999986      41.342500000000008      46.734999999999999
   213   1      7.1899999999999986      43.140000000000008                 44.9375
   214   1      5.3924999999999983      41.342500000000008      48.532500000000006
   215   1      5.3924999999999983      43.140000000000008      50.330000000000005
   216   1      7.1899999999999986      41.342500000000008      50.330000000000005
   217   1      7.1899999999999986      43.140000000000008      48.532500000000006
   218   1      5.3924999999999983      41.342500000000008      52.127500000000012
   219   1      5.3924999999999983      43.140000000000008      53.925000000000011
   220   1      7.1899999999999986      41.342500000000008      53.925000000000011
   221   1      7.1899999999999986      43.140000000000008      52.127500000000012
   222   1      5.3924999999999983      41.342500000000008      55.722500000000011
   223   1      5.3924999999999983      43.140000000000008      57.520000000000003
   224   1      7.1899999999999986      41.342500000000008      57.520000000000003
   225   1      7.1899999999999986      43.140000000000008      55.722500000000011
   226   1      7.1899999999999986      41.342500000000008      61.115000000000009
   227   1      7.1899999999999986      43.140000000000008      59.317500000000003
   228   1      7.1899999999999986                 44.9375      28.760000000000002
   229   1      5.3924999999999983      46.734999999999999      32.355000000000011
   230   1      7.1899999999999986                 44.9375      32.355000000000011
   231   1      7.1899999999999986      46.734999999999999      30.557500000000005
   232   1      5.3924999999999983                 44.9375      34.152500000000003
   233   1      5.3924999999999983      46.734999999999999      35.950000000000003
   234   1      7.1899999999999986                 44.9375      35.950000000000003
   235   1      7.1899999999999986      46.734999999999999      34.152500000000003
   236   1      5.3924999999999983                 44.9375      37.747500000000009
   237   1      5.3924999999999983      46.734999999999999      39.545000000000002
   238   1      7.1899999999999986                 44.9375      39.545000000000002
   239   1      7.1899999999999986      46.734999999999999      37.747500000000009
   240   1      5.3924999999999983                 44.9375      41.342500000000008
   241   1      5.3924999999999983      46.734999999999999      43.140000000000008
   242   1      7.1899999999999986                 44.9375      43.140000000000008
   243   1      7.1899999999999986      46.734999999999999      41.342500000000008
   244   1      5.3924999999999983                 44.9375                 44.9375
   245   1      5.3924999999999983      46.734999999999999      46.734999999999999
   246   1      7.1899999999999986                 44.9375      46.734999999999999
   247   1      7.1899999999999986      46.734999999999999                 44.9375
   248   1      5.3924999999999983                 44.9375      48.532500000000006
   249   1      5.3924999999999983      46.734999999999999      50.330000000000005
   250   1      7.1899999999999986                 44.9375      50.330000000000005
   251   1      7.1899999999999986      46.734999999999999      48.532500000000006
   252   1      5.3924999999999983                 44.9375      52.127500000000012
   253   1      5.3924999999999983      46.734999999999999      53.925000000000011
   254   1      7.1899999999999986                 44.9375      53.925000000000011
   255   1      7.1899999999999986      46.734999999999999      52.127500000000012
   256   1      5.3924999999999983                 44.9375      55.722500000000011
   257   1      5.3924999999999983      46.734999999999999      57.520000000000003
   258   1      7.1899999999999986                 44.9375      57.520000000000003
   259   1      7.1899999999999986      46.734999999999999      55.722500000000011
   260   1      7.1899999999999986                 44.9375      61.115000000000009
   261   1      7.1899999999999986      46.734999999999999      59.317500000000003
   262   1      7.1899999999999986      48.532500000000006      28.760000000000002
   263   1      5.3924999999999983      50.330000000000005      32.355000000000011
   264   1      7.1899999999999986      48.532500000000006      32.355000000000011
   265   1      7.1899999999999986      50.330000000000005      30.557500000000005
   266   1      5.3924999999999983      48.532500000000006      34.152500000000003
   267   1      5.3924999999999983      50.330000000000005      35.950000000000003
   268   1      7.1899999999999986      48.532500000000006      35.950000000000003
   269   1      7.1899999999999986      50.330000000000005      34.152500000000003
   270   1      5.3924999999999983      48.532500000000006      37.747500000000009
   271   1      5.3924999999999983      50.330000000000005      39.545000000000002
   272   1      7.1899999999999986      48.532500000000006      39.545000000000002
   273   1      7.1899999999999986      50.330000000000005      37.747500000000009
   274   1      5.3924999999999983      48.532500000000006      41.342500000000008
   275   1      5.3924999999999983      50.330000000000005      43.140000000000008
   276   1      7.1899999999999986      48.532500000000006      43.140000000000008
   277   1      7.1899999999999986      50.330000000000005      41.342500000000008
   278   1      5.3924999999999983      48.532500000000006                 44.9375
   279   1      5.3924999999999983      50.330000000000005      46.734999999999999
   280   1      7.1899999999999986      48.532500000000006      46.734999999999999
   281   1      7.1899999999999986      50.330000000000005                 44.9375
   282   1      5.3924999999999983      48.532500000000006      48.532500000000006
   283   1      5.3924999999999983      50.330000000000005      50.330000000000005
   284   1      7.1899999999999986      48.532500000000006      50.330000000000005
   285   1      7.1899999999999986      50.330000000000005      48.532500000000006
   286   1      5.3924999999999983      48.532500000000006      52.127500000000012
   287   1      5.3924999999999983      50.330000000000005      53.925000000000011
   288   1      7.1899999999999986      48.532500000000006      53.925000000000011
   289   1      7.1899999999999986      50.330000000000005      52.127500000000012
   290   1      5.3924999999999983      48.532500000000006      55.722500000000011
   291   1      5.3924999999999983      50.330000000000005      57.520000000000003
   292   1      7.1899999999999986      48.532500000000006      57.520000000000003
   293   1      7.1899999999999986      50.330000000000005      55.722500000000011
   294   1      7.1899999999999986      48.532500000000006      61.115000000000009
   295   1      7.1899999999999986      50.330000000000005      59.317500000000003
   296   1      7.1899999999999986      52.127500000000012      28.760000000000002
   297   1      5.3924999999999983      53.925000000000011      32.355000000000011
   298   1      7.1899999999999986      52.127500000000012      32.355000000000011
   299   1      7.1899999999999986      53.925000000000011      30.557500000000005
   300   1      5.3924999999999983      52.127500000000012      34.152500000000003
   301   1      5.3924999999999983      53.925000000000011      35.950000000000003
   302   1      7.1899999999999986      52.127500000000012      35.950000000000003
   303   1      7.1899999999999986      53.925000000000011      34.152500000000003
   304   1      5.3924999999999983      52.127500000000012      37.747500000000009
   305   1      5.3924999999999983      53.925000000000011      39.545000000000002
   306   1      7.1899999999999986      52.127500000000012      39.545000000000002
   307   1      7.1899999999999986      53.925000000000011      37.747500000000009
   308   1      5.3924999999999983      52.127500000000012      41.342500000000008
   309   1      5.3924999999999983      53.925000000000011      43.140000000000008
   310   1      7.1899999999999986      52.127500000000012      43.140000000000008
   311   1      7.1899999999999986      53.925000000000011      41.342500000000008
   312   1      5.3924999999999983      52.127500000000012                 44.9375
   313   1      5.3924999999999983      53.925000000000011      46.734999999999999
   314   1      7.1899999999999986      52.127500000000012      46.734999999999999
   315   1      7.1899999999999986      53.925000000000011                 44.9375
   316   1      5.3924999999999983      52.127500000000012      48.532500000000006
   317   1      5.3924999999999983      53.925000000000011      50.330000000000005
   318   1      7.1899999999999986      52.127500000000012      50.330000000000005
   319   1      7.1899999999999986      53.925000000000011      48.532500000000006
   320   1      5.3924999999999983      52.127500000000012      52.127500000000012
   321   1      5.3924999999999983      53.925000000000011      53.925000000000011
   322   1      7.1899999999999986      52.127500000000012      53.925000000000011
   323   1      7.1899999999999986      53.925000000000011      52.127500000000012
   324   1      5.3924999999999983      52.127500000000012      55.722500000000011
   325   1      5.3924999999999983      53.925000000000011      57.520000000000003
   326   1      7.1899999999999986      52.127500000000012      57.520000000000003
   327   1      7.1899999999999986      53.925000000000011      55.722500000000011
   328   1      7.1899999999999986      52.127500000000012      61.115000000000009
   329   1      7.1899999999999986      53.925000000000011      59.317500000000003
   330   1      7.1899999999999986      55.722500000000011      28.760000000000002
   331   1      5.3924999999999983      57.520000000000003      32.355000000000011
   332   1      7.1899999999999986      55.722500000000011      32.355000000000011
   333   1      7.1899999999999986      57.520000000000003      30.557500000000005
   334   1      5.3924999999999983      55.722500000000011      34.152500000000003
   335   1      5.3924999999999983      57.520000000000003      35.950000000000003
   336   1      7.1899999999999986      55.722500000000011      35.950000000000003
   337   1      7.1899999999999986      57.520000000000003      34.152500000000003
   338   1      5.3924999999999983      55.722500000000011      37.747500000000009
   339   1      5.3924999999999983      57.520000000000003      39.545000000000002
   340   1      7.1899999999999986      55.722500000000011      39.545000000000002
   341   1      7.1899999999999986      57.520000000000003      37.747500000000009
   342   1      5.3924999999999983      55.722500000000011      41.342500000000008
   343   1      5.3924999999999983      57.520000000000003      43.140000000000008
   344   1      7.1899999999999986      55.722500000000011      43.140000000000008
   345   1      7.1899999999999986      57.520000000000003      41.342500000000008
   346   1      5.3924999999999983      55.722500000000011                 44.9375
   347   1      5.3924999999999983      57.520000000000003      46.734999999999999
   348   1      7.1899999999999986      55.722500000000011      46.734999999999999
   349   1      7.1899999999999986      57.520000000000003                 44.9375
   350   1      5.3924999999999983      55.722500000000011      48.532500000000006
   351   1      5.3924999999999983      57.520000000000003      50.330000000000005
   352   1      7.1899999999999986      55.722500000000011      50.330000000000005
   353   1      7.1899999999999986      57.520000000000003      48.532500000000006
   354   1      5.3924999999999983      55.722500000000011      52.127500000000012
   355   1      5.3924999999999983      57.520000000000003      53.925000000000011
   356   1      7.1899999999999986      55.722500000000011      53.925000000000011
   357   1      7.1899999999999986      57.520000000000003      52.127500000000012
   358   1      5.3924999999999983      55.722500000000011      55.722500000000011