LAMMPS data file via write_data, version 30 Nov 2020, timestep = 0

30085 atoms
5 atom types

0 105 xlo xhi
0 105 ylo yhi
0 105 zlo zhi

Masses

1 58.7
2 55.8
3 52
4 59
5 63

Atoms # atomic

1 4 0 49.980000000000004 51.76500000000001 0 0 0
2 5 0 51.76500000000001 49.980000000000004 0 0 0
5 4 3.5700000000000003 46.410000000000004 51.76500000000001 0 0 0
6 5 1.7850000000000037 49.980000000000004 49.980000000000004 0 0 0
7 4 3.5700000000000003 48.195 49.980000000000004 0 0 0
8 3 3.5700000000000003 49.980000000000004 48.195 0 0 0
9 2 1.7850000000000037 48.195 51.76500000000001 0 0 0
12 5 3.5700000000000003 49.980000000000004 51.76500000000001 0 0 0
14 5 3.5700000000000003 51.76500000000001 46.410000000000004 0 0 0
15 1 1.7850000000000037 51.76500000000001 48.195 0 0 0
17 3 3.5700000000000003 51.76500000000001 49.980000000000004 0 0 0
19 2 1.7850000000000037 51.76500000000001 51.76500000000001 0 0 0
30 3 7.140000000000001 39.27 51.76500000000001 0 0 0
31 1 5.355000000000005 42.84 49.980000000000004 0 0 0
32 4 7.140000000000001 41.055 49.980000000000004 0 0 0
33 4 7.140000000000001 42.84 48.195 0 0 0
34 4 5.355000000000005 41.055 51.76500000000001 0 0 0
37 4 7.140000000000001 42.84 51.76500000000001 0 0 0
39 5 5.355000000000005 46.410000000000004 46.410000000000004 0 0 0
40 4 7.140000000000001 44.62500000000001 46.410000000000004 0 0 0
41 3 7.140000000000001 46.410000000000004 44.62500000000001 0 0 0
42 1 5.355000000000005 44.62500000000001 48.195 0 0 0
43 2 5.355000000000005 46.410000000000004 49.980000000000004 0 0 0
44 5 7.140000000000001 44.62500000000001 49.980000000000004 0 0 0
45 4 7.140000000000001 46.410000000000004 48.195 0 0 0
46 4 5.355000000000005 44.62500000000001 51.76500000000001 0 0 0
49 2 7.140000000000001 46.410000000000004 51.76500000000001 0 0 0
55 3 5.355000000000005 49.980000000000004 42.84 0 0 0
56 5 7.140000000000001 48.195 42.84 0 0 0
57 4 7.140000000000001 49.980000000000004 41.055 0 0 0
58 3 5.355000000000005 48.195 44.62500000000001 0 0 0
59 1 5.355000000000005 49.980000000000004 46.410000000000004 0 0 0
60 4 7.140000000000001 48.195 46.410000000000004 0 0 0
61 4 7.140000000000001 49.980000000000004 44.62500000000001 0 0 0
62 4 5.355000000000005 48.195 48.195 0 0 0
63 1 5.355000000000005 49.980000000000004 49.980000000000004 0 0 0
64 3 7.140000000000001 48.195 49.980000000000004 0 0 0
65 3 7.140000000000001 49.980000000000004 48.195 0 0 0
66 3 5.355000000000005 48.195 51.76500000000001 0 0 0
69 2 7.140000000000001 49.980000000000004 51.76500000000001 0 0 0
79 5 7.140000000000001 51.76500000000001 39.27 0 0 0
80 5 5.355000000000005 51.76500000000001 41.055 0 0 0
82 3 7.140000000000001 51.76500000000001 42.84 0 0 0
84 2 5.355000000000005 51.76500000000001 44.62500000000001 0 0 0
86 1 7.140000000000001 51.76500000000001 46.410000000000004 0 0 0
88 5 5.355000000000005 51.76500000000001 48.195 0 0 0
90 5 7.140000000000001 51.76500000000001 49.980000000000004 0 0 0
92 5 5.355000000000005 51.76500000000001 51.76500000000001 0 0 0
143 5 10.710000000000003 32.13 51.76500000000001 0 0 0
144 5 10.710000000000003 33.915 49.980000000000004 0 0 0
145 1 10.710000000000003 35.699999999999996 48.195 0 0 0
147 2 10.710000000000003 35.699999999999996 51.76500000000001 0 0 0
149 3 10.710000000000003 37.48500000000001 46.410000000000004 0 0 0
150 3 10.710000000000003 39.27 44.62500000000001 0 0 0
151 3 8.925000000000004 39.27 49.980000000000004 0 0 0
152 2 10.710000000000003 37.48500000000001 49.980000000000004 0 0 0
153 4 10.710000000000003 39.27 48.195 0 0 0
154 2 8.925000000000004 37.48500000000001 51.76500000000001 0 0 0
157 4 10.710000000000003 39.27 51.76500000000001 0 0 0
161 2 10.710000000000003 41.055 42.84 0 0 0
162 5 10.710000000000003 42.84 41.055 0 0 0
163 5 8.925000000000004 42.84 46.410000000000004 0 0 0
164 3 10.710000000000003 41.055 46.410000000000004 0 0 0
165 1 10.710000000000003 42.84 44.62500000000001 0 0 0
166 4 8.925000000000004 41.055 48.195 0 0 0
167 2 8.925000000000004 42.84 49.980000000000004 0 0 0
168 5 10.710000000000003 41.055 49.980000000000004 0 0 0
169 1 10.710000000000003 42.84 48.195 0 0 0
170 2 8.925000000000004 41.055 51.76500000000001 0 0 0
173 3 10.710000000000003 42.84 51.76500000000001 0 0 0
181 3 10.710000000000003 44.62500000000001 39.27 0 0 0
182 2 10.710000000000003 46.410000000000004 37.48500000000001 0 0 0
183 4 8.925000000000004 46.410000000000004 42.84 0 0 0
184 2 10.710000000000003 44.62500000000001 42.84 0 0 0
185 1 10.710000000000003 46.410000000000004 41.055 0 0 0
186 4 8.925000000000004 44.62500000000001 44.62500000000001 0 0 0
187 2 8.925000000000004 46.410000000000004 46.410000000000004 0 0 0
188 3 10.710000000000003 44.62500000000001 46.410000000000004 0 0 0
189 2 10.710000000000003 46.410000000000004 44.62500000000001 0 0 0
190 2 8.925000000000004 44.62500000000001 48.195 0 0 0
191 4 8.925000000000004 46.410000000000004 49.980000000000004 0 0 0
192 3 10.710000000000003 44.62500000000001 49.980000000000004 0 0 0
193 4 10.710000000000003 46.410000000000004 48.195 0 0 0
194 5 8.925000000000004 44.62500000000001 51.76500000000001 0 0 0
197 3 10.710000000000003 46.410000000000004 51.76500000000001 0 0 0
209 3 10.710000000000003 48.195 35.699999999999996 0 0 0
210 2 10.710000000000003 49.980000000000004 33.915 0 0 0
211 2 8.925000000000004 49.980000000000004 39.27 0 0 0
212 2 10.710000000000003 48.195 39.27 0 0 0
213 2 10.710000000000003 49.980000000000004 37.48500000000001 0 0 0
214 1 8.925000000000004 48.195 41.055 0 0 0
215 3 8.925000000000004 49.980000000000004 42.84 0 0 0
216 2 10.710000000000003 48.195 42.84 0 0 0
217 5 10.710000000000003 49.980000000000004 41.055 0 0 0
218 5 8.925000000000004 48.195 44.62500000000001 0 0 0
219 4 8.925000000000004 49.980000000000004 46.410000000000004 0 0 0
220 2 10.710000000000003 48.195 46.410000000000004 0 0 0
221 1 10.710000000000003 49.980000000000004 44.62500000000001 0 0 0
222 5 8.925000000000004 48.195 48.195 0 0 0
223 4 8.925000000000004 49.980000000000004 49.980000000000004 0 0 0
224 4 10.710000000000003 48.195 49.980000000000004 0 0 0
225 3 10.710000000000003 49.980000000000004 48.195 0 0 0
226 2 8.925000000000004 48.195 51.76500000000001 0 0 0
229 4 10.710000000000003 49.980000000000004 51.76500000000001 0 0 0
245 5 10.710000000000003 51.76500000000001 32.13 0 0 0
246 5 10.710000000000003 51.76500000000001 35.699999999999996 0 0 0
248 5 8.925000000000004 51.76500000000001 37.48500000000001 0 0 0
250 2 10.710000000000003 51.76500000000001 39.27 0 0 0
252 3 8.925000000000004 51.76500000000001 41.055 0 0 0
254 2 10.710000000000003 51.76500000000001 42.84 0 0 0
256 3 8.925000000000004 51.76500000000001 44.62500000000001 0 0 0
258 2 10.710000000000003 51.76500000000001 46.410000000000004 0 0 0
260 4 8.925000000000004 51.76500000000001 48.195 0 0 0
262 1 10.710000000000003 51.76500000000001 49.980000000000004 0 0 0
264 2 8.925000000000004 51.76500000000001 51.76500000000001 0 0 0
368 5 14.280000000000001 28.560000000000002 51.76500000000001 0 0 0
369 3 12.495000000000005 32.13 49.980000000000004 0 0 0
370 2 14.280000000000001 30.345000000000002 49.980000000000004 0 0 0
371 3 14.280000000000001 32.13 48.195 0 0 0
372 4 12.495000000000005 30.345000000000002 51.76500000000001 0 0 0
375 2 14.280000000000001 32.13 51.76500000000001 0 0 0
377 2 12.495000000000005 35.699999999999996 46.410000000000004 0 0 0
378 2 14.280000000000001 33.915 46.410000000000004 0 0 0
379 5 14.280000000000001 35.699999999999996 44.62500000000001 0 0 0
380 4 12.495000000000005 33.915 48.195 0 0 0
381 2 12.495000000000005 35.699999999999996 49.980000000000004 0 0 0
382 1 14.280000000000001 33.915 49.980000000000004 0 0 0
383 4 14.280000000000001 35.699999999999996 48.195 0 0 0
384 5 12.495000000000005 33.915 51.76500000000001 0 0 0
387 3 14.280000000000001 35.699999999999996 51.76500000000001 0 0 0
393 2 12.495000000000005 39.27 42.84 0 0 0
394 1 14.280000000000001 37.48500000000001 42.84 0 0 0
395 4 14.280000000000001 39.27 41.055 0 0 0
396 3 12.495000000000005 37.48500000000001 44.62500000000001 0 0 0
397 4 12.495000000000005 39.27 46.410000000000004 0 0 0
398 3 14.280000000000001 37.48500000000001 46.410000000000004 0 0 0
399 2 14.280000000000001 39.27 44.62500000000001 0 0 0
400 5 12.495000000000005 37.48500000000001 48.195 0 0 0
401 4 12.495000000000005 39.27 49.980000000000004 0 0 0
402 4 14.280000000000001 37.48500000000001 49.980000000000004 0 0 0
403 3 14.280000000000001 39.27 48.195 0 0 0
404 5 12.495000000000005 37.48500000000001 51.76500000000001 0 0 0
407 4 14.280000000000001 39.27 51.76500000000001 0 0 0
417 1 12.495000000000005 42.84 39.27 0 0 0
418 5 14.280000000000001 41.055 39.27 0 0 0
419 2 14.280000000000001 42.84 37.48500000000001 0 0 0
420 5 12.495000000000005 41.055 41.055 0 0 0
421 1 12.495000000000005 42.84 42.84 0 0 0
422 2 14.280000000000001 41.055 42.84 0 0 0
423 3 14.280000000000001 42.84 41.055 0 0 0
424 2 12.495000000000005 41.055 44.62500000000001 0 0 0
425 5 12.495000000000005 42.84 46.410000000000004 0 0 0
426 2 14.280000000000001 41.055 46.410000000000004 0 0 0
427 5 14.280000000000001 42.84 44.62500000000001 0 0 0
428 3 12.495000000000005 41.055 48.195 0 0 0
429 5 12.495000000000005 42.84 49.980000000000004 0 0 0
430 2 14.280000000000001 41.055 49.980000000000004 0 0 0
431 4 14.280000000000001 42.84 48.195 0 0 0
432 4 12.495000000000005 41.055 51.76500000000001 0 0 0
435 1 14.280000000000001 42.84 51.76500000000001 0 0 0
449 2 12.495000000000005 46.410000000000004 35.699999999999996 0 0 0
450 5 14.280000000000001 44.62500000000001 35.699999999999996 0 0 0
451 4 14.280000000000001 46.410000000000004 33.915 0 0 0
452 4 12.495000000000005 44.62500000000001 37.48500000000001 0 0 0
453 5 12.495000000000005 46.410000000000004 39.27 0 0 0
454 1 14.280000000000001 44.62500000000001 39.27 0 0 0
455 2 14.280000000000001 46.410000000000004 37.48500000000001 0 0 0
456 4 12.495000000000005 44.62500000000001 41.055 0 0 0
457 4 12.495000000000005 46.410000000000004 42.84 0 0 0
458 4 14.280000000000001 44.62500000000001 42.84 0 0 0
459 5 14.280000000000001 46.410000000000004 41.055 0 0 0
460 3 12.495000000000005 44.62500000000001 44.62500000000001 0 0 0
461 2 12.495000000000005 46.410000000000004 46.410000000000004 0 0 0
462 1 14.280000000000001 44.62500000000001 46.410000000000004 0 0 0
463 2 14.280000000000001 46.410000000000004 44.62500000000001 0 0 0
464 1 12.495000000000005 44.62500000000001 48.195 0 0 0
465 5 12.495000000000005 46.410000000000004 49.980000000000004 0 0 0
466 1 14.280000000000001 44.62500000000001 49.980000000000004 0 0 0
467 2 14.280000000000001 46.410000000000004 48.195 0 0 0
468 4 12.495000000000005 44.62500000000001 51.76500000000001 0 0 0
471 2 14.280000000000001 46.410000000000004 51.76500000000001 0 0 0
489 5 12.495000000000005 49.980000000000004 32.13 0 0 0
490 4 14.280000000000001 48.195 32.13 0 0 0
491 3 14.280000000000001 49.980000000000004 30.345000000000002 0 0 0
492 5 12.495000000000005 48.195 33.915 0 0 0
493 4 12.495000000000005 49.980000000000004 35.699999999999996 0 0 0
494 3 14.280000000000001 48.195 35.699999999999996 0 0 0
495 3 14.280000000000001 49.980000000000004 33.915 0 0 0
496 3 12.495000000000005 48.195 37.48500000000001 0 0 0
497 1 12.495000000000005 49.980000000000004 39.27 0 0 0
498 2 14.280000000000001 48.195 39.27 0 0 0
499 5 14.280000000000001 49.980000000000004 37.48500000000001 0 0 0
500 3 12.495000000000005 48.195 41.055 0 0 0
501 2 12.495000000000005 49.980000000000004 42.84 0 0 0
502 2 14.280000000000001 48.195 42.84 0 0 0
503 3 14.280000000000001 49.980000000000004 41.055 0 0 0
504 3 12.495000000000005 48.195 44.62500000000001 0 0 0
505 4 12.495000000000005 49.980000000000004 46.410000000000004 0 0 0
506 5 14.280000000000001 48.195 46.410000000000004 0 0 0
507 1 14.280000000000001 49.980000000000004 44.62500000000001 0 0 0
508 4 12.495000000000005 48.195 48.195 0 0 0
509 4 12.495000000000005 49.980000000000004 49.980000000000004 0 0 0
510 3 14.280000000000001 48.195 49.980000000000004 0 0 0
511 1 14.280000000000001 49.980000000000004 48.195 0 0 0
512 5 12.495000000000005 48.195 51.76500000000001 0 0 0
515 4 14.280000000000001 49.980000000000004 51.76500000000001 0 0 0
537 2 14.280000000000001 51.76500000000001 28.560000000000002 0 0 0
538 5 12.495000000000005 51.76500000000001 30.345000000000002 0 0 0
540 4 14.280000000000001 51.76500000000001 32.13 0 0 0
542 4 12.495000000000005 51.76500000000001 33.915 0 0 0
544 2 14.280000000000001 51.76500000000001 35.699999999999996 0 0 0
546 2 12.495000000000005 51.76500000000001 37.48500000000001 0 0 0
548 5 14.280000000000001 51.76500000000001 39.27 0 0 0
550 2 12.495000000000005 51.76500000000001 41.055 0 0 0
552 5 14.280000000000001 51.76500000000001 42.84 0 0 0
554 4 12.495000000000005 51.76500000000001 44.62500000000001 0 0 0
556 1 14.280000000000001 51.76500000000001 46.410000000000004 0 0 0
558 3 12.495000000000005 51.76500000000001 48.195 0 0 0
560 2 14.280000000000001 51.76500000000001 49.980000000000004 0 0 0
562 3 12.495000000000005 51.76500000000001 51.76500000000001 0 0 0
733 1 17.850000000000005 21.420000000000005 51.76500000000001 0 0 0
734 4 16.065 24.990000000000006 49.980000000000004 0 0 0
735 3 17.850000000000005 23.205000000000002 49.980000000000004 0 0 0
736 2 17.850000000000005 24.990000000000006 48.195 0 0 0
737 1 16.065 23.205000000000002 51.76500000000001 0 0 0
740 5 17.850000000000005 24.990000000000006 51.76500000000001 0 0 0
742 5 16.065 28.560000000000002 46.410000000000004 0 0 0
743 3 17.850000000000005 26.775000000000006 46.410000000000004 0 0 0
744 1 17.850000000000005 28.560000000000002 44.62500000000001 0 0 0
745 2 16.065 26.775000000000006 48.195 0 0 0
746 5 16.065 28.560000000000002 49.980000000000004 0 0 0
747 2 17.850000000000005 26.775000000000006 49.980000000000004 0 0 0
748 1 17.850000000000005 28.560000000000002 48.195 0 0 0
749 4 16.065 26.775000000000006 51.76500000000001 0 0 0
752 5 17.850000000000005 28.560000000000002 51.76500000000001 0 0 0
758 4 16.065 32.13 42.84 0 0 0
759 4 17.850000000000005 30.345000000000002 42.84 0 0 0
760 5 17.850000000000005 32.13 41.055 0 0 0
761 3 16.065 30.345000000000002 44.62500000000001 0 0 0
762 5 16.065 32.13 46.410000000000004 0 0 0
763 2 17.850000000000005 30.345000000000002 46.410000000000004 0 0 0
764 5 17.850000000000005 32.13 44.62500000000001 0 0 0
765 1 16.065 30.345000000000002 48.195 0 0 0
766 2 16.065 32.13 49.980000000000004 0 0 0
767 5 17.850000000000005 30.345000000000002 49.980000000000004 0 0 0
768 4 17.850000000000005 32.13 48.195 0 0 0
769 4 16.065 30.345000000000002 51.76500000000001 0 0 0
772 5 17.850000000000005 32.13 51.76500000000001 0 0 0
782 4 16.065 35.699999999999996 39.27 0 0 0
783 4 17.850000000000005 33.915 39.27 0 0 0
784 2 17.850000000000005 35.699999999999996 37.48500000000001 0 0 0
785 4 16.065 33.915 41.055 0 0 0
786 3 16.065 35.699999999999996 42.84 0 0 0
787 1 17.850000000000005 33.915 42.84 0 0 0
788 1 17.850000000000005 35.699999999999996 41.055 0 0 0
789 3 16.065 33.915 44.62500000000001 0 0 0
790 3 16.065 35.699999999999996 46.410000000000004 0 0 0
791 1 17.850000000000005 33.915 46.410000000000004 0 0 0
792 3 17.850000000000005 35.699999999999996 44.62500000000001 0 0 0
793 5 16.065 33.915 48.195 0 0 0
794 1 16.065 35.699999999999996 49.980000000000004 0 0 0
795 5 17.850000000000005 33.915 49.980000000000004 0 0 0
796 3 17.850000000000005 35.699999999999996 48.195 0 0 0
797 5 16.065 33.915 51.76500000000001 0 0 0
800 5 17.850000000000005 35.699999999999996 51.76500000000001 0 0 0
814 4 16.065 39.27 35.699999999999996 0 0 0
815 2 17.850000000000005 37.48500000000001 35.699999999999996 0 0 0
816 5 17.850000000000005 39.27 33.915 0 0 0
817 5 16.065 37.48500000000001 37.48500000000001 0 0 0
818 5 16.065 39.27 39.27 0 0 0
819 5 17.850000000000005 37.48500000000001 39.27 0 0 0
820 1 17.850000000000005 39.27 37.48500000000001 0 0 0
821 3 16.065 37.48500000000001 41.055 0 0 0
822 4 16.065 39.27 42.84 0 0 0
823 2 17.850000000000005 37.48500000000001 42.84 0 0 0
824 4 17.850000000000005 39.27 41.055 0 0 0
825 3 16.065 37.48500000000001 44.62500000000001 0 0 0
826 4 16.065 39.27 46.410000000000004 0 0 0
827 2 17.850000000000005 37.48500000000001 46.410000000000004 0 0 0
828 4 17.850000000000005 39.27 44.62500000000001 0 0 0
829 5 16.065 37.48500000000001 48.195 0 0 0
830 5 16.065 39.27 49.980000000000004 0 0 0
831 3 17.850000000000005 37.48500000000001 49.980000000000004 0 0 0
832 1 17.850000000000005 39.27 48.195 0 0 0
833 2 16.065 37.48500000000001 51.76500000000001 0 0 0
836 1 17.850000000000005 39.27 51.76500000000001 0 0 0
854 2 16.065 42.84 32.13 0 0 0
855 5 17.850000000000005 41.055 32.13 0 0 0
856 4 17.850000000000005 42.84 30.345000000000002 0 0 0
857 2 16.065 41.055 33.915 0 0 0
858 4 16.065 42.84 35.699999999999996 0 0 0
859 1 17.850000000000005 41.055 35.699999999999996 0 0 0
860 1 17.850000000000005 42.84 33.915 0 0 0
861 2 16.065 41.055 37.48500000000001 0 0 0
862 4 16.065 42.84 39.27 0 0 0
863 3 17.850000000000005 41.055 39.27 0 0 0
864 3 17.850000000000005 42.84 37.48500000000001 0 0 0
865 1 16.065 41.055 41.055 0 0 0
866 1 16.065 42.84 42.84 0 0 0
867 3 17.850000000000005 41.055 42.84 0 0 0
868 2 17.850000000000005 42.84 41.055 0 0 0
869 3 16.065 41.055 44.62500000000001 0 0 0
870 1 16.065 42.84 46.410000000000004 0 0 0
871 3 17.850000000000005 41.055 46.410000000000004 0 0 0
872 4 17.850000000000005 42.84 44.62500000000001 0 0 0
873 3 16.065 41.055 48.195 0 0 0
874 3 16.065 42.84 49.980000000000004 0 0 0
875 4 17.850000000000005 41.055 49.980000000000004 0 0 0
876 2 17.850000000000005 42.84 48.195 0 0 0
877 4 16.065 41.055 51.76500000000001 0 0 0
880 4 17.850000000000005 42.84 51.76500000000001 0 0 0
902 3 16.065 46.410000000000004 28.560000000000002 0 0 0
903 3 17.850000000000005 44.62500000000001 28.560000000000002 0 0 0
904 2 17.850000000000005 46.410000000000004 26.775000000000006 0 0 0
905 2 16.065 44.62500000000001 30.345000000000002 0 0 0
906 4 16.065 46.410000000000004 32.13 0 0 0
907 2 17.850000000000005 44.62500000000001 32.13 0 0 0
908 3 17.850000000000005 46.410000000000004 30.345000000000002 0 0 0
909 2 16.065 44.62500000000001 33.915 0 0 0
910 4 16.065 46.410000000000004 35.699999999999996 0 0 0
911 5 17.850000000000005 44.62500000000001 35.699999999999996 0 0 0
912 2 17.850000000000005 46.410000000000004 33.915 0 0 0
913 2 16.065 44.62500000000001 37.48500000000001 0 0 0
914 2 16.065 46.410000000000004 39.27 0 0 0
915 5 17.850000000000005 44.62500000000001 39.27 0 0 0
916 1 17.850000000000005 46.410000000000004 37.48500000000001 0 0 0
917 2 16.065 44.62500000000001 41.055 0 0 0
918 5 16.065 46.410000000000004 42.84 0 0 0
919 2 17.850000000000005 44.62500000000001 42.84 0 0 0
920 2 17.850000000000005 46.410000000000004 41.055 0 0 0
921 5 16.065 44.62500000000001 44.62500000000001 0 0 0
922 5 16.065 46.410000000000004 46.410000000000004 0 0 0
923 2 17.850000000000005 44.62500000000001 46.410000000000004 0 0 0
924 3 17.850000000000005 46.410000000000004 44.62500000000001 0 0 0
925 5 16.065 44.62500000000001 48.195 0 0 0
926 4 16.065 46.410000000000004 49.980000000000004 0 0 0
927 3 17.850000000000005 44.62500000000001 49.980000000000004 0 0 0
928 1 17.850000000000005 46.410000000000004 48.195 0 0 0
929 3 16.065 44.62500000000001 51.76500000000001 0 0 0
932 3 17.850000000000005 46.410000000000004 51.76500000000001 0 0 0
958 5 16.065 49.980000000000004 24.990000000000006 0 0 0
959 3 17.850000000000005 48.195 24.990000000000006 0 0 0
960 4 17.850000000000005 49.980000000000004 23.205000000000002 0 0 0
961 5 16.065 48.195 26.775000000000006 0 0 0
962 4 16.065 49.980000000000004 28.560000000000002 0 0 0
963 3 17.850000000000005 48.195 28.560000000000002 0 0 0
964 5 17.850000000000005 49.980000000000004 26.775000000000006 0 0 0
965 5 16.065 48.195 30.345000000000002 0 0 0
966 4 16.065 49.980000000000004 32.13 0 0 0
967 2 17.850000000000005 48.195 32.13 0 0 0
968 4 17.850000000000005 49.980000000000004 30.345000000000002 0 0 0
969 4 16.065 48.195 33.915 0 0 0
970 2 16.065 49.980000000000004 35.699999999999996 0 0 0
971 4 17.850000000000005 48.195 35.699999999999996 0 0 0
972 5 17.850000000000005 49.980000000000004 33.915 0 0 0
973 5 16.065 48.195 37.48500000000001 0 0 0
974 5 16.065 49.980000000000004 39.27 0 0 0
975 1 17.850000000000005 48.195 39.27 0 0 0
976 3 17.850000000000005 49.980000000000004 37.48500000000001 0 0 0
977 5 16.065 48.195 41.055 0 0 0
978 1 16.065 49.980000000000004 42.84 0 0 0
979 5 17.850000000000005 48.195 42.84 0 0 0
980 1 17.850000000000005 49.980000000000004 41.055 0 0 0
981 1 16.065 48.195 44.62500000000001 0 0 0
982 5 16.065 49.980000000000004 46.410000000000004 0 0 0
983 5 17.850000000000005 48.195 46.410000000000004 0 0 0
984 3 17.850000000000005 49.980000000000004 44.62500000000001 0 0 0
985 5 16.065 48.195 48.195 0 0 0
986 4 16.065 49.980000000000004 49.980000000000004 0 0 0
987 3 17.850000000000005 48.195 49.980000000000004 0 0 0
988 1 17.850000000000005 49.980000000000004 48.195 0 0 0
989 5 16.065 48.195 51.76500000000001 0 0 0
992 5 17.850000000000005 49.980000000000004 51.76500000000001 0 0 0
1022 4 17.850000000000005 51.76500000000001 21.420000000000005 0 0 0
1023 4 16.065 51.76500000000001 23.205000000000002 0 0 0
1025 4 17.850000000000005 51.76500000000001 24.990000000000006 0 0 0
1027 1 16.065 51.76500000000001 26.775000000000006 0 0 0
1029 4 17.850000000000005 51.76500000000001 28.560000000000002 0 0 0
1031 4 16.065 51.76500000000001 30.345000000000002 0 0 0
1033 3 17.850000000000005 51.76500000000001 32.13 0 0 0
1035 3 16.065 51.76500000000001 33.915 0 0 0
1037 4 17.850000000000005 51.76500000000001 35.699999999999996 0 0 0
1039 3 16.065 51.76500000000001 37.48500000000001 0 0 0
1041 1 17.850000000000005 51.76500000000001 39.27 0 0 0
1043 1 16.065 51.76500000000001 41.055 0 0 0
1045 3 17.850000000000005 51.76500000000001 42.84 0 0 0
1047 3 16.065 51.76500000000001 44.62500000000001 0 0 0
1049 5 17.850000000000005 51.76500000000001 46.410000000000004 0 0 0
1051 1 16.065 51.76500000000001 48.195 0 0 0
1053 1 17.850000000000005 51.76500000000001 49.980000000000004 0 0 0
1055 1 16.065 51.76500000000001 51.76500000000001 0 0 0
1346 2 21.420000000000005 17.850000000000005 51.76500000000001 0 0 0
1347 4 21.420000000000005 21.420000000000005 44.62500000000001 0 0 0
1348 5 19.635000000000005 21.420000000000005 49.980000000000004 0 0 0
1349 2 21.420000000000005 19.635000000000005 49.980000000000004 0 0 0
1350 2 21.420000000000005 21.420000000000005 48.195 0 0 0
1351 5 19.635000000000005 19.635000000000005 51.76500000000001 0 0 0
1354 4 21.420000000000005 21.420000000000005 51.76500000000001 0 0 0
1357 4 21.420000000000005 23.205000000000002 42.84 0 0 0
1358 4 21.420000000000005 24.990000000000006 41.055 0 0 0
1359 5 19.635000000000005 24.990000000000006 46.410000000000004 0 0 0
1360 1 21.420000000000005 23.205000000000002 46.410000000000004 0 0 0
1361 3 21.420000000000005 24.990000000000006 44.62500000000001 0 0 0
1362 4 19.635000000000005 23.205000000000002 48.195 0 0 0
1363 2 19.635000000000005 24.990000000000006 49.980000000000004 0 0 0
1364 4 21.420000000000005 23.205000000000002 49.980000000000004 0 0 0
1365 2 21.420000000000005 24.990000000000006 48.195 0 0 0
1366 4 19.635000000000005 23.205000000000002 51.76500000000001 0 0 0
1369 3 21.420000000000005 24.990000000000006 51.76500000000001 0 0 0
1377 4 21.420000000000005 26.775000000000006 39.27 0 0 0
1378 5 21.420000000000005 28.560000000000002 37.48500000000001 0 0 0
1379 1 19.635000000000005 28.560000000000002 42.84 0 0 0
1380 3 21.420000000000005 26.775000000000006 42.84 0 0 0
1381 3 21.420000000000005 28.560000000000002 41.055 0 0 0
1382 4 19.635000000000005 26.775000000000006 44.62500000000001 0 0 0
1383 4 19.635000000000005 28.560000000000002 46.410000000000004 0 0 0
1384 2 21.420000000000005 26.775000000000006 46.410000000000004 0 0 0
1385 4 21.420000000000005 28.560000000000002 44.62500000000001 0 0 0
1386 2 19.635000000000005 26.775000000000006 48.195 0 0 0
1387 3 19.635000000000005 28.560000000000002 49.980000000000004 0 0 0
1388 1 21.420000000000005 26.775000000000006 49.980000000000004 0 0 0
1389 2 21.420000000000005 28.560000000000002 48.195 0 0 0
1390 4 19.635000000000005 26.775000000000006 51.76500000000001 0 0 0
1393 5 21.420000000000005 28.560000000000002 51.76500000000001 0 0 0
1405 1 21.420000000000005 30.345000000000002 35.699999999999996 0 0 0
1406 3 21.420000000000005 32.13 33.915 0 0 0
1407 5 19.635000000000005 32.13 39.27 0 0 0
1408 5 21.420000000000005 30.345000000000002 39.27 0 0 0
1409 1 21.420000000000005 32.13 37.48500000000001 0 0 0
1410 1 19.635000000000005 30.345000000000002 41.055 0 0 0
1411 4 19.635000000000005 32.13 42.84 0 0 0
1412 4 21.420000000000005 30.345000000000002 42.84 0 0 0
1413 5 21.420000000000005 32.13 41.055 0 0 0
1414 5 19.635000000000005 30.345000000000002 44.62500000000001 0 0 0
1415 3 19.635000000000005 32.13 46.410000000000004 0 0 0
1416 4 21.420000000000005 30.345000000000002 46.410000000000004 0 0 0
1417 4 21.420000000000005 32.13 44.62500000000001 0 0 0
1418 1 19.635000000000005 30.345000000000002 48.195 0 0 0
1419 2 19.635000000000005 32.13 49.980000000000004 0 0 0
1420 2 21.420000000000005 30.345000000000002 49.980000000000004 0 0 0
1421 2 21.420000000000005 32.13 48.195 0 0 0
1422 3 19.635000000000005 30.345000000000002 51.76500000000001 0 0 0
1425 2 21.420000000000005 32.13 51.76500000000001 0 0 0
1441 4 21.420000000000005 33.915 32.13 0 0 0
1442 4 21.420000000000005 35.699999999999996 30.345000000000002 0 0 0
1443 4 19.635000000000005 35.699999999999996 35.699999999999996 0 0 0
1444 1 21.420000000000005 33.915 35.699999999999996 0 0 0
1445 2 21.420000000000005 35.699999999999996 33.915 0 0 0
1446 3 19.635000000000005 33.915 37.48500000000001 0 0 0
1447 2 19.635000000000005 35.699999999999996 39.27 0 0 0
1448 4 21.420000000000005 33.915 39.27 0 0 0
1449 3 21.420000000000005 35.699999999999996 37.48500000000001 0 0 0
1450 3 19.635000000000005 33.915 41.055 0 0 0
1451 4 19.635000000000005 35.699999999999996 42.84 0 0 0
1452 5 21.420000000000005 33.915 42.84 0 0 0
1453 2 21.420000000000005 35.699999999999996 41.055 0 0 0
1454 1 19.635000000000005 33.915 44.62500000000001 0 0 0
1455 1 19.635000000000005 35.699999999999996 46.410000000000004 0 0 0
1456 2 21.420000000000005 33.915 46.410000000000004 0 0 0
1457 4 21.420000000000005 35.699999999999996 44.62500000000001 0 0 0
1458 1 19.635000000000005 33.915 48.195 0 0 0
1459 4 19.635000000000005 35.699999999999996 49.980000000000004 0 0 0
1460 2 21.420000000000005 33.915 49.980000000000004 0 0 0
1461 1 21.420000000000005 35.699999999999996 48.195 0 0 0
1462 5 19.635000000000005 33.915 51.76500000000001 0 0 0
1465 4 21.420000000000005 35.699999999999996 51.76500000000001 0 0 0
1485 5 21.420000000000005 37.48500000000001 28.560000000000002 0 0 0
1486 4 21.420000000000005 39.27 26.775000000000006 0 0 0
1487 3 19.635000000000005 39.27 32.13 0 0 0
1488 1 21.420000000000005 37.48500000000001 32.13 0 0 0
1489 4 21.420000000000005 39.27 30.345000000000002 0 0 0
1490 4 19.635000000000005 37.48500000000001 33.915 0 0 0
1491 4 19.635000000000005 39.27 35.699999999999996 0 0 0
1492 3 21.420000000000005 37.48500000000001 35.699999999999996 0 0 0
1493 1 21.420000000000005 39.27 33.915 0 0 0
1494 3 19.635000000000005 37.48500000000001 37.48500000000001 0 0 0
1495 5 19.635000000000005 39.27 39.27 0 0 0
1496 5 21.420000000000005 37.48500000000001 39.27 0 0 0
1497 1 21.420000000000005 39.27 37.48500000000001 0 0 0
1498 4 19.635000000000005 37.48500000000001 41.055 0 0 0
1499 2 19.635000000000005 39.27 42.84 0 0 0
1500 4 21.420000000000005 37.48500000000001 42.84 0 0 0
1501 1 21.420000000000005 39.27 41.055 0 0 0
1502 3 19.635000000000005 37.48500000000001 44.62500000000001 0 0 0
1503 2 19.635000000000005 39.27 46.410000000000004 0 0 0
1504 1 21.420000000000005 37.48500000000001 46.410000000000004 0 0 0
1505 3 21.420000000000005 39.27 44.62500000000001 0 0 0
1506 2 19.635000000000005 37.48500000000001 48.195 0 0 0
1507 1 19.635000000000005 39.27 49.980000000000004 0 0 0
1508 3 21.420000000000005 37.48500000000001 49.980000000000004 0 0 0
1509 5 21.420000000000005 39.27 48.195 0 0 0
1510 4 19.635000000000005 37.48500000000001 51.76500000000001 0 0 0
1513 5 21.420000000000005 39.27 51.76500000000001 0 0 0
1537 4 21.420000000000005 41.055 24.990000000000006 0 0 0
1538 4 21.420000000000005 42.84 23.205000000000002 0 0 0
1539 2 19.635000000000005 42.84 28.560000000000002 0 0 0
1540 2 21.420000000000005 41.055 28.560000000000002 0 0 0
1541 4 21.420000000000005 42.84 26.775000000000006 0 0 0
1542 2 19.635000000000005 41.055 30.345000000000002 0 0 0
1543 5 19.635000000000005 42.84 32.13 0 0 0
1544 2 21.420000000000005 41.055 32.13 0 0 0
1545 3 21.420000000000005 42.84 30.345000000000002 0 0 0
1546 4 19.635000000000005 41.055 33.915 0 0 0
1547 1 19.635000000000005 42.84 35.699999999999996 0 0 0
1548 4 21.420000000000005 41.055 35.699999999999996 0 0 0
1549 5 21.420000000000005 42.84 33.915 0 0 0
1550 1 19.635000000000005 41.055 37.48500000000001 0 0 0
1551 3 19.635000000000005 42.84 39.27 0 0 0
1552 3 21.420000000000005 41.055 39.27 0 0 0
1553 5 21.420000000000005 42.84 37.48500000000001 0 0 0
1554 4 19.635000000000005 41.055 41.055 0 0 0
1555 1 19.635000000000005 42.84 42.84 0 0 0
1556 3 21.420000000000005 41.055 42.84 0 0 0
1557 1 21.420000000000005 42.84 41.055 0 0 0
1558 1 19.635000000000005 41.055 44.62500000000001 0 0 0
1559 2 19.635000000000005 42.84 46.410000000000004 0 0 0
1560 3 21.420000000000005 41.055 46.410000000000004 0 0 0
1561 5 21.420000000000005 42.84 44.62500000000001 0 0 0
1562 2 19.635000000000005 41.055 48.195 0 0 0
1563 3 19.635000000000005 42.84 49.980000000000004 0 0 0
1564 5 21.420000000000005 41.055 49.980000000000004 0 0 0
1565 5 21.420000000000005 42.84 48.195 0 0 0
1566 1 19.635000000000005 41.055 51.76500000000001 0 0 0
1569 1 21.420000000000005 42.84 51.76500000000001 0 0 0
1597 3 21.420000000000005 44.62500000000001 21.420000000000005 0 0 0