model_files/Cu/Cu_30000/Cu_221/data.Cu_221_fcc_29329 (written by ASE) 

29329 	 atoms 
1  atom types
0.0                     117  xlo xhi
0.0                     117  ylo yhi
0.0                     117  zlo zhi


Atoms 

     1   1      1.8049999999999999      55.955000000000005      57.760000000000005
     2   1      1.8049999999999999      57.760000000000005      55.955000000000005
     3   1                       0      57.760000000000005      57.760000000000005
     4   1      1.8049999999999999      57.760000000000005      59.565000000000005
     5   1      1.8049999999999999      59.565000000000005      57.760000000000005
     6   1                   5.415      52.344999999999999      54.150000000000006
     7   1                   5.415      52.344999999999999      57.760000000000005
     8   1                   5.415      52.344999999999999      61.370000000000005
     9   1                   5.415      54.150000000000006      52.344999999999999
    10   1      3.6099999999999999      54.150000000000006      54.150000000000006
    11   1      3.6099999999999999      55.955000000000005      55.955000000000005
    12   1                   5.415      54.150000000000006      55.955000000000005
    13   1                   5.415      55.955000000000005      54.150000000000006
    14   1      3.6099999999999999      54.150000000000006      57.760000000000005
    15   1      3.6099999999999999      55.955000000000005      59.565000000000005
    16   1                   5.415      54.150000000000006      59.565000000000005
    17   1                   5.415      55.955000000000005      57.760000000000005
    18   1      3.6099999999999999      54.150000000000006      61.370000000000005
    19   1                   5.415      54.150000000000006      63.175000000000026
    20   1                   5.415      55.955000000000005      61.370000000000005
    21   1                   5.415      57.760000000000005      52.344999999999999
    22   1      3.6099999999999999      57.760000000000005      54.150000000000006
    23   1      3.6099999999999999      59.565000000000005      55.955000000000005
    24   1                   5.415      57.760000000000005      55.955000000000005
    25   1                   5.415      59.565000000000005      54.150000000000006
    26   1      3.6099999999999999      57.760000000000005      57.760000000000005
    27   1      3.6099999999999999      59.565000000000005      59.565000000000005
    28   1                   5.415      57.760000000000005      59.565000000000005
    29   1                   5.415      59.565000000000005      57.760000000000005
    30   1      3.6099999999999999      57.760000000000005      61.370000000000005
    31   1                   5.415      57.760000000000005      63.175000000000026
    32   1                   5.415      59.565000000000005      61.370000000000005
    33   1                   5.415      61.370000000000005      52.344999999999999
    34   1      3.6099999999999999      61.370000000000005      54.150000000000006
    35   1                   5.415      61.370000000000005      55.955000000000005
    36   1                   5.415      63.175000000000026      54.150000000000006
    37   1      3.6099999999999999      61.370000000000005      57.760000000000005
    38   1                   5.415      61.370000000000005      59.565000000000005
    39   1                   5.415      63.175000000000026      57.760000000000005
    40   1      3.6099999999999999      61.370000000000005      61.370000000000005
    41   1                   5.415      61.370000000000005      63.175000000000026
    42   1                   5.415      63.175000000000026      61.370000000000005
    43   1      9.0249999999999986      48.735000000000007      54.150000000000006
    44   1      9.0249999999999986      48.735000000000007      57.760000000000005
    45   1      9.0249999999999986      48.735000000000007      61.370000000000005
    46   1      7.2199999999999998      52.344999999999999      52.344999999999999
    47   1      9.0249999999999986      50.540000000000006      52.344999999999999
    48   1      9.0249999999999986      52.344999999999999      50.540000000000006
    49   1      7.2199999999999998      50.540000000000006      54.150000000000006
    50   1      7.2199999999999998      52.344999999999999      55.955000000000005
    51   1      9.0249999999999986      50.540000000000006      55.955000000000005
    52   1      9.0249999999999986      52.344999999999999      54.150000000000006
    53   1      7.2199999999999998      50.540000000000006      57.760000000000005
    54   1      7.2199999999999998      52.344999999999999      59.565000000000005
    55   1      9.0249999999999986      50.540000000000006      59.565000000000005
    56   1      9.0249999999999986      52.344999999999999      57.760000000000005
    57   1      7.2199999999999998      50.540000000000006      61.370000000000005
    58   1      7.2199999999999998      52.344999999999999      63.175000000000026
    59   1      9.0249999999999986      50.540000000000006      63.175000000000026
    60   1      9.0249999999999986      52.344999999999999      61.370000000000005
    61   1      9.0249999999999986      52.344999999999999      64.980000000000004
    62   1      9.0249999999999986      54.150000000000006      48.735000000000007
    63   1      7.2199999999999998      54.150000000000006      50.540000000000006
    64   1      7.2199999999999998      55.955000000000005      52.344999999999999
    65   1      9.0249999999999986      54.150000000000006      52.344999999999999
    66   1      9.0249999999999986      55.955000000000005      50.540000000000006
    67   1      7.2199999999999998      54.150000000000006      54.150000000000006
    68   1      7.2199999999999998      55.955000000000005      55.955000000000005
    69   1      9.0249999999999986      54.150000000000006      55.955000000000005
    70   1      9.0249999999999986      55.955000000000005      54.150000000000006
    71   1      7.2199999999999998      54.150000000000006      57.760000000000005
    72   1      7.2199999999999998      55.955000000000005      59.565000000000005
    73   1      9.0249999999999986      54.150000000000006      59.565000000000005
    74   1      9.0249999999999986      55.955000000000005      57.760000000000005
    75   1      7.2199999999999998      54.150000000000006      61.370000000000005
    76   1      7.2199999999999998      55.955000000000005      63.175000000000026
    77   1      9.0249999999999986      54.150000000000006      63.175000000000026
    78   1      9.0249999999999986      55.955000000000005      61.370000000000005
    79   1      7.2199999999999998      54.150000000000006      64.980000000000004
    80   1      9.0249999999999986      54.150000000000006      66.785000000000011
    81   1      9.0249999999999986      55.955000000000005      64.980000000000004
    82   1      9.0249999999999986      57.760000000000005      48.735000000000007
    83   1      7.2199999999999998      57.760000000000005      50.540000000000006
    84   1      7.2199999999999998      59.565000000000005      52.344999999999999
    85   1      9.0249999999999986      57.760000000000005      52.344999999999999
    86   1      9.0249999999999986      59.565000000000005      50.540000000000006
    87   1      7.2199999999999998      57.760000000000005      54.150000000000006
    88   1      7.2199999999999998      59.565000000000005      55.955000000000005
    89   1      9.0249999999999986      57.760000000000005      55.955000000000005
    90   1      9.0249999999999986      59.565000000000005      54.150000000000006
    91   1      7.2199999999999998      57.760000000000005      57.760000000000005
    92   1      7.2199999999999998      59.565000000000005      59.565000000000005
    93   1      9.0249999999999986      57.760000000000005      59.565000000000005
    94   1      9.0249999999999986      59.565000000000005      57.760000000000005
    95   1      7.2199999999999998      57.760000000000005      61.370000000000005
    96   1      7.2199999999999998      59.565000000000005      63.175000000000026
    97   1      9.0249999999999986      57.760000000000005      63.175000000000026
    98   1      9.0249999999999986      59.565000000000005      61.370000000000005
    99   1      7.2199999999999998      57.760000000000005      64.980000000000004
   100   1      9.0249999999999986      57.760000000000005      66.785000000000011
   101   1      9.0249999999999986      59.565000000000005      64.980000000000004
   102   1      9.0249999999999986      61.370000000000005      48.735000000000007
   103   1      7.2199999999999998      61.370000000000005      50.540000000000006
   104   1      7.2199999999999998      63.175000000000026      52.344999999999999
   105   1      9.0249999999999986      61.370000000000005      52.344999999999999
   106   1      9.0249999999999986      63.175000000000026      50.540000000000006
   107   1      7.2199999999999998      61.370000000000005      54.150000000000006
   108   1      7.2199999999999998      63.175000000000026      55.955000000000005
   109   1      9.0249999999999986      61.370000000000005      55.955000000000005
   110   1      9.0249999999999986      63.175000000000026      54.150000000000006
   111   1      7.2199999999999998      61.370000000000005      57.760000000000005
   112   1      7.2199999999999998      63.175000000000026      59.565000000000005
   113   1      9.0249999999999986      61.370000000000005      59.565000000000005
   114   1      9.0249999999999986      63.175000000000026      57.760000000000005
   115   1      7.2199999999999998      61.370000000000005      61.370000000000005
   116   1      7.2199999999999998      63.175000000000026      63.175000000000026
   117   1      9.0249999999999986      61.370000000000005      63.175000000000026
   118   1      9.0249999999999986      63.175000000000026      61.370000000000005
   119   1      7.2199999999999998      61.370000000000005      64.980000000000004
   120   1      9.0249999999999986      61.370000000000005      66.785000000000011
   121   1      9.0249999999999986      63.175000000000026      64.980000000000004
   122   1      9.0249999999999986      64.980000000000004      52.344999999999999
   123   1      7.2199999999999998      64.980000000000004      54.150000000000006
   124   1      9.0249999999999986      64.980000000000004      55.955000000000005
   125   1      9.0249999999999986      66.785000000000011      54.150000000000006
   126   1      7.2199999999999998      64.980000000000004      57.760000000000005
   127   1      9.0249999999999986      64.980000000000004      59.565000000000005
   128   1      9.0249999999999986      66.785000000000011      57.760000000000005
   129   1      7.2199999999999998      64.980000000000004      61.370000000000005
   130   1      9.0249999999999986      64.980000000000004      63.175000000000026
   131   1      9.0249999999999986      66.785000000000011      61.370000000000005
   132   1                  12.635                  45.125      54.150000000000006
   133   1                  12.635                  45.125      57.760000000000005
   134   1                  12.635                  45.125      61.370000000000005
   135   1                   10.83      48.735000000000007      52.344999999999999
   136   1                  12.635      46.930000000000007      52.344999999999999
   137   1                  12.635      48.735000000000007      50.540000000000006
   138   1                   10.83      46.930000000000007      54.150000000000006
   139   1                   10.83      48.735000000000007      55.955000000000005
   140   1                  12.635      46.930000000000007      55.955000000000005
   141   1                  12.635      48.735000000000007      54.150000000000006
   142   1                   10.83      46.930000000000007      57.760000000000005
   143   1                   10.83      48.735000000000007      59.565000000000005
   144   1                  12.635      46.930000000000007      59.565000000000005
   145   1                  12.635      48.735000000000007      57.760000000000005
   146   1                   10.83      46.930000000000007      61.370000000000005
   147   1                   10.83      48.735000000000007      63.175000000000026
   148   1                  12.635      46.930000000000007      63.175000000000026
   149   1                  12.635      48.735000000000007      61.370000000000005
   150   1                  12.635      48.735000000000007      64.980000000000004
   151   1                   10.83      52.344999999999999      48.735000000000007
   152   1                  12.635      50.540000000000006      48.735000000000007
   153   1                  12.635      52.344999999999999      46.930000000000007
   154   1                   10.83      50.540000000000006      50.540000000000006
   155   1                   10.83      52.344999999999999      52.344999999999999
   156   1                  12.635      50.540000000000006      52.344999999999999
   157   1                  12.635      52.344999999999999      50.540000000000006
   158   1                   10.83      50.540000000000006      54.150000000000006
   159   1                   10.83      52.344999999999999      55.955000000000005
   160   1                  12.635      50.540000000000006      55.955000000000005
   161   1                  12.635      52.344999999999999      54.150000000000006
   162   1                   10.83      50.540000000000006      57.760000000000005
   163   1                   10.83      52.344999999999999      59.565000000000005
   164   1                  12.635      50.540000000000006      59.565000000000005
   165   1                  12.635      52.344999999999999      57.760000000000005
   166   1                   10.83      50.540000000000006      61.370000000000005
   167   1                   10.83      52.344999999999999      63.175000000000026
   168   1                  12.635      50.540000000000006      63.175000000000026
   169   1                  12.635      52.344999999999999      61.370000000000005
   170   1                   10.83      50.540000000000006      64.980000000000004
   171   1                   10.83      52.344999999999999      66.785000000000011
   172   1                  12.635      50.540000000000006      66.785000000000011
   173   1                  12.635      52.344999999999999      64.980000000000004
   174   1                  12.635      52.344999999999999      68.590000000000018
   175   1                  12.635      54.150000000000006                  45.125
   176   1                   10.83      54.150000000000006      46.930000000000007
   177   1                   10.83      55.955000000000005      48.735000000000007
   178   1                  12.635      54.150000000000006      48.735000000000007
   179   1                  12.635      55.955000000000005      46.930000000000007
   180   1                   10.83      54.150000000000006      50.540000000000006
   181   1                   10.83      55.955000000000005      52.344999999999999
   182   1                  12.635      54.150000000000006      52.344999999999999
   183   1                  12.635      55.955000000000005      50.540000000000006
   184   1                   10.83      54.150000000000006      54.150000000000006
   185   1                   10.83      55.955000000000005      55.955000000000005
   186   1                  12.635      54.150000000000006      55.955000000000005
   187   1                  12.635      55.955000000000005      54.150000000000006
   188   1                   10.83      54.150000000000006      57.760000000000005
   189   1                   10.83      55.955000000000005      59.565000000000005
   190   1                  12.635      54.150000000000006      59.565000000000005
   191   1                  12.635      55.955000000000005      57.760000000000005
   192   1                   10.83      54.150000000000006      61.370000000000005
   193   1                   10.83      55.955000000000005      63.175000000000026
   194   1                  12.635      54.150000000000006      63.175000000000026
   195   1                  12.635      55.955000000000005      61.370000000000005
   196   1                   10.83      54.150000000000006      64.980000000000004
   197   1                   10.83      55.955000000000005      66.785000000000011
   198   1                  12.635      54.150000000000006      66.785000000000011
   199   1                  12.635      55.955000000000005      64.980000000000004
   200   1                   10.83      54.150000000000006      68.590000000000018
   201   1                  12.635      54.150000000000006       70.39500000000001
   202   1                  12.635      55.955000000000005      68.590000000000018
   203   1                  12.635      57.760000000000005                  45.125
   204   1                   10.83      57.760000000000005      46.930000000000007
   205   1                   10.83      59.565000000000005      48.735000000000007
   206   1                  12.635      57.760000000000005      48.735000000000007
   207   1                  12.635      59.565000000000005      46.930000000000007
   208   1                   10.83      57.760000000000005      50.540000000000006
   209   1                   10.83      59.565000000000005      52.344999999999999
   210   1                  12.635      57.760000000000005      52.344999999999999
   211   1                  12.635      59.565000000000005      50.540000000000006
   212   1                   10.83      57.760000000000005      54.150000000000006
   213   1                   10.83      59.565000000000005      55.955000000000005
   214   1                  12.635      57.760000000000005      55.955000000000005
   215   1                  12.635      59.565000000000005      54.150000000000006
   216   1                   10.83      57.760000000000005      57.760000000000005
   217   1                   10.83      59.565000000000005      59.565000000000005
   218   1                  12.635      57.760000000000005      59.565000000000005
   219   1                  12.635      59.565000000000005      57.760000000000005
   220   1                   10.83      57.760000000000005      61.370000000000005
   221   1                   10.83      59.565000000000005      63.175000000000026
   222   1                  12.635      57.760000000000005      63.175000000000026
   223   1                  12.635      59.565000000000005      61.370000000000005
   224   1                   10.83      57.760000000000005      64.980000000000004
   225   1                   10.83      59.565000000000005      66.785000000000011
   226   1                  12.635      57.760000000000005      66.785000000000011
   227   1                  12.635      59.565000000000005      64.980000000000004
   228   1                   10.83      57.760000000000005      68.590000000000018
   229   1                  12.635      57.760000000000005       70.39500000000001
   230   1                  12.635      59.565000000000005      68.590000000000018
   231   1                  12.635      61.370000000000005                  45.125
   232   1                   10.83      61.370000000000005      46.930000000000007
   233   1                   10.83      63.175000000000026      48.735000000000007
   234   1                  12.635      61.370000000000005      48.735000000000007
   235   1                  12.635      63.175000000000026      46.930000000000007
   236   1                   10.83      61.370000000000005      50.540000000000006
   237   1                   10.83      63.175000000000026      52.344999999999999
   238   1                  12.635      61.370000000000005      52.344999999999999
   239   1                  12.635      63.175000000000026      50.540000000000006
   240   1                   10.83      61.370000000000005      54.150000000000006
   241   1                   10.83      63.175000000000026      55.955000000000005
   242   1                  12.635      61.370000000000005      55.955000000000005
   243   1                  12.635      63.175000000000026      54.150000000000006
   244   1                   10.83      61.370000000000005      57.760000000000005
   245   1                   10.83      63.175000000000026      59.565000000000005
   246   1                  12.635      61.370000000000005      59.565000000000005
   247   1                  12.635      63.175000000000026      57.760000000000005
   248   1                   10.83      61.370000000000005      61.370000000000005
   249   1                   10.83      63.175000000000026      63.175000000000026
   250   1                  12.635      61.370000000000005      63.175000000000026
   251   1                  12.635      63.175000000000026      61.370000000000005
   252   1                   10.83      61.370000000000005      64.980000000000004
   253   1                   10.83      63.175000000000026      66.785000000000011
   254   1                  12.635      61.370000000000005      66.785000000000011
   255   1                  12.635      63.175000000000026      64.980000000000004
   256   1                   10.83      61.370000000000005      68.590000000000018
   257   1                  12.635      61.370000000000005       70.39500000000001
   258   1                  12.635      63.175000000000026      68.590000000000018
   259   1                  12.635      64.980000000000004      48.735000000000007
   260   1                   10.83      64.980000000000004      50.540000000000006
   261   1                   10.83      66.785000000000011      52.344999999999999
   262   1                  12.635      64.980000000000004      52.344999999999999
   263   1                  12.635      66.785000000000011      50.540000000000006
   264   1                   10.83      64.980000000000004      54.150000000000006
   265   1                   10.83      66.785000000000011      55.955000000000005
   266   1                  12.635      64.980000000000004      55.955000000000005
   267   1                  12.635      66.785000000000011      54.150000000000006
   268   1                   10.83      64.980000000000004      57.760000000000005
   269   1                   10.83      66.785000000000011      59.565000000000005
   270   1                  12.635      64.980000000000004      59.565000000000005
   271   1                  12.635      66.785000000000011      57.760000000000005
   272   1                   10.83      64.980000000000004      61.370000000000005
   273   1                   10.83      66.785000000000011      63.175000000000026
   274   1                  12.635      64.980000000000004      63.175000000000026
   275   1                  12.635      66.785000000000011      61.370000000000005
   276   1                   10.83      64.980000000000004      64.980000000000004
   277   1                  12.635      64.980000000000004      66.785000000000011
   278   1                  12.635      66.785000000000011      64.980000000000004
   279   1                  12.635      68.590000000000018      52.344999999999999
   280   1                   10.83      68.590000000000018      54.150000000000006
   281   1                  12.635      68.590000000000018      55.955000000000005
   282   1                  12.635       70.39500000000001      54.150000000000006
   283   1                   10.83      68.590000000000018      57.760000000000005
   284   1                  12.635      68.590000000000018      59.565000000000005
   285   1                  12.635       70.39500000000001      57.760000000000005
   286   1                   10.83      68.590000000000018      61.370000000000005
   287   1                  12.635      68.590000000000018      63.175000000000026
   288   1                  12.635       70.39500000000001      61.370000000000005
   289   1      16.245000000000001      41.515000000000008      54.150000000000006
   290   1      16.245000000000001      41.515000000000008      57.760000000000005
   291   1      16.245000000000001      41.515000000000008      61.370000000000005
   292   1      16.245000000000001                  45.125      46.930000000000007
   293   1      14.440000000000007                  45.125      52.344999999999999
   294   1      16.245000000000001      43.320000000000007      52.344999999999999
   295   1      16.245000000000001                  45.125      50.540000000000006
   296   1      14.440000000000007      43.320000000000007      54.150000000000006
   297   1      14.440000000000007                  45.125      55.955000000000005
   298   1      16.245000000000001      43.320000000000007      55.955000000000005
   299   1      16.245000000000001                  45.125      54.150000000000006
   300   1      14.440000000000007      43.320000000000007      57.760000000000005
   301   1      14.440000000000007                  45.125      59.565000000000005
   302   1      16.245000000000001      43.320000000000007      59.565000000000005
   303   1      16.245000000000001                  45.125      57.760000000000005
   304   1      14.440000000000007      43.320000000000007      61.370000000000005
   305   1      14.440000000000007                  45.125      63.175000000000026
   306   1      16.245000000000001      43.320000000000007      63.175000000000026
   307   1      16.245000000000001                  45.125      61.370000000000005
   308   1      16.245000000000001                  45.125      64.980000000000004
   309   1      16.245000000000001                  45.125      68.590000000000018
   310   1      16.245000000000001      46.930000000000007                  45.125
   311   1      14.440000000000007      46.930000000000007      46.930000000000007
   312   1      14.440000000000007      48.735000000000007      48.735000000000007
   313   1      16.245000000000001      46.930000000000007      48.735000000000007
   314   1      16.245000000000001      48.735000000000007      46.930000000000007
   315   1      14.440000000000007      46.930000000000007      50.540000000000006
   316   1      14.440000000000007      48.735000000000007      52.344999999999999
   317   1      16.245000000000001      46.930000000000007      52.344999999999999
   318   1      16.245000000000001      48.735000000000007      50.540000000000006
   319   1      14.440000000000007      46.930000000000007      54.150000000000006
   320   1      14.440000000000007      48.735000000000007      55.955000000000005
   321   1      16.245000000000001      46.930000000000007      55.955000000000005
   322   1      16.245000000000001      48.735000000000007      54.150000000000006
   323   1      14.440000000000007      46.930000000000007      57.760000000000005
   324   1      14.440000000000007      48.735000000000007      59.565000000000005
   325   1      16.245000000000001      46.930000000000007      59.565000000000005
   326   1      16.245000000000001      48.735000000000007      57.760000000000005
   327   1      14.440000000000007      46.930000000000007      61.370000000000005
   328   1      14.440000000000007      48.735000000000007      63.175000000000026
   329   1      16.245000000000001      46.930000000000007      63.175000000000026
   330   1      16.245000000000001      48.735000000000007      61.370000000000005
   331   1      14.440000000000007      46.930000000000007      64.980000000000004
   332   1      14.440000000000007      48.735000000000007      66.785000000000011
   333   1      16.245000000000001      46.930000000000007      66.785000000000011
   334   1      16.245000000000001      48.735000000000007      64.980000000000004
   335   1      14.440000000000007      46.930000000000007      68.590000000000018
   336   1      16.245000000000001      46.930000000000007       70.39500000000001
   337   1      16.245000000000001      48.735000000000007      68.590000000000018
   338   1      14.440000000000007      52.344999999999999                  45.125
   339   1      16.245000000000001      50.540000000000006                  45.125
   340   1      16.245000000000001      52.344999999999999      43.320000000000007
   341   1      14.440000000000007      50.540000000000006      46.930000000000007
   342   1      14.440000000000007      52.344999999999999      48.735000000000007
   343   1      16.245000000000001      50.540000000000006      48.735000000000007
   344   1      16.245000000000001      52.344999999999999      46.930000000000007
   345   1      14.440000000000007      50.540000000000006      50.540000000000006
   346   1      14.440000000000007      52.344999999999999      52.344999999999999
   347   1      16.245000000000001      50.540000000000006      52.344999999999999
   348   1      16.245000000000001      52.344999999999999      50.540000000000006
   349   1      14.440000000000007      50.540000000000006      54.150000000000006
   350   1      14.440000000000007      52.344999999999999      55.955000000000005
   351   1      16.245000000000001      50.540000000000006      55.955000000000005
   352   1      16.245000000000001      52.344999999999999      54.150000000000006
   353   1      14.440000000000007      50.540000000000006      57.760000000000005
   354   1      14.440000000000007      52.344999999999999      59.565000000000005
   355   1      16.245000000000001      50.540000000000006      59.565000000000005
   356   1      16.245000000000001      52.344999999999999      57.760000000000005
   357   1      14.440000000000007      50.540000000000006      61.370000000000005
   358   1      14.440000000000007      52.344999999999999      63.175000000000026