model_files/Co/Co_3000/Co_542/data.Co_542_hcp_2959 (written by ASE) 

2959 	 atoms 
1  atom types
0.0                      37  xlo xhi
0.0                      37  ylo yhi
0.0                      37  zlo zhi


Atoms 

     1   1      1.2550000000000026      16.315000000000001                   17.57
     2   1      1.2550000000000026                   17.57      16.315000000000001
     3   1                       0                   17.57                   17.57
     4   1      1.2550000000000026                   17.57      18.824999999999999
     5   1      1.2550000000000026      18.824999999999999                   17.57
     6   1      3.7650000000000006      13.805000000000001      15.060000000000002
     7   1      3.7650000000000006      13.805000000000001                   17.57
     8   1      3.7650000000000006      13.805000000000001      20.080000000000002
     9   1      3.7650000000000006      15.060000000000002      13.805000000000001
    10   1      2.5100000000000016      16.315000000000001      16.315000000000001
    11   1      3.7650000000000006      15.060000000000002      16.315000000000001
    12   1      3.7650000000000006      16.315000000000001      15.060000000000002
    13   1      2.5100000000000016      15.060000000000002                   17.57
    14   1      2.5100000000000016      16.315000000000001      18.824999999999999
    15   1      3.7650000000000006      15.060000000000002      18.824999999999999
    16   1      3.7650000000000006      16.315000000000001                   17.57
    17   1      3.7650000000000006      15.060000000000002      21.334999999999997
    18   1      3.7650000000000006      16.315000000000001      20.080000000000002
    19   1      3.7650000000000006                   17.57      13.805000000000001
    20   1      2.5100000000000016                   17.57      15.060000000000002
    21   1      2.5100000000000016      18.824999999999999      16.315000000000001
    22   1      3.7650000000000006                   17.57      16.315000000000001
    23   1      3.7650000000000006      18.824999999999999      15.060000000000002
    24   1      2.5100000000000016                   17.57                   17.57
    25   1      2.5100000000000016      18.824999999999999      18.824999999999999
    26   1      3.7650000000000006                   17.57      18.824999999999999
    27   1      3.7650000000000006      18.824999999999999                   17.57
    28   1      2.5100000000000016                   17.57      20.080000000000002
    29   1      3.7650000000000006                   17.57      21.334999999999997
    30   1      3.7650000000000006      18.824999999999999      20.080000000000002
    31   1      3.7650000000000006      20.080000000000002      13.805000000000001
    32   1      3.7650000000000006      20.080000000000002      16.315000000000001
    33   1      3.7650000000000006      21.334999999999997      15.060000000000002
    34   1      2.5100000000000016      20.080000000000002                   17.57
    35   1      3.7650000000000006      20.080000000000002      18.824999999999999
    36   1      3.7650000000000006      21.334999999999997                   17.57
    37   1      3.7650000000000006      20.080000000000002      21.334999999999997
    38   1      3.7650000000000006      21.334999999999997      20.080000000000002
    39   1       6.275000000000003      10.040000000000003      16.315000000000001
    40   1       6.275000000000003      11.295000000000002      15.060000000000002
    41   1       6.275000000000003      10.040000000000003      18.824999999999999
    42   1       6.275000000000003      11.295000000000002                   17.57
    43   1       6.275000000000003      11.295000000000002      20.080000000000002
    44   1      5.0200000000000022      13.805000000000001      13.805000000000001
    45   1       6.275000000000003      12.550000000000001      13.805000000000001
    46   1       6.275000000000003      13.805000000000001      12.550000000000001
    47   1      5.0200000000000022      12.550000000000001      15.060000000000002
    48   1      5.0200000000000022      13.805000000000001      16.315000000000001
    49   1       6.275000000000003      12.550000000000001      16.315000000000001
    50   1       6.275000000000003      13.805000000000001      15.060000000000002
    51   1      5.0200000000000022      12.550000000000001                   17.57
    52   1      5.0200000000000022      13.805000000000001      18.824999999999999
    53   1       6.275000000000003      12.550000000000001      18.824999999999999
    54   1       6.275000000000003      13.805000000000001                   17.57
    55   1      5.0200000000000022      12.550000000000001      20.080000000000002
    56   1      5.0200000000000022      13.805000000000001      21.334999999999997
    57   1       6.275000000000003      12.550000000000001      21.334999999999997
    58   1       6.275000000000003      13.805000000000001      20.080000000000002
    59   1       6.275000000000003      13.805000000000001                   22.59
    60   1       6.275000000000003      15.060000000000002      11.295000000000002
    61   1       6.275000000000003      16.315000000000001      10.040000000000003
    62   1      5.0200000000000022      15.060000000000002      12.550000000000001
    63   1      5.0200000000000022      16.315000000000001      13.805000000000001
    64   1       6.275000000000003      15.060000000000002      13.805000000000001
    65   1       6.275000000000003      16.315000000000001      12.550000000000001
    66   1      5.0200000000000022      15.060000000000002      15.060000000000002
    67   1      5.0200000000000022      16.315000000000001      16.315000000000001
    68   1       6.275000000000003      15.060000000000002      16.315000000000001
    69   1       6.275000000000003      16.315000000000001      15.060000000000002
    70   1      5.0200000000000022      15.060000000000002                   17.57
    71   1      5.0200000000000022      16.315000000000001      18.824999999999999
    72   1       6.275000000000003      15.060000000000002      18.824999999999999
    73   1       6.275000000000003      16.315000000000001                   17.57
    74   1      5.0200000000000022      15.060000000000002      20.080000000000002
    75   1      5.0200000000000022      16.315000000000001      21.334999999999997
    76   1       6.275000000000003      15.060000000000002      21.334999999999997
    77   1       6.275000000000003      16.315000000000001      20.080000000000002
    78   1      5.0200000000000022      15.060000000000002                   22.59
    79   1       6.275000000000003      15.060000000000002      23.845000000000002
    80   1       6.275000000000003      16.315000000000001                   22.59
    81   1       6.275000000000003      16.315000000000001      25.100000000000001
    82   1       6.275000000000003                   17.57      11.295000000000002
    83   1       6.275000000000003      18.824999999999999      10.040000000000003
    84   1      5.0200000000000022                   17.57      12.550000000000001
    85   1      5.0200000000000022      18.824999999999999      13.805000000000001
    86   1       6.275000000000003                   17.57      13.805000000000001
    87   1       6.275000000000003      18.824999999999999      12.550000000000001
    88   1      5.0200000000000022                   17.57      15.060000000000002
    89   1      5.0200000000000022      18.824999999999999      16.315000000000001
    90   1       6.275000000000003                   17.57      16.315000000000001
    91   1       6.275000000000003      18.824999999999999      15.060000000000002
    92   1      5.0200000000000022                   17.57                   17.57
    93   1      5.0200000000000022      18.824999999999999      18.824999999999999
    94   1       6.275000000000003                   17.57      18.824999999999999
    95   1       6.275000000000003      18.824999999999999                   17.57
    96   1      5.0200000000000022                   17.57      20.080000000000002
    97   1      5.0200000000000022      18.824999999999999      21.334999999999997
    98   1       6.275000000000003                   17.57      21.334999999999997
    99   1       6.275000000000003      18.824999999999999      20.080000000000002
   100   1      5.0200000000000022                   17.57                   22.59
   101   1       6.275000000000003                   17.57      23.845000000000002
   102   1       6.275000000000003      18.824999999999999                   22.59
   103   1       6.275000000000003      18.824999999999999      25.100000000000001
   104   1       6.275000000000003      20.080000000000002      11.295000000000002
   105   1      5.0200000000000022      20.080000000000002      12.550000000000001
   106   1      5.0200000000000022      21.334999999999997      13.805000000000001
   107   1       6.275000000000003      20.080000000000002      13.805000000000001
   108   1       6.275000000000003      21.334999999999997      12.550000000000001
   109   1      5.0200000000000022      20.080000000000002      15.060000000000002
   110   1      5.0200000000000022      21.334999999999997      16.315000000000001
   111   1       6.275000000000003      20.080000000000002      16.315000000000001
   112   1       6.275000000000003      21.334999999999997      15.060000000000002
   113   1      5.0200000000000022      20.080000000000002                   17.57
   114   1      5.0200000000000022      21.334999999999997      18.824999999999999
   115   1       6.275000000000003      20.080000000000002      18.824999999999999
   116   1       6.275000000000003      21.334999999999997                   17.57
   117   1      5.0200000000000022      20.080000000000002      20.080000000000002
   118   1      5.0200000000000022      21.334999999999997      21.334999999999997
   119   1       6.275000000000003      20.080000000000002      21.334999999999997
   120   1       6.275000000000003      21.334999999999997      20.080000000000002
   121   1      5.0200000000000022      20.080000000000002                   22.59
   122   1       6.275000000000003      20.080000000000002      23.845000000000002
   123   1       6.275000000000003      21.334999999999997                   22.59
   124   1       6.275000000000003                   22.59      13.805000000000001
   125   1      5.0200000000000022                   22.59      15.060000000000002
   126   1       6.275000000000003                   22.59      16.315000000000001
   127   1       6.275000000000003      23.845000000000002      15.060000000000002
   128   1      5.0200000000000022                   22.59                   17.57
   129   1       6.275000000000003                   22.59      18.824999999999999
   130   1       6.275000000000003      23.845000000000002                   17.57
   131   1      5.0200000000000022                   22.59      20.080000000000002
   132   1       6.275000000000003                   22.59      21.334999999999997
   133   1       6.275000000000003      23.845000000000002      20.080000000000002
   134   1       6.275000000000003      25.100000000000001      16.315000000000001
   135   1       6.275000000000003      25.100000000000001      18.824999999999999
   136   1      8.7850000000000001      8.7850000000000001      12.550000000000001
   137   1      7.5300000000000011      8.7850000000000001      16.315000000000001
   138   1      8.7850000000000001      7.5300000000000011      16.315000000000001
   139   1      8.7850000000000001      8.7850000000000001      15.060000000000002
   140   1      7.5300000000000011      8.7850000000000001      18.824999999999999
   141   1      8.7850000000000001      7.5300000000000011      18.824999999999999
   142   1      8.7850000000000001      8.7850000000000001                   17.57
   143   1      8.7850000000000001      8.7850000000000001      20.080000000000002
   144   1      8.7850000000000001      8.7850000000000001                   22.59
   145   1      7.5300000000000011      11.295000000000002      11.295000000000002
   146   1      8.7850000000000001      10.040000000000003      11.295000000000002
   147   1      8.7850000000000001      11.295000000000002      10.040000000000003
   148   1      7.5300000000000011      11.295000000000002      13.805000000000001
   149   1      8.7850000000000001      10.040000000000003      13.805000000000001
   150   1      8.7850000000000001      11.295000000000002      12.550000000000001
   151   1      7.5300000000000011      10.040000000000003      15.060000000000002
   152   1      7.5300000000000011      11.295000000000002      16.315000000000001
   153   1      8.7850000000000001      10.040000000000003      16.315000000000001
   154   1      8.7850000000000001      11.295000000000002      15.060000000000002
   155   1      7.5300000000000011      10.040000000000003                   17.57
   156   1      7.5300000000000011      11.295000000000002      18.824999999999999
   157   1      8.7850000000000001      10.040000000000003      18.824999999999999
   158   1      8.7850000000000001      11.295000000000002                   17.57
   159   1      7.5300000000000011      10.040000000000003      20.080000000000002
   160   1      7.5300000000000011      11.295000000000002      21.334999999999997
   161   1      8.7850000000000001      10.040000000000003      21.334999999999997
   162   1      8.7850000000000001      11.295000000000002      20.080000000000002
   163   1      7.5300000000000011      11.295000000000002      23.845000000000002
   164   1      8.7850000000000001      10.040000000000003      23.845000000000002
   165   1      8.7850000000000001      11.295000000000002                   22.59
   166   1      8.7850000000000001      11.295000000000002      25.100000000000001
   167   1      8.7850000000000001      12.550000000000001      8.7850000000000001
   168   1      7.5300000000000011      13.805000000000001      11.295000000000002
   169   1      8.7850000000000001      12.550000000000001      11.295000000000002
   170   1      8.7850000000000001      13.805000000000001      10.040000000000003
   171   1      7.5300000000000011      12.550000000000001      12.550000000000001
   172   1      7.5300000000000011      13.805000000000001      13.805000000000001
   173   1      8.7850000000000001      12.550000000000001      13.805000000000001
   174   1      8.7850000000000001      13.805000000000001      12.550000000000001
   175   1      7.5300000000000011      12.550000000000001      15.060000000000002
   176   1      7.5300000000000011      13.805000000000001      16.315000000000001
   177   1      8.7850000000000001      12.550000000000001      16.315000000000001
   178   1      8.7850000000000001      13.805000000000001      15.060000000000002
   179   1      7.5300000000000011      12.550000000000001                   17.57
   180   1      7.5300000000000011      13.805000000000001      18.824999999999999
   181   1      8.7850000000000001      12.550000000000001      18.824999999999999
   182   1      8.7850000000000001      13.805000000000001                   17.57
   183   1      7.5300000000000011      12.550000000000001      20.080000000000002
   184   1      7.5300000000000011      13.805000000000001      21.334999999999997
   185   1      8.7850000000000001      12.550000000000001      21.334999999999997
   186   1      8.7850000000000001      13.805000000000001      20.080000000000002
   187   1      7.5300000000000011      12.550000000000001                   22.59
   188   1      7.5300000000000011      13.805000000000001      23.845000000000002
   189   1      8.7850000000000001      12.550000000000001      23.845000000000002
   190   1      8.7850000000000001      13.805000000000001                   22.59
   191   1      8.7850000000000001      12.550000000000001                  26.355
   192   1      8.7850000000000001      13.805000000000001      25.100000000000001
   193   1      7.5300000000000011      16.315000000000001      8.7850000000000001
   194   1      8.7850000000000001      15.060000000000002      8.7850000000000001
   195   1      8.7850000000000001      16.315000000000001      7.5300000000000011
   196   1      7.5300000000000011      15.060000000000002      10.040000000000003
   197   1      7.5300000000000011      16.315000000000001      11.295000000000002
   198   1      8.7850000000000001      15.060000000000002      11.295000000000002
   199   1      8.7850000000000001      16.315000000000001      10.040000000000003
   200   1      7.5300000000000011      15.060000000000002      12.550000000000001
   201   1      7.5300000000000011      16.315000000000001      13.805000000000001
   202   1      8.7850000000000001      15.060000000000002      13.805000000000001
   203   1      8.7850000000000001      16.315000000000001      12.550000000000001
   204   1      7.5300000000000011      15.060000000000002      15.060000000000002
   205   1      7.5300000000000011      16.315000000000001      16.315000000000001
   206   1      8.7850000000000001      15.060000000000002      16.315000000000001
   207   1      8.7850000000000001      16.315000000000001      15.060000000000002
   208   1      7.5300000000000011      15.060000000000002                   17.57
   209   1      7.5300000000000011      16.315000000000001      18.824999999999999
   210   1      8.7850000000000001      15.060000000000002      18.824999999999999
   211   1      8.7850000000000001      16.315000000000001                   17.57
   212   1      7.5300000000000011      15.060000000000002      20.080000000000002
   213   1      7.5300000000000011      16.315000000000001      21.334999999999997
   214   1      8.7850000000000001      15.060000000000002      21.334999999999997
   215   1      8.7850000000000001      16.315000000000001      20.080000000000002
   216   1      7.5300000000000011      15.060000000000002                   22.59
   217   1      7.5300000000000011      16.315000000000001      23.845000000000002
   218   1      8.7850000000000001      15.060000000000002      23.845000000000002
   219   1      8.7850000000000001      16.315000000000001                   22.59
   220   1      7.5300000000000011      15.060000000000002      25.100000000000001
   221   1      7.5300000000000011      16.315000000000001                  26.355
   222   1      8.7850000000000001      15.060000000000002                  26.355
   223   1      8.7850000000000001      16.315000000000001      25.100000000000001
   224   1      8.7850000000000001      16.315000000000001      27.610000000000003
   225   1      7.5300000000000011      18.824999999999999      8.7850000000000001
   226   1      8.7850000000000001                   17.57      8.7850000000000001
   227   1      8.7850000000000001      18.824999999999999      7.5300000000000011
   228   1      7.5300000000000011                   17.57      10.040000000000003
   229   1      7.5300000000000011      18.824999999999999      11.295000000000002
   230   1      8.7850000000000001                   17.57      11.295000000000002
   231   1      8.7850000000000001      18.824999999999999      10.040000000000003
   232   1      7.5300000000000011                   17.57      12.550000000000001
   233   1      7.5300000000000011      18.824999999999999      13.805000000000001
   234   1      8.7850000000000001                   17.57      13.805000000000001
   235   1      8.7850000000000001      18.824999999999999      12.550000000000001
   236   1      7.5300000000000011                   17.57      15.060000000000002
   237   1      7.5300000000000011      18.824999999999999      16.315000000000001
   238   1      8.7850000000000001                   17.57      16.315000000000001
   239   1      8.7850000000000001      18.824999999999999      15.060000000000002
   240   1      7.5300000000000011                   17.57                   17.57
   241   1      7.5300000000000011      18.824999999999999      18.824999999999999
   242   1      8.7850000000000001                   17.57      18.824999999999999
   243   1      8.7850000000000001      18.824999999999999                   17.57
   244   1      7.5300000000000011                   17.57      20.080000000000002
   245   1      7.5300000000000011      18.824999999999999      21.334999999999997
   246   1      8.7850000000000001                   17.57      21.334999999999997
   247   1      8.7850000000000001      18.824999999999999      20.080000000000002
   248   1      7.5300000000000011                   17.57                   22.59
   249   1      7.5300000000000011      18.824999999999999      23.845000000000002
   250   1      8.7850000000000001                   17.57      23.845000000000002
   251   1      8.7850000000000001      18.824999999999999                   22.59
   252   1      7.5300000000000011                   17.57      25.100000000000001
   253   1      7.5300000000000011      18.824999999999999                  26.355
   254   1      8.7850000000000001                   17.57                  26.355
   255   1      8.7850000000000001      18.824999999999999      25.100000000000001
   256   1      8.7850000000000001      18.824999999999999      27.610000000000003
   257   1      8.7850000000000001      20.080000000000002      8.7850000000000001
   258   1      7.5300000000000011      20.080000000000002      10.040000000000003
   259   1      7.5300000000000011      21.334999999999997      11.295000000000002
   260   1      8.7850000000000001      20.080000000000002      11.295000000000002
   261   1      8.7850000000000001      21.334999999999997      10.040000000000003
   262   1      7.5300000000000011      20.080000000000002      12.550000000000001
   263   1      7.5300000000000011      21.334999999999997      13.805000000000001
   264   1      8.7850000000000001      20.080000000000002      13.805000000000001
   265   1      8.7850000000000001      21.334999999999997      12.550000000000001
   266   1      7.5300000000000011      20.080000000000002      15.060000000000002
   267   1      7.5300000000000011      21.334999999999997      16.315000000000001
   268   1      8.7850000000000001      20.080000000000002      16.315000000000001
   269   1      8.7850000000000001      21.334999999999997      15.060000000000002
   270   1      7.5300000000000011      20.080000000000002                   17.57
   271   1      7.5300000000000011      21.334999999999997      18.824999999999999
   272   1      8.7850000000000001      20.080000000000002      18.824999999999999
   273   1      8.7850000000000001      21.334999999999997                   17.57
   274   1      7.5300000000000011      20.080000000000002      20.080000000000002
   275   1      7.5300000000000011      21.334999999999997      21.334999999999997
   276   1      8.7850000000000001      20.080000000000002      21.334999999999997
   277   1      8.7850000000000001      21.334999999999997      20.080000000000002
   278   1      7.5300000000000011      20.080000000000002                   22.59
   279   1      7.5300000000000011      21.334999999999997      23.845000000000002
   280   1      8.7850000000000001      20.080000000000002      23.845000000000002
   281   1      8.7850000000000001      21.334999999999997                   22.59
   282   1      7.5300000000000011      20.080000000000002      25.100000000000001
   283   1      8.7850000000000001      20.080000000000002                  26.355
   284   1      8.7850000000000001      21.334999999999997      25.100000000000001
   285   1      8.7850000000000001                   22.59      8.7850000000000001
   286   1      7.5300000000000011      23.845000000000002      11.295000000000002
   287   1      8.7850000000000001                   22.59      11.295000000000002
   288   1      8.7850000000000001      23.845000000000002      10.040000000000003
   289   1      7.5300000000000011                   22.59      12.550000000000001
   290   1      7.5300000000000011      23.845000000000002      13.805000000000001
   291   1      8.7850000000000001                   22.59      13.805000000000001
   292   1      8.7850000000000001      23.845000000000002      12.550000000000001
   293   1      7.5300000000000011                   22.59      15.060000000000002
   294   1      7.5300000000000011      23.845000000000002      16.315000000000001
   295   1      8.7850000000000001                   22.59      16.315000000000001
   296   1      8.7850000000000001      23.845000000000002      15.060000000000002
   297   1      7.5300000000000011                   22.59                   17.57
   298   1      7.5300000000000011      23.845000000000002      18.824999999999999
   299   1      8.7850000000000001                   22.59      18.824999999999999
   300   1      8.7850000000000001      23.845000000000002                   17.57
   301   1      7.5300000000000011                   22.59      20.080000000000002
   302   1      7.5300000000000011      23.845000000000002      21.334999999999997
   303   1      8.7850000000000001                   22.59      21.334999999999997
   304   1      8.7850000000000001      23.845000000000002      20.080000000000002
   305   1      7.5300000000000011                   22.59                   22.59
   306   1      7.5300000000000011      23.845000000000002      23.845000000000002
   307   1      8.7850000000000001                   22.59      23.845000000000002
   308   1      8.7850000000000001      23.845000000000002                   22.59
   309   1      8.7850000000000001                   22.59                  26.355
   310   1      8.7850000000000001      23.845000000000002      25.100000000000001
   311   1      8.7850000000000001      25.100000000000001      11.295000000000002
   312   1      8.7850000000000001      25.100000000000001      13.805000000000001
   313   1      8.7850000000000001                  26.355      12.550000000000001
   314   1      7.5300000000000011      25.100000000000001      15.060000000000002
   315   1      7.5300000000000011                  26.355      16.315000000000001
   316   1      8.7850000000000001      25.100000000000001      16.315000000000001
   317   1      8.7850000000000001                  26.355      15.060000000000002
   318   1      7.5300000000000011      25.100000000000001                   17.57
   319   1      7.5300000000000011                  26.355      18.824999999999999
   320   1      8.7850000000000001      25.100000000000001      18.824999999999999
   321   1      8.7850000000000001                  26.355                   17.57
   322   1      7.5300000000000011      25.100000000000001      20.080000000000002
   323   1      8.7850000000000001      25.100000000000001      21.334999999999997
   324   1      8.7850000000000001                  26.355      20.080000000000002
   325   1      8.7850000000000001      25.100000000000001      23.845000000000002
   326   1      8.7850000000000001                  26.355                   22.59
   327   1      8.7850000000000001      27.610000000000003      16.315000000000001
   328   1      8.7850000000000001      27.610000000000003      18.824999999999999
   329   1      10.040000000000003       6.275000000000003      16.315000000000001
   330   1      11.295000000000002       6.275000000000003      15.060000000000002
   331   1      10.040000000000003       6.275000000000003      18.824999999999999
   332   1      11.295000000000002       6.275000000000003                   17.57
   333   1      11.295000000000002       6.275000000000003      20.080000000000002
   334   1      10.040000000000003      8.7850000000000001      11.295000000000002
   335   1      11.295000000000002      7.5300000000000011      11.295000000000002
   336   1      11.295000000000002      8.7850000000000001      10.040000000000003
   337   1      10.040000000000003      8.7850000000000001      13.805000000000001
   338   1      11.295000000000002      7.5300000000000011      13.805000000000001
   339   1      11.295000000000002      8.7850000000000001      12.550000000000001
   340   1      10.040000000000003      7.5300000000000011      15.060000000000002
   341   1      10.040000000000003      8.7850000000000001      16.315000000000001
   342   1      11.295000000000002      7.5300000000000011      16.315000000000001
   343   1      11.295000000000002      8.7850000000000001      15.060000000000002
   344   1      10.040000000000003      7.5300000000000011                   17.57
   345   1      10.040000000000003      8.7850000000000001      18.824999999999999
   346   1      11.295000000000002      7.5300000000000011      18.824999999999999
   347   1      11.295000000000002      8.7850000000000001                   17.57
   348   1      10.040000000000003      7.5300000000000011      20.080000000000002
   349   1      10.040000000000003      8.7850000000000001      21.334999999999997
   350   1      11.295000000000002      7.5300000000000011      21.334999999999997
   351   1      11.295000000000002      8.7850000000000001      20.080000000000002
   352   1      10.040000000000003      8.7850000000000001      23.845000000000002
   353   1      11.295000000000002      7.5300000000000011      23.845000000000002
   354   1      11.295000000000002      8.7850000000000001                   22.59
   355   1      11.295000000000002      8.7850000000000001      25.100000000000001
   356   1      10.040000000000003      11.295000000000002      8.7850000000000001
   357   1      11.295000000000002      10.040000000000003      8.7850000000000001
   358   1      11.295000000000002      11.295000000000002      7.5300000000000011