model_files/PdCo/PdCo_30000/PdCo_540/PdCo_540_fcc_29765_temp.data (written by ASE) 

29765 	 atoms 
2  atom types
0.0                     104  xlo xhi
0.0                     104  ylo yhi
0.0                     104  zlo zhi


Atoms 

     1   1                       0      50.625000000000007      50.625000000000007
     2   1      1.8750000000000002                   48.75      50.625000000000007
     3   1      1.8750000000000002      50.625000000000007                   48.75
     4   1                       0      50.625000000000007                  54.375
     5   1      1.8750000000000002                   48.75                  54.375
     6   1      1.8750000000000002      50.625000000000007                    52.5
     7   1      1.8750000000000002      50.625000000000007      56.250000000000007
     8   1                       0                  54.375      50.625000000000007
     9   1      1.8750000000000002                    52.5      50.625000000000007
    10   1      1.8750000000000002                  54.375                   48.75
    11   1                       0                    52.5                    52.5
    12   1                       0                  54.375                  54.375
    13   1      1.8750000000000002                    52.5                  54.375
    14   1      1.8750000000000002                  54.375                    52.5
    15   1      1.8750000000000002                  54.375      56.250000000000007
    16   1      1.8750000000000002      56.250000000000007      50.625000000000007
    17   1      1.8750000000000002      56.250000000000007                  54.375
    18   1      3.7500000000000004                  46.875                  46.875
    19   1                   5.625                      45                  46.875
    20   1                   5.625                  46.875                      45
    21   1      3.7500000000000004                  46.875      50.625000000000007
    22   1                   5.625                      45      50.625000000000007
    23   1                   5.625                  46.875                   48.75
    24   1      3.7500000000000004                  46.875                  54.375
    25   1                   5.625                      45                  54.375
    26   1                   5.625                  46.875                    52.5
    27   1      3.7500000000000004                  46.875      58.125000000000007
    28   1                   5.625                      45      58.125000000000007
    29   1                   5.625                  46.875      56.250000000000007
    30   1                   5.625                  46.875      60.000000000000007
    31   1      3.7500000000000004      50.625000000000007                  46.875
    32   1                   5.625                   48.75                  46.875
    33   1                   5.625      50.625000000000007                      45
    34   1      3.7500000000000004                   48.75                   48.75
    35   1      3.7500000000000004      50.625000000000007      50.625000000000007
    36   1                   5.625                   48.75      50.625000000000007
    37   1                   5.625      50.625000000000007                   48.75
    38   1      3.7500000000000004                   48.75                    52.5
    39   1      3.7500000000000004      50.625000000000007                  54.375
    40   1                   5.625                   48.75                  54.375
    41   1                   5.625      50.625000000000007                    52.5
    42   1      3.7500000000000004                   48.75      56.250000000000007
    43   1      3.7500000000000004      50.625000000000007      58.125000000000007
    44   1                   5.625                   48.75      58.125000000000007
    45   1                   5.625      50.625000000000007      56.250000000000007
    46   1                   5.625      50.625000000000007      60.000000000000007
    47   1      3.7500000000000004                  54.375                  46.875
    48   1                   5.625                    52.5                  46.875
    49   1                   5.625                  54.375                      45
    50   1      3.7500000000000004                    52.5                   48.75
    51   1      3.7500000000000004                  54.375      50.625000000000007
    52   1                   5.625                    52.5      50.625000000000007
    53   1                   5.625                  54.375                   48.75
    54   1      3.7500000000000004                    52.5                    52.5
    55   1      3.7500000000000004                  54.375                  54.375
    56   1                   5.625                    52.5                  54.375
    57   1                   5.625                  54.375                    52.5
    58   1      3.7500000000000004                    52.5      56.250000000000007
    59   1      3.7500000000000004                  54.375      58.125000000000007
    60   1                   5.625                    52.5      58.125000000000007
    61   1                   5.625                  54.375      56.250000000000007
    62   1                   5.625                  54.375      60.000000000000007
    63   1      3.7500000000000004      58.125000000000007                  46.875
    64   1                   5.625      56.250000000000007                  46.875
    65   1                   5.625      58.125000000000007                      45
    66   1      3.7500000000000004      56.250000000000007                   48.75
    67   1      3.7500000000000004      58.125000000000007      50.625000000000007
    68   1                   5.625      56.250000000000007      50.625000000000007
    69   1                   5.625      58.125000000000007                   48.75
    70   1      3.7500000000000004      56.250000000000007                    52.5
    71   1      3.7500000000000004      58.125000000000007                  54.375
    72   1                   5.625      56.250000000000007                  54.375
    73   1                   5.625      58.125000000000007                    52.5
    74   1      3.7500000000000004      56.250000000000007      56.250000000000007
    75   1      3.7500000000000004      58.125000000000007      58.125000000000007
    76   1                   5.625      56.250000000000007      58.125000000000007
    77   1                   5.625      58.125000000000007      56.250000000000007
    78   1                   5.625      58.125000000000007      60.000000000000007
    79   1                   5.625      60.000000000000007                  46.875
    80   1                   5.625      60.000000000000007      50.625000000000007
    81   1                   5.625      60.000000000000007                  54.375
    82   1                   5.625      60.000000000000007      58.125000000000007
    83   1                   9.375      39.375000000000007                   41.25
    84   1                   9.375      39.375000000000007                      45
    85   1                   9.375      39.375000000000007                   48.75
    86   1                   9.375      39.375000000000007                    52.5
    87   1                   9.375      39.375000000000007      56.250000000000007
    88   1                   9.375      39.375000000000007      60.000000000000007
    89   1                   9.375      39.375000000000007      63.750000000000007
    90   1                   9.375                   41.25      39.375000000000007
    91   1      7.5000000000000009                   41.25                   41.25
    92   1      7.5000000000000009                  43.125                  43.125
    93   1                   9.375                   41.25                  43.125
    94   1                   9.375                  43.125                   41.25
    95   1      7.5000000000000009                   41.25                      45
    96   1      7.5000000000000009                  43.125                  46.875
    97   1                   9.375                   41.25                  46.875
    98   1                   9.375                  43.125                      45
    99   1      7.5000000000000009                   41.25                   48.75
   100   1      7.5000000000000009                  43.125      50.625000000000007
   101   1                   9.375                   41.25      50.625000000000007
   102   1                   9.375                  43.125                   48.75
   103   1      7.5000000000000009                   41.25                    52.5
   104   1      7.5000000000000009                  43.125                  54.375
   105   1                   9.375                   41.25                  54.375
   106   1                   9.375                  43.125                    52.5
   107   1      7.5000000000000009                   41.25      56.250000000000007
   108   1      7.5000000000000009                  43.125      58.125000000000007
   109   1                   9.375                   41.25      58.125000000000007
   110   1                   9.375                  43.125      56.250000000000007
   111   1      7.5000000000000009                   41.25      60.000000000000007
   112   1      7.5000000000000009                  43.125      61.875000000000007
   113   1                   9.375                   41.25      61.875000000000007
   114   1                   9.375                  43.125      60.000000000000007
   115   1      7.5000000000000009                   41.25      63.750000000000007
   116   1                   9.375                   41.25                  65.625
   117   1                   9.375                  43.125      63.750000000000007
   118   1                   9.375                      45      39.375000000000007
   119   1      7.5000000000000009                      45                   41.25
   120   1      7.5000000000000009                  46.875                  43.125
   121   1                   9.375                      45                  43.125
   122   1                   9.375                  46.875                   41.25
   123   1      7.5000000000000009                      45                      45
   124   1      7.5000000000000009                  46.875                  46.875
   125   1                   9.375                      45                  46.875
   126   1                   9.375                  46.875                      45
   127   1      7.5000000000000009                      45                   48.75
   128   1      7.5000000000000009                  46.875      50.625000000000007
   129   1                   9.375                      45      50.625000000000007
   130   1                   9.375                  46.875                   48.75
   131   1      7.5000000000000009                      45                    52.5
   132   1      7.5000000000000009                  46.875                  54.375
   133   1                   9.375                      45                  54.375
   134   1                   9.375                  46.875                    52.5
   135   1      7.5000000000000009                      45      56.250000000000007
   136   1      7.5000000000000009                  46.875      58.125000000000007
   137   1                   9.375                      45      58.125000000000007
   138   1                   9.375                  46.875      56.250000000000007
   139   1      7.5000000000000009                      45      60.000000000000007
   140   1      7.5000000000000009                  46.875      61.875000000000007
   141   1                   9.375                      45      61.875000000000007
   142   1                   9.375                  46.875      60.000000000000007
   143   1      7.5000000000000009                      45      63.750000000000007
   144   1                   9.375                      45                  65.625
   145   1                   9.375                  46.875      63.750000000000007
   146   1                   9.375                   48.75      39.375000000000007
   147   1      7.5000000000000009                   48.75                   41.25
   148   1      7.5000000000000009      50.625000000000007                  43.125
   149   1                   9.375                   48.75                  43.125
   150   1                   9.375      50.625000000000007                   41.25
   151   1      7.5000000000000009                   48.75                      45
   152   1      7.5000000000000009      50.625000000000007                  46.875
   153   1                   9.375                   48.75                  46.875
   154   1                   9.375      50.625000000000007                      45
   155   1      7.5000000000000009                   48.75                   48.75
   156   1      7.5000000000000009      50.625000000000007      50.625000000000007
   157   1                   9.375                   48.75      50.625000000000007
   158   1                   9.375      50.625000000000007                   48.75
   159   1      7.5000000000000009                   48.75                    52.5
   160   1      7.5000000000000009      50.625000000000007                  54.375
   161   1                   9.375                   48.75                  54.375
   162   1                   9.375      50.625000000000007                    52.5
   163   1      7.5000000000000009                   48.75      56.250000000000007
   164   1      7.5000000000000009      50.625000000000007      58.125000000000007
   165   1                   9.375                   48.75      58.125000000000007
   166   1                   9.375      50.625000000000007      56.250000000000007
   167   1      7.5000000000000009                   48.75      60.000000000000007
   168   1      7.5000000000000009      50.625000000000007      61.875000000000007
   169   1                   9.375                   48.75      61.875000000000007
   170   1                   9.375      50.625000000000007      60.000000000000007
   171   1      7.5000000000000009                   48.75      63.750000000000007
   172   1                   9.375                   48.75                  65.625
   173   1                   9.375      50.625000000000007      63.750000000000007
   174   1                   9.375                    52.5      39.375000000000007
   175   1      7.5000000000000009                    52.5                   41.25
   176   1      7.5000000000000009                  54.375                  43.125
   177   1                   9.375                    52.5                  43.125
   178   1                   9.375                  54.375                   41.25
   179   1      7.5000000000000009                    52.5                      45
   180   1      7.5000000000000009                  54.375                  46.875
   181   1                   9.375                    52.5                  46.875
   182   1                   9.375                  54.375                      45
   183   1      7.5000000000000009                    52.5                   48.75
   184   1      7.5000000000000009                  54.375      50.625000000000007
   185   1                   9.375                    52.5      50.625000000000007
   186   1                   9.375                  54.375                   48.75
   187   1      7.5000000000000009                    52.5                    52.5
   188   1      7.5000000000000009                  54.375                  54.375
   189   1                   9.375                    52.5                  54.375
   190   1                   9.375                  54.375                    52.5
   191   1      7.5000000000000009                    52.5      56.250000000000007
   192   1      7.5000000000000009                  54.375      58.125000000000007
   193   1                   9.375                    52.5      58.125000000000007
   194   1                   9.375                  54.375      56.250000000000007
   195   1      7.5000000000000009                    52.5      60.000000000000007
   196   1      7.5000000000000009                  54.375      61.875000000000007
   197   1                   9.375                    52.5      61.875000000000007
   198   1                   9.375                  54.375      60.000000000000007
   199   1      7.5000000000000009                    52.5      63.750000000000007
   200   1                   9.375                    52.5                  65.625
   201   1                   9.375                  54.375      63.750000000000007
   202   1                   9.375      56.250000000000007      39.375000000000007
   203   1      7.5000000000000009      56.250000000000007                   41.25
   204   1      7.5000000000000009      58.125000000000007                  43.125
   205   1                   9.375      56.250000000000007                  43.125
   206   1                   9.375      58.125000000000007                   41.25
   207   1      7.5000000000000009      56.250000000000007                      45
   208   1      7.5000000000000009      58.125000000000007                  46.875
   209   1                   9.375      56.250000000000007                  46.875
   210   1                   9.375      58.125000000000007                      45
   211   1      7.5000000000000009      56.250000000000007                   48.75
   212   1      7.5000000000000009      58.125000000000007      50.625000000000007
   213   1                   9.375      56.250000000000007      50.625000000000007
   214   1                   9.375      58.125000000000007                   48.75
   215   1      7.5000000000000009      56.250000000000007                    52.5
   216   1      7.5000000000000009      58.125000000000007                  54.375
   217   1                   9.375      56.250000000000007                  54.375
   218   1                   9.375      58.125000000000007                    52.5
   219   1      7.5000000000000009      56.250000000000007      56.250000000000007
   220   1      7.5000000000000009      58.125000000000007      58.125000000000007
   221   1                   9.375      56.250000000000007      58.125000000000007
   222   1                   9.375      58.125000000000007      56.250000000000007
   223   1      7.5000000000000009      56.250000000000007      60.000000000000007
   224   1      7.5000000000000009      58.125000000000007      61.875000000000007
   225   1                   9.375      56.250000000000007      61.875000000000007
   226   1                   9.375      58.125000000000007      60.000000000000007
   227   1      7.5000000000000009      56.250000000000007      63.750000000000007
   228   1                   9.375      56.250000000000007                  65.625
   229   1                   9.375      58.125000000000007      63.750000000000007
   230   1                   9.375      60.000000000000007      39.375000000000007
   231   1      7.5000000000000009      60.000000000000007                   41.25
   232   1      7.5000000000000009      61.875000000000007                  43.125
   233   1                   9.375      60.000000000000007                  43.125
   234   1                   9.375      61.875000000000007                   41.25
   235   1      7.5000000000000009      60.000000000000007                      45
   236   1      7.5000000000000009      61.875000000000007                  46.875
   237   1                   9.375      60.000000000000007                  46.875
   238   1                   9.375      61.875000000000007                      45
   239   1      7.5000000000000009      60.000000000000007                   48.75
   240   1      7.5000000000000009      61.875000000000007      50.625000000000007
   241   1                   9.375      60.000000000000007      50.625000000000007
   242   1                   9.375      61.875000000000007                   48.75
   243   1      7.5000000000000009      60.000000000000007                    52.5
   244   1      7.5000000000000009      61.875000000000007                  54.375
   245   1                   9.375      60.000000000000007                  54.375
   246   1                   9.375      61.875000000000007                    52.5
   247   1      7.5000000000000009      60.000000000000007      56.250000000000007
   248   1      7.5000000000000009      61.875000000000007      58.125000000000007
   249   1                   9.375      60.000000000000007      58.125000000000007
   250   1                   9.375      61.875000000000007      56.250000000000007
   251   1      7.5000000000000009      60.000000000000007      60.000000000000007
   252   1      7.5000000000000009      61.875000000000007      61.875000000000007
   253   1                   9.375      60.000000000000007      61.875000000000007
   254   1                   9.375      61.875000000000007      60.000000000000007
   255   1      7.5000000000000009      60.000000000000007      63.750000000000007
   256   1                   9.375      60.000000000000007                  65.625
   257   1                   9.375      61.875000000000007      63.750000000000007
   258   1                   9.375      63.750000000000007      39.375000000000007
   259   1      7.5000000000000009      63.750000000000007                   41.25
   260   1                   9.375      63.750000000000007                  43.125
   261   1                   9.375                  65.625                   41.25
   262   1      7.5000000000000009      63.750000000000007                      45
   263   1                   9.375      63.750000000000007                  46.875
   264   1                   9.375                  65.625                      45
   265   1      7.5000000000000009      63.750000000000007                   48.75
   266   1                   9.375      63.750000000000007      50.625000000000007
   267   1                   9.375                  65.625                   48.75
   268   1      7.5000000000000009      63.750000000000007                    52.5
   269   1                   9.375      63.750000000000007                  54.375
   270   1                   9.375                  65.625                    52.5
   271   1      7.5000000000000009      63.750000000000007      56.250000000000007
   272   1                   9.375      63.750000000000007      58.125000000000007
   273   1                   9.375                  65.625      56.250000000000007
   274   1      7.5000000000000009      63.750000000000007      60.000000000000007
   275   1                   9.375      63.750000000000007      61.875000000000007
   276   1                   9.375                  65.625      60.000000000000007
   277   1      7.5000000000000009      63.750000000000007      63.750000000000007
   278   1                   9.375      63.750000000000007                  65.625
   279   1                   9.375                  65.625      63.750000000000007
   280   1                  13.125                  35.625                    37.5
   281   1                  13.125                  35.625                   41.25
   282   1                  13.125                  35.625                      45
   283   1                  13.125                  35.625                   48.75
   284   1                  13.125                  35.625                    52.5
   285   1                  13.125                  35.625      56.250000000000007
   286   1                  13.125                  35.625      60.000000000000007
   287   1                  13.125                  35.625      63.750000000000007
   288   1                  13.125                  35.625                    67.5
   289   1                  13.125                    37.5                  35.625
   290   1                   11.25                    37.5                    37.5
   291   1                   11.25      39.375000000000007      39.375000000000007
   292   1                  13.125                    37.5      39.375000000000007
   293   1                  13.125      39.375000000000007                    37.5
   294   1                   11.25                    37.5                   41.25
   295   1                   11.25      39.375000000000007                  43.125
   296   1                  13.125                    37.5                  43.125
   297   1                  13.125      39.375000000000007                   41.25
   298   1                   11.25                    37.5                      45
   299   1                   11.25      39.375000000000007                  46.875
   300   1                  13.125                    37.5                  46.875
   301   1                  13.125      39.375000000000007                      45
   302   1                   11.25                    37.5                   48.75
   303   1                   11.25      39.375000000000007      50.625000000000007
   304   1                  13.125                    37.5      50.625000000000007
   305   1                  13.125      39.375000000000007                   48.75
   306   1                   11.25                    37.5                    52.5
   307   1                   11.25      39.375000000000007                  54.375
   308   1                  13.125                    37.5                  54.375
   309   1                  13.125      39.375000000000007                    52.5
   310   1                   11.25                    37.5      56.250000000000007
   311   1                   11.25      39.375000000000007      58.125000000000007
   312   1                  13.125                    37.5      58.125000000000007
   313   1                  13.125      39.375000000000007      56.250000000000007
   314   1                   11.25                    37.5      60.000000000000007
   315   1                   11.25      39.375000000000007      61.875000000000007
   316   1                  13.125                    37.5      61.875000000000007
   317   1                  13.125      39.375000000000007      60.000000000000007
   318   1                   11.25                    37.5      63.750000000000007
   319   1                   11.25      39.375000000000007                  65.625
   320   1                  13.125                    37.5                  65.625
   321   1                  13.125      39.375000000000007      63.750000000000007
   322   1                   11.25                    37.5                    67.5
   323   1                  13.125                    37.5                  69.375
   324   1                  13.125      39.375000000000007                    67.5
   325   1                  13.125                   41.25                  35.625
   326   1                   11.25                   41.25                    37.5
   327   1                   11.25                  43.125      39.375000000000007
   328   1                  13.125                   41.25      39.375000000000007
   329   1                  13.125                  43.125                    37.5
   330   1                   11.25                   41.25                   41.25
   331   1                   11.25                  43.125                  43.125
   332   1                  13.125                   41.25                  43.125
   333   1                  13.125                  43.125                   41.25
   334   1                   11.25                   41.25                      45
   335   1                   11.25                  43.125                  46.875
   336   1                  13.125                   41.25                  46.875
   337   1                  13.125                  43.125                      45
   338   1                   11.25                   41.25                   48.75
   339   1                   11.25                  43.125      50.625000000000007
   340   1                  13.125                   41.25      50.625000000000007
   341   1                  13.125                  43.125                   48.75
   342   1                   11.25                   41.25                    52.5
   343   1                   11.25                  43.125                  54.375
   344   1                  13.125                   41.25                  54.375
   345   1                  13.125                  43.125                    52.5
   346   1                   11.25                   41.25      56.250000000000007
   347   1                   11.25                  43.125      58.125000000000007
   348   1                  13.125                   41.25      58.125000000000007
   349   1                  13.125                  43.125      56.250000000000007
   350   1                   11.25                   41.25      60.000000000000007
   351   1                   11.25                  43.125      61.875000000000007
   352   1                  13.125                   41.25      61.875000000000007
   353   1                  13.125                  43.125      60.000000000000007
   354   1                   11.25                   41.25      63.750000000000007
   355   1                   11.25                  43.125                  65.625
   356   1                  13.125                   41.25                  65.625
   357   1                  13.125                  43.125      63.750000000000007
   358   1                   11.25                   41.25                    67.5