model_files/Co/Co_3000/Co_540/data.Co_540_hcp_2977 (written by ASE) 

2977 	 atoms 
1  atom types
0.0                      30  xlo xhi
0.0                      30  ylo yhi
0.0                      30  zlo zhi


Atoms 

     1   1      1.2549999999999955      11.294999999999995      12.549999999999994
     2   1      1.2549999999999955      11.294999999999995      15.059999999999993
     3   1      1.2549999999999955      11.294999999999995      17.569999999999993
     4   1      1.2549999999999955      12.549999999999994      11.294999999999995
     5   1      29.999999999999993      13.804999999999993      13.804999999999993
     6   1      1.2549999999999955      12.549999999999994      13.804999999999993
     7   1      1.2549999999999955      13.804999999999993      12.549999999999994
     8   1      29.999999999999993      13.804999999999993      16.314999999999994
     9   1      1.2549999999999955      12.549999999999994      16.314999999999994
    10   1      1.2549999999999955      13.804999999999993      15.059999999999993
    11   1      1.2549999999999955      12.549999999999994      18.824999999999992
    12   1      1.2549999999999955      13.804999999999993      17.569999999999993
    13   1      1.2549999999999955      15.059999999999993      11.294999999999995
    14   1      29.999999999999993      16.314999999999994      13.804999999999993
    15   1      1.2549999999999955      15.059999999999993      13.804999999999993
    16   1      1.2549999999999955      16.314999999999994      12.549999999999994
    17   1      29.999999999999993      15.059999999999993      15.059999999999993
    18   1      29.999999999999993      16.314999999999994      16.314999999999994
    19   1      1.2549999999999955      15.059999999999993      16.314999999999994
    20   1      1.2549999999999955      16.314999999999994      15.059999999999993
    21   1      1.2549999999999955      15.059999999999993      18.824999999999992
    22   1      1.2549999999999955      16.314999999999994      17.569999999999993
    23   1      1.2549999999999955      17.569999999999993      11.294999999999995
    24   1      1.2549999999999955      17.569999999999993      13.804999999999993
    25   1      1.2549999999999955      18.824999999999992      12.549999999999994
    26   1      1.2549999999999955      17.569999999999993      16.314999999999994
    27   1      1.2549999999999955      18.824999999999992      15.059999999999993
    28   1      1.2549999999999955      17.569999999999993      18.824999999999992
    29   1      1.2549999999999955      18.824999999999992      17.569999999999993
    30   1      3.7649999999999935       8.784999999999993      10.039999999999994
    31   1      3.7649999999999935       8.784999999999993      12.549999999999994
    32   1      3.7649999999999935       8.784999999999993      15.059999999999993
    33   1      3.7649999999999935       8.784999999999993      17.569999999999993
    34   1      3.7649999999999935       8.784999999999993      20.079999999999991
    35   1      3.7649999999999935      10.039999999999994       8.784999999999993
    36   1      2.5099999999999945      10.039999999999994      10.039999999999994
    37   1      2.5099999999999945      11.294999999999995      11.294999999999995
    38   1      3.7649999999999935      10.039999999999994      11.294999999999995
    39   1      3.7649999999999935      11.294999999999995      10.039999999999994
    40   1      2.5099999999999945      10.039999999999994      12.549999999999994
    41   1      2.5099999999999945      11.294999999999995      13.804999999999993
    42   1      3.7649999999999935      10.039999999999994      13.804999999999993
    43   1      3.7649999999999935      11.294999999999995      12.549999999999994
    44   1      2.5099999999999945      10.039999999999994      15.059999999999993
    45   1      2.5099999999999945      11.294999999999995      16.314999999999994
    46   1      3.7649999999999935      10.039999999999994      16.314999999999994
    47   1      3.7649999999999935      11.294999999999995      15.059999999999993
    48   1      2.5099999999999945      10.039999999999994      17.569999999999993
    49   1      2.5099999999999945      11.294999999999995      18.824999999999992
    50   1      3.7649999999999935      10.039999999999994      18.824999999999992
    51   1      3.7649999999999935      11.294999999999995      17.569999999999993
    52   1      2.5099999999999945      10.039999999999994      20.079999999999991
    53   1      3.7649999999999935      10.039999999999994      21.334999999999987
    54   1      3.7649999999999935      11.294999999999995      20.079999999999991
    55   1      3.7649999999999935      12.549999999999994       8.784999999999993
    56   1      2.5099999999999945      12.549999999999994      10.039999999999994
    57   1      2.5099999999999945      13.804999999999993      11.294999999999995
    58   1      3.7649999999999935      12.549999999999994      11.294999999999995
    59   1      3.7649999999999935      13.804999999999993      10.039999999999994
    60   1      2.5099999999999945      12.549999999999994      12.549999999999994
    61   1      2.5099999999999945      13.804999999999993      13.804999999999993
    62   1      3.7649999999999935      12.549999999999994      13.804999999999993
    63   1      3.7649999999999935      13.804999999999993      12.549999999999994
    64   1      2.5099999999999945      12.549999999999994      15.059999999999993
    65   1      2.5099999999999945      13.804999999999993      16.314999999999994
    66   1      3.7649999999999935      12.549999999999994      16.314999999999994
    67   1      3.7649999999999935      13.804999999999993      15.059999999999993
    68   1      2.5099999999999945      12.549999999999994      17.569999999999993
    69   1      2.5099999999999945      13.804999999999993      18.824999999999992
    70   1      3.7649999999999935      12.549999999999994      18.824999999999992
    71   1      3.7649999999999935      13.804999999999993      17.569999999999993
    72   1      2.5099999999999945      12.549999999999994      20.079999999999991
    73   1      3.7649999999999935      12.549999999999994      21.334999999999987
    74   1      3.7649999999999935      13.804999999999993      20.079999999999991
    75   1      3.7649999999999935      15.059999999999993       8.784999999999993
    76   1      2.5099999999999945      15.059999999999993      10.039999999999994
    77   1      2.5099999999999945      16.314999999999994      11.294999999999995
    78   1      3.7649999999999935      15.059999999999993      11.294999999999995
    79   1      3.7649999999999935      16.314999999999994      10.039999999999994
    80   1      2.5099999999999945      15.059999999999993      12.549999999999994
    81   1      2.5099999999999945      16.314999999999994      13.804999999999993
    82   1      3.7649999999999935      15.059999999999993      13.804999999999993
    83   1      3.7649999999999935      16.314999999999994      12.549999999999994
    84   1      2.5099999999999945      15.059999999999993      15.059999999999993
    85   1      2.5099999999999945      16.314999999999994      16.314999999999994
    86   1      3.7649999999999935      15.059999999999993      16.314999999999994
    87   1      3.7649999999999935      16.314999999999994      15.059999999999993
    88   1      2.5099999999999945      15.059999999999993      17.569999999999993
    89   1      2.5099999999999945      16.314999999999994      18.824999999999992
    90   1      3.7649999999999935      15.059999999999993      18.824999999999992
    91   1      3.7649999999999935      16.314999999999994      17.569999999999993
    92   1      2.5099999999999945      15.059999999999993      20.079999999999991
    93   1      3.7649999999999935      15.059999999999993      21.334999999999987
    94   1      3.7649999999999935      16.314999999999994      20.079999999999991
    95   1      3.7649999999999935      17.569999999999993       8.784999999999993
    96   1      2.5099999999999945      17.569999999999993      10.039999999999994
    97   1      2.5099999999999945      18.824999999999992      11.294999999999995
    98   1      3.7649999999999935      17.569999999999993      11.294999999999995
    99   1      3.7649999999999935      18.824999999999992      10.039999999999994
   100   1      2.5099999999999945      17.569999999999993      12.549999999999994
   101   1      2.5099999999999945      18.824999999999992      13.804999999999993
   102   1      3.7649999999999935      17.569999999999993      13.804999999999993
   103   1      3.7649999999999935      18.824999999999992      12.549999999999994
   104   1      2.5099999999999945      17.569999999999993      15.059999999999993
   105   1      2.5099999999999945      18.824999999999992      16.314999999999994
   106   1      3.7649999999999935      17.569999999999993      16.314999999999994
   107   1      3.7649999999999935      18.824999999999992      15.059999999999993
   108   1      2.5099999999999945      17.569999999999993      17.569999999999993
   109   1      2.5099999999999945      18.824999999999992      18.824999999999992
   110   1      3.7649999999999935      17.569999999999993      18.824999999999992
   111   1      3.7649999999999935      18.824999999999992      17.569999999999993
   112   1      2.5099999999999945      17.569999999999993      20.079999999999991
   113   1      3.7649999999999935      17.569999999999993      21.334999999999987
   114   1      3.7649999999999935      18.824999999999992      20.079999999999991
   115   1      3.7649999999999935      20.079999999999991       8.784999999999993
   116   1      2.5099999999999945      20.079999999999991      10.039999999999994
   117   1      3.7649999999999935      20.079999999999991      11.294999999999995
   118   1      3.7649999999999935      21.334999999999987      10.039999999999994
   119   1      2.5099999999999945      20.079999999999991      12.549999999999994
   120   1      3.7649999999999935      20.079999999999991      13.804999999999993
   121   1      3.7649999999999935      21.334999999999987      12.549999999999994
   122   1      2.5099999999999945      20.079999999999991      15.059999999999993
   123   1      3.7649999999999935      20.079999999999991      16.314999999999994
   124   1      3.7649999999999935      21.334999999999987      15.059999999999993
   125   1      2.5099999999999945      20.079999999999991      17.569999999999993
   126   1      3.7649999999999935      20.079999999999991      18.824999999999992
   127   1      3.7649999999999935      21.334999999999987      17.569999999999993
   128   1      2.5099999999999945      20.079999999999991      20.079999999999991
   129   1      3.7649999999999935      20.079999999999991      21.334999999999987
   130   1      3.7649999999999935      21.334999999999987      20.079999999999991
   131   1       6.274999999999995       6.274999999999995      7.5299999999999931
   132   1       6.274999999999995       6.274999999999995      10.039999999999994
   133   1       6.274999999999995       6.274999999999995      12.549999999999994
   134   1       6.274999999999995       6.274999999999995      15.059999999999993
   135   1       6.274999999999995       6.274999999999995      17.569999999999993
   136   1       6.274999999999995       6.274999999999995      20.079999999999991
   137   1       6.274999999999995       6.274999999999995      22.589999999999993
   138   1       6.274999999999995      7.5299999999999931       6.274999999999995
   139   1      5.0199999999999942      7.5299999999999931      7.5299999999999931
   140   1      5.0199999999999942       8.784999999999993       8.784999999999993
   141   1       6.274999999999995      7.5299999999999931       8.784999999999993
   142   1       6.274999999999995       8.784999999999993      7.5299999999999931
   143   1      5.0199999999999942      7.5299999999999931      10.039999999999994
   144   1      5.0199999999999942       8.784999999999993      11.294999999999995
   145   1       6.274999999999995      7.5299999999999931      11.294999999999995
   146   1       6.274999999999995       8.784999999999993      10.039999999999994
   147   1      5.0199999999999942      7.5299999999999931      12.549999999999994
   148   1      5.0199999999999942       8.784999999999993      13.804999999999993
   149   1       6.274999999999995      7.5299999999999931      13.804999999999993
   150   1       6.274999999999995       8.784999999999993      12.549999999999994
   151   1      5.0199999999999942      7.5299999999999931      15.059999999999993
   152   1      5.0199999999999942       8.784999999999993      16.314999999999994
   153   1       6.274999999999995      7.5299999999999931      16.314999999999994
   154   1       6.274999999999995       8.784999999999993      15.059999999999993
   155   1      5.0199999999999942      7.5299999999999931      17.569999999999993
   156   1      5.0199999999999942       8.784999999999993      18.824999999999992
   157   1       6.274999999999995      7.5299999999999931      18.824999999999992
   158   1       6.274999999999995       8.784999999999993      17.569999999999993
   159   1      5.0199999999999942      7.5299999999999931      20.079999999999991
   160   1      5.0199999999999942       8.784999999999993      21.334999999999987
   161   1       6.274999999999995      7.5299999999999931      21.334999999999987
   162   1       6.274999999999995       8.784999999999993      20.079999999999991
   163   1      5.0199999999999942      7.5299999999999931      22.589999999999993
   164   1       6.274999999999995      7.5299999999999931      23.844999999999992
   165   1       6.274999999999995       8.784999999999993      22.589999999999993
   166   1       6.274999999999995      10.039999999999994       6.274999999999995
   167   1      5.0199999999999942      10.039999999999994      7.5299999999999931
   168   1      5.0199999999999942      11.294999999999995       8.784999999999993
   169   1       6.274999999999995      10.039999999999994       8.784999999999993
   170   1       6.274999999999995      11.294999999999995      7.5299999999999931
   171   1      5.0199999999999942      10.039999999999994      10.039999999999994
   172   1      5.0199999999999942      11.294999999999995      11.294999999999995
   173   1       6.274999999999995      10.039999999999994      11.294999999999995
   174   1       6.274999999999995      11.294999999999995      10.039999999999994
   175   1      5.0199999999999942      10.039999999999994      12.549999999999994
   176   1      5.0199999999999942      11.294999999999995      13.804999999999993
   177   1       6.274999999999995      10.039999999999994      13.804999999999993
   178   1       6.274999999999995      11.294999999999995      12.549999999999994
   179   1      5.0199999999999942      10.039999999999994      15.059999999999993
   180   1      5.0199999999999942      11.294999999999995      16.314999999999994
   181   1       6.274999999999995      10.039999999999994      16.314999999999994
   182   1       6.274999999999995      11.294999999999995      15.059999999999993
   183   1      5.0199999999999942      10.039999999999994      17.569999999999993
   184   1      5.0199999999999942      11.294999999999995      18.824999999999992
   185   1       6.274999999999995      10.039999999999994      18.824999999999992
   186   1       6.274999999999995      11.294999999999995      17.569999999999993
   187   1      5.0199999999999942      10.039999999999994      20.079999999999991
   188   1      5.0199999999999942      11.294999999999995      21.334999999999987
   189   1       6.274999999999995      10.039999999999994      21.334999999999987
   190   1       6.274999999999995      11.294999999999995      20.079999999999991
   191   1      5.0199999999999942      10.039999999999994      22.589999999999993
   192   1       6.274999999999995      10.039999999999994      23.844999999999992
   193   1       6.274999999999995      11.294999999999995      22.589999999999993
   194   1       6.274999999999995      12.549999999999994       6.274999999999995
   195   1      5.0199999999999942      12.549999999999994      7.5299999999999931
   196   1      5.0199999999999942      13.804999999999993       8.784999999999993
   197   1       6.274999999999995      12.549999999999994       8.784999999999993
   198   1       6.274999999999995      13.804999999999993      7.5299999999999931
   199   1      5.0199999999999942      12.549999999999994      10.039999999999994
   200   1      5.0199999999999942      13.804999999999993      11.294999999999995
   201   1       6.274999999999995      12.549999999999994      11.294999999999995
   202   1       6.274999999999995      13.804999999999993      10.039999999999994
   203   1      5.0199999999999942      12.549999999999994      12.549999999999994
   204   1      5.0199999999999942      13.804999999999993      13.804999999999993
   205   1       6.274999999999995      12.549999999999994      13.804999999999993
   206   1       6.274999999999995      13.804999999999993      12.549999999999994
   207   1      5.0199999999999942      12.549999999999994      15.059999999999993
   208   1      5.0199999999999942      13.804999999999993      16.314999999999994
   209   1       6.274999999999995      12.549999999999994      16.314999999999994
   210   1       6.274999999999995      13.804999999999993      15.059999999999993
   211   1      5.0199999999999942      12.549999999999994      17.569999999999993
   212   1      5.0199999999999942      13.804999999999993      18.824999999999992
   213   1       6.274999999999995      12.549999999999994      18.824999999999992
   214   1       6.274999999999995      13.804999999999993      17.569999999999993
   215   1      5.0199999999999942      12.549999999999994      20.079999999999991
   216   1      5.0199999999999942      13.804999999999993      21.334999999999987
   217   1       6.274999999999995      12.549999999999994      21.334999999999987
   218   1       6.274999999999995      13.804999999999993      20.079999999999991
   219   1      5.0199999999999942      12.549999999999994      22.589999999999993
   220   1       6.274999999999995      12.549999999999994      23.844999999999992
   221   1       6.274999999999995      13.804999999999993      22.589999999999993
   222   1       6.274999999999995      15.059999999999993       6.274999999999995
   223   1      5.0199999999999942      15.059999999999993      7.5299999999999931
   224   1      5.0199999999999942      16.314999999999994       8.784999999999993
   225   1       6.274999999999995      15.059999999999993       8.784999999999993
   226   1       6.274999999999995      16.314999999999994      7.5299999999999931
   227   1      5.0199999999999942      15.059999999999993      10.039999999999994
   228   1      5.0199999999999942      16.314999999999994      11.294999999999995
   229   1       6.274999999999995      15.059999999999993      11.294999999999995
   230   1       6.274999999999995      16.314999999999994      10.039999999999994
   231   1      5.0199999999999942      15.059999999999993      12.549999999999994
   232   1      5.0199999999999942      16.314999999999994      13.804999999999993
   233   1       6.274999999999995      15.059999999999993      13.804999999999993
   234   1       6.274999999999995      16.314999999999994      12.549999999999994
   235   1      5.0199999999999942      15.059999999999993      15.059999999999993
   236   1      5.0199999999999942      16.314999999999994      16.314999999999994
   237   1       6.274999999999995      15.059999999999993      16.314999999999994
   238   1       6.274999999999995      16.314999999999994      15.059999999999993
   239   1      5.0199999999999942      15.059999999999993      17.569999999999993
   240   1      5.0199999999999942      16.314999999999994      18.824999999999992
   241   1       6.274999999999995      15.059999999999993      18.824999999999992
   242   1       6.274999999999995      16.314999999999994      17.569999999999993
   243   1      5.0199999999999942      15.059999999999993      20.079999999999991
   244   1      5.0199999999999942      16.314999999999994      21.334999999999987
   245   1       6.274999999999995      15.059999999999993      21.334999999999987
   246   1       6.274999999999995      16.314999999999994      20.079999999999991
   247   1      5.0199999999999942      15.059999999999993      22.589999999999993
   248   1       6.274999999999995      15.059999999999993      23.844999999999992
   249   1       6.274999999999995      16.314999999999994      22.589999999999993
   250   1       6.274999999999995      17.569999999999993       6.274999999999995
   251   1      5.0199999999999942      17.569999999999993      7.5299999999999931
   252   1      5.0199999999999942      18.824999999999992       8.784999999999993
   253   1       6.274999999999995      17.569999999999993       8.784999999999993
   254   1       6.274999999999995      18.824999999999992      7.5299999999999931
   255   1      5.0199999999999942      17.569999999999993      10.039999999999994
   256   1      5.0199999999999942      18.824999999999992      11.294999999999995
   257   1       6.274999999999995      17.569999999999993      11.294999999999995
   258   1       6.274999999999995      18.824999999999992      10.039999999999994
   259   1      5.0199999999999942      17.569999999999993      12.549999999999994
   260   1      5.0199999999999942      18.824999999999992      13.804999999999993
   261   1       6.274999999999995      17.569999999999993      13.804999999999993
   262   1       6.274999999999995      18.824999999999992      12.549999999999994
   263   1      5.0199999999999942      17.569999999999993      15.059999999999993
   264   1      5.0199999999999942      18.824999999999992      16.314999999999994
   265   1       6.274999999999995      17.569999999999993      16.314999999999994
   266   1       6.274999999999995      18.824999999999992      15.059999999999993
   267   1      5.0199999999999942      17.569999999999993      17.569999999999993
   268   1      5.0199999999999942      18.824999999999992      18.824999999999992
   269   1       6.274999999999995      17.569999999999993      18.824999999999992
   270   1       6.274999999999995      18.824999999999992      17.569999999999993
   271   1      5.0199999999999942      17.569999999999993      20.079999999999991
   272   1      5.0199999999999942      18.824999999999992      21.334999999999987
   273   1       6.274999999999995      17.569999999999993      21.334999999999987
   274   1       6.274999999999995      18.824999999999992      20.079999999999991
   275   1      5.0199999999999942      17.569999999999993      22.589999999999993
   276   1       6.274999999999995      17.569999999999993      23.844999999999992
   277   1       6.274999999999995      18.824999999999992      22.589999999999993
   278   1       6.274999999999995      20.079999999999991       6.274999999999995
   279   1      5.0199999999999942      20.079999999999991      7.5299999999999931
   280   1      5.0199999999999942      21.334999999999987       8.784999999999993
   281   1       6.274999999999995      20.079999999999991       8.784999999999993
   282   1       6.274999999999995      21.334999999999987      7.5299999999999931
   283   1      5.0199999999999942      20.079999999999991      10.039999999999994
   284   1      5.0199999999999942      21.334999999999987      11.294999999999995
   285   1       6.274999999999995      20.079999999999991      11.294999999999995
   286   1       6.274999999999995      21.334999999999987      10.039999999999994
   287   1      5.0199999999999942      20.079999999999991      12.549999999999994
   288   1      5.0199999999999942      21.334999999999987      13.804999999999993
   289   1       6.274999999999995      20.079999999999991      13.804999999999993
   290   1       6.274999999999995      21.334999999999987      12.549999999999994
   291   1      5.0199999999999942      20.079999999999991      15.059999999999993
   292   1      5.0199999999999942      21.334999999999987      16.314999999999994
   293   1       6.274999999999995      20.079999999999991      16.314999999999994
   294   1       6.274999999999995      21.334999999999987      15.059999999999993
   295   1      5.0199999999999942      20.079999999999991      17.569999999999993
   296   1      5.0199999999999942      21.334999999999987      18.824999999999992
   297   1       6.274999999999995      20.079999999999991      18.824999999999992
   298   1       6.274999999999995      21.334999999999987      17.569999999999993
   299   1      5.0199999999999942      20.079999999999991      20.079999999999991
   300   1      5.0199999999999942      21.334999999999987      21.334999999999987
   301   1       6.274999999999995      20.079999999999991      21.334999999999987
   302   1       6.274999999999995      21.334999999999987      20.079999999999991
   303   1      5.0199999999999942      20.079999999999991      22.589999999999993
   304   1       6.274999999999995      20.079999999999991      23.844999999999992
   305   1       6.274999999999995      21.334999999999987      22.589999999999993
   306   1       6.274999999999995      22.589999999999993       6.274999999999995
   307   1      5.0199999999999942      22.589999999999993      7.5299999999999931
   308   1       6.274999999999995      22.589999999999993       8.784999999999993
   309   1       6.274999999999995      23.844999999999992      7.5299999999999931
   310   1      5.0199999999999942      22.589999999999993      10.039999999999994
   311   1       6.274999999999995      22.589999999999993      11.294999999999995
   312   1       6.274999999999995      23.844999999999992      10.039999999999994
   313   1      5.0199999999999942      22.589999999999993      12.549999999999994
   314   1       6.274999999999995      22.589999999999993      13.804999999999993
   315   1       6.274999999999995      23.844999999999992      12.549999999999994
   316   1      5.0199999999999942      22.589999999999993      15.059999999999993
   317   1       6.274999999999995      22.589999999999993      16.314999999999994
   318   1       6.274999999999995      23.844999999999992      15.059999999999993
   319   1      5.0199999999999942      22.589999999999993      17.569999999999993
   320   1       6.274999999999995      22.589999999999993      18.824999999999992
   321   1       6.274999999999995      23.844999999999992      17.569999999999993
   322   1      5.0199999999999942      22.589999999999993      20.079999999999991
   323   1       6.274999999999995      22.589999999999993      21.334999999999987
   324   1       6.274999999999995      23.844999999999992      20.079999999999991
   325   1      5.0199999999999942      22.589999999999993      22.589999999999993
   326   1       6.274999999999995      22.589999999999993      23.844999999999992
   327   1       6.274999999999995      23.844999999999992      22.589999999999993
   328   1       8.784999999999993      3.7649999999999935      10.039999999999994
   329   1       8.784999999999993      3.7649999999999935      12.549999999999994
   330   1       8.784999999999993      3.7649999999999935      15.059999999999993
   331   1       8.784999999999993      3.7649999999999935      17.569999999999993
   332   1       8.784999999999993      3.7649999999999935      20.079999999999991
   333   1      7.5299999999999931       6.274999999999995       6.274999999999995
   334   1      7.5299999999999931      5.0199999999999942      7.5299999999999931
   335   1      7.5299999999999931       6.274999999999995       8.784999999999993
   336   1       8.784999999999993      5.0199999999999942       8.784999999999993
   337   1       8.784999999999993       6.274999999999995      7.5299999999999931
   338   1      7.5299999999999931      5.0199999999999942      10.039999999999994
   339   1      7.5299999999999931       6.274999999999995      11.294999999999995
   340   1       8.784999999999993      5.0199999999999942      11.294999999999995
   341   1       8.784999999999993       6.274999999999995      10.039999999999994
   342   1      7.5299999999999931      5.0199999999999942      12.549999999999994
   343   1      7.5299999999999931       6.274999999999995      13.804999999999993
   344   1       8.784999999999993      5.0199999999999942      13.804999999999993
   345   1       8.784999999999993       6.274999999999995      12.549999999999994
   346   1      7.5299999999999931      5.0199999999999942      15.059999999999993
   347   1      7.5299999999999931       6.274999999999995      16.314999999999994
   348   1       8.784999999999993      5.0199999999999942      16.314999999999994
   349   1       8.784999999999993       6.274999999999995      15.059999999999993
   350   1      7.5299999999999931      5.0199999999999942      17.569999999999993
   351   1      7.5299999999999931       6.274999999999995      18.824999999999992
   352   1       8.784999999999993      5.0199999999999942      18.824999999999992
   353   1       8.784999999999993       6.274999999999995      17.569999999999993
   354   1      7.5299999999999931      5.0199999999999942      20.079999999999991
   355   1      7.5299999999999931       6.274999999999995      21.334999999999987
   356   1       8.784999999999993      5.0199999999999942      21.334999999999987
   357   1       8.784999999999993       6.274999999999995      20.079999999999991
   358   1      7.5299999999999931      5.0199999999999942      22.589999999999993