model_files/PdNi/PdNi_30000/PdNi_410/PdNi_410_fcc_29755_temp.data (written by ASE) 

29755 	 atoms 
2  atom types
0.0                      83  xlo xhi
0.0                      83  ylo yhi
0.0                      83  zlo zhi


Atoms 

     1   1      1.8624999999999901      29.799999999999994      31.662499999999991
     2   1      1.8624999999999901      31.662499999999991      29.799999999999994
     3   1      1.8624999999999901      29.799999999999994      35.387499999999989
     4   1      1.8624999999999901      31.662499999999991      33.524999999999991
     5   1      1.8624999999999901      29.799999999999994      39.112499999999997
     6   1      1.8624999999999901      31.662499999999991      37.249999999999993
     7   1      1.8624999999999901      29.799999999999994      42.837499999999999
     8   1      1.8624999999999901      31.662499999999991      40.974999999999994
     9   1      1.8624999999999901      29.799999999999994                 46.5625
    10   1      1.8624999999999901      31.662499999999991      44.699999999999996
    11   1      1.8624999999999901      29.799999999999994      50.287499999999994
    12   1      1.8624999999999901      31.662499999999991       48.42499999999999
    13   1      1.8624999999999901      31.662499999999991      52.149999999999991
    14   1      1.8624999999999901      33.524999999999991      31.662499999999991
    15   1      1.8624999999999901      35.387499999999989      29.799999999999994
    16   1      1.8624999999999901      33.524999999999991      35.387499999999989
    17   1      1.8624999999999901      35.387499999999989      33.524999999999991
    18   1      1.8624999999999901      33.524999999999991      39.112499999999997
    19   1      1.8624999999999901      35.387499999999989      37.249999999999993
    20   1      1.8624999999999901      33.524999999999991      42.837499999999999
    21   1      1.8624999999999901      35.387499999999989      40.974999999999994
    22   1      1.8624999999999901      33.524999999999991                 46.5625
    23   1      1.8624999999999901      35.387499999999989      44.699999999999996
    24   1      1.8624999999999901      33.524999999999991      50.287499999999994
    25   1      1.8624999999999901      35.387499999999989       48.42499999999999
    26   1      1.8624999999999901      35.387499999999989      52.149999999999991
    27   1      1.8624999999999901      37.249999999999993      31.662499999999991
    28   1      1.8624999999999901      39.112499999999997      29.799999999999994
    29   1      1.8624999999999901      37.249999999999993      35.387499999999989
    30   1      1.8624999999999901      39.112499999999997      33.524999999999991
    31   1      82.999999999999986      37.249999999999993      37.249999999999993
    32   1      82.999999999999986      39.112499999999997      39.112499999999997
    33   1      1.8624999999999901      37.249999999999993      39.112499999999997
    34   1      1.8624999999999901      39.112499999999997      37.249999999999993
    35   1      82.999999999999986      37.249999999999993      40.974999999999994
    36   1      82.999999999999986      39.112499999999997      42.837499999999999
    37   1      1.8624999999999901      37.249999999999993      42.837499999999999
    38   1      1.8624999999999901      39.112499999999997      40.974999999999994
    39   1      82.999999999999986      37.249999999999993      44.699999999999996
    40   1      1.8624999999999901      37.249999999999993                 46.5625
    41   1      1.8624999999999901      39.112499999999997      44.699999999999996
    42   1      1.8624999999999901      37.249999999999993      50.287499999999994
    43   1      1.8624999999999901      39.112499999999997       48.42499999999999
    44   1      1.8624999999999901      39.112499999999997      52.149999999999991
    45   1      1.8624999999999901      40.974999999999994      31.662499999999991
    46   1      1.8624999999999901      42.837499999999999      29.799999999999994
    47   1      1.8624999999999901      40.974999999999994      35.387499999999989
    48   1      1.8624999999999901      42.837499999999999      33.524999999999991
    49   1      82.999999999999986      40.974999999999994      37.249999999999993
    50   1      82.999999999999986      42.837499999999999      39.112499999999997
    51   1      1.8624999999999901      40.974999999999994      39.112499999999997
    52   1      1.8624999999999901      42.837499999999999      37.249999999999993
    53   1      82.999999999999986      40.974999999999994      40.974999999999994
    54   1      82.999999999999986      42.837499999999999      42.837499999999999
    55   1      1.8624999999999901      40.974999999999994      42.837499999999999
    56   1      1.8624999999999901      42.837499999999999      40.974999999999994
    57   1      82.999999999999986      40.974999999999994      44.699999999999996
    58   1      1.8624999999999901      40.974999999999994                 46.5625
    59   1      1.8624999999999901      42.837499999999999      44.699999999999996
    60   1      1.8624999999999901      40.974999999999994      50.287499999999994
    61   1      1.8624999999999901      42.837499999999999       48.42499999999999
    62   1      1.8624999999999901      42.837499999999999      52.149999999999991
    63   1      1.8624999999999901      44.699999999999996      31.662499999999991
    64   1      1.8624999999999901                 46.5625      29.799999999999994
    65   1      1.8624999999999901      44.699999999999996      35.387499999999989
    66   1      1.8624999999999901                 46.5625      33.524999999999991
    67   1      82.999999999999986      44.699999999999996      37.249999999999993
    68   1      1.8624999999999901      44.699999999999996      39.112499999999997
    69   1      1.8624999999999901                 46.5625      37.249999999999993
    70   1      82.999999999999986      44.699999999999996      40.974999999999994
    71   1      1.8624999999999901      44.699999999999996      42.837499999999999
    72   1      1.8624999999999901                 46.5625      40.974999999999994
    73   1      82.999999999999986      44.699999999999996      44.699999999999996
    74   1      1.8624999999999901      44.699999999999996                 46.5625
    75   1      1.8624999999999901                 46.5625      44.699999999999996
    76   1      1.8624999999999901      44.699999999999996      50.287499999999994
    77   1      1.8624999999999901                 46.5625       48.42499999999999
    78   1      1.8624999999999901                 46.5625      52.149999999999991
    79   1      1.8624999999999901       48.42499999999999      31.662499999999991
    80   1      1.8624999999999901      50.287499999999994      29.799999999999994
    81   1      1.8624999999999901       48.42499999999999      35.387499999999989
    82   1      1.8624999999999901      50.287499999999994      33.524999999999991
    83   1      1.8624999999999901       48.42499999999999      39.112499999999997
    84   1      1.8624999999999901      50.287499999999994      37.249999999999993
    85   1      1.8624999999999901       48.42499999999999      42.837499999999999
    86   1      1.8624999999999901      50.287499999999994      40.974999999999994
    87   1      1.8624999999999901       48.42499999999999                 46.5625
    88   1      1.8624999999999901      50.287499999999994      44.699999999999996
    89   1      1.8624999999999901       48.42499999999999      50.287499999999994
    90   1      1.8624999999999901      50.287499999999994       48.42499999999999
    91   1      1.8624999999999901      50.287499999999994      52.149999999999991
    92   1      1.8624999999999901      52.149999999999991      31.662499999999991
    93   1      1.8624999999999901      52.149999999999991      35.387499999999989
    94   1      1.8624999999999901      52.149999999999991      39.112499999999997
    95   1      1.8624999999999901      52.149999999999991      42.837499999999999
    96   1      1.8624999999999901      52.149999999999991                 46.5625
    97   1      1.8624999999999901      52.149999999999991      50.287499999999994
    98   1      5.5874999999999915      14.899999999999991      16.762499999999992
    99   1      5.5874999999999915      16.762499999999992      14.899999999999991
   100   1      5.5874999999999915      14.899999999999991      20.487499999999994
   101   1      5.5874999999999915      16.762499999999992      18.624999999999993
   102   1      5.5874999999999915      14.899999999999991      24.212499999999991
   103   1      5.5874999999999915      16.762499999999992      22.349999999999994
   104   1      5.5874999999999915      14.899999999999991      27.937499999999993
   105   1      5.5874999999999915      16.762499999999992      26.074999999999992
   106   1      5.5874999999999915      14.899999999999991      31.662499999999991
   107   1      5.5874999999999915      16.762499999999992      29.799999999999994
   108   1      5.5874999999999915      14.899999999999991      35.387499999999989
   109   1      5.5874999999999915      16.762499999999992      33.524999999999991
   110   1      5.5874999999999915      14.899999999999991      39.112499999999997
   111   1      5.5874999999999915      16.762499999999992      37.249999999999993
   112   1      5.5874999999999915      14.899999999999991      42.837499999999999
   113   1      5.5874999999999915      16.762499999999992      40.974999999999994
   114   1      5.5874999999999915      14.899999999999991                 46.5625
   115   1      5.5874999999999915      16.762499999999992      44.699999999999996
   116   1      5.5874999999999915      14.899999999999991      50.287499999999994
   117   1      5.5874999999999915      16.762499999999992       48.42499999999999
   118   1      5.5874999999999915      14.899999999999991      54.012499999999996
   119   1      5.5874999999999915      16.762499999999992      52.149999999999991
   120   1      5.5874999999999915      14.899999999999991      57.737499999999997
   121   1      5.5874999999999915      16.762499999999992      55.874999999999993
   122   1      5.5874999999999915      14.899999999999991      61.462499999999999
   123   1      5.5874999999999915      16.762499999999992      59.599999999999994
   124   1      5.5874999999999915      14.899999999999991      65.187499999999986
   125   1      5.5874999999999915      16.762499999999992      63.324999999999989
   126   1      5.5874999999999915      16.762499999999992      67.049999999999997
   127   1      5.5874999999999915      18.624999999999993      16.762499999999992
   128   1      5.5874999999999915      20.487499999999994      14.899999999999991
   129   1      5.5874999999999915      18.624999999999993      20.487499999999994
   130   1      5.5874999999999915      20.487499999999994      18.624999999999993
   131   1      5.5874999999999915      18.624999999999993      24.212499999999991
   132   1      5.5874999999999915      20.487499999999994      22.349999999999994
   133   1      5.5874999999999915      18.624999999999993      27.937499999999993
   134   1      5.5874999999999915      20.487499999999994      26.074999999999992
   135   1      5.5874999999999915      18.624999999999993      31.662499999999991
   136   1      5.5874999999999915      20.487499999999994      29.799999999999994
   137   1      5.5874999999999915      18.624999999999993      35.387499999999989
   138   1      5.5874999999999915      20.487499999999994      33.524999999999991
   139   1      5.5874999999999915      18.624999999999993      39.112499999999997
   140   1      5.5874999999999915      20.487499999999994      37.249999999999993
   141   1      5.5874999999999915      18.624999999999993      42.837499999999999
   142   1      5.5874999999999915      20.487499999999994      40.974999999999994
   143   1      5.5874999999999915      18.624999999999993                 46.5625
   144   1      5.5874999999999915      20.487499999999994      44.699999999999996
   145   1      5.5874999999999915      18.624999999999993      50.287499999999994
   146   1      5.5874999999999915      20.487499999999994       48.42499999999999
   147   1      5.5874999999999915      18.624999999999993      54.012499999999996
   148   1      5.5874999999999915      20.487499999999994      52.149999999999991
   149   1      5.5874999999999915      18.624999999999993      57.737499999999997
   150   1      5.5874999999999915      20.487499999999994      55.874999999999993
   151   1      5.5874999999999915      18.624999999999993      61.462499999999999
   152   1      5.5874999999999915      20.487499999999994      59.599999999999994
   153   1      5.5874999999999915      18.624999999999993      65.187499999999986
   154   1      5.5874999999999915      20.487499999999994      63.324999999999989
   155   1      5.5874999999999915      20.487499999999994      67.049999999999997
   156   1      5.5874999999999915      22.349999999999994      16.762499999999992
   157   1      5.5874999999999915      24.212499999999991      14.899999999999991
   158   1      5.5874999999999915      22.349999999999994      20.487499999999994
   159   1      5.5874999999999915      24.212499999999991      18.624999999999993
   160   1      3.7249999999999948      22.349999999999994      22.349999999999994
   161   1      3.7249999999999948      24.212499999999991      24.212499999999991
   162   1      5.5874999999999915      22.349999999999994      24.212499999999991
   163   1      5.5874999999999915      24.212499999999991      22.349999999999994
   164   1      3.7249999999999948      22.349999999999994      26.074999999999992
   165   1      3.7249999999999948      24.212499999999991      27.937499999999993
   166   1      5.5874999999999915      22.349999999999994      27.937499999999993
   167   1      5.5874999999999915      24.212499999999991      26.074999999999992
   168   1      3.7249999999999948      22.349999999999994      29.799999999999994
   169   1      3.7249999999999948      24.212499999999991      31.662499999999991
   170   1      5.5874999999999915      22.349999999999994      31.662499999999991
   171   1      5.5874999999999915      24.212499999999991      29.799999999999994
   172   1      3.7249999999999948      22.349999999999994      33.524999999999991
   173   1      3.7249999999999948      24.212499999999991      35.387499999999989
   174   1      5.5874999999999915      22.349999999999994      35.387499999999989
   175   1      5.5874999999999915      24.212499999999991      33.524999999999991
   176   1      3.7249999999999948      22.349999999999994      37.249999999999993
   177   1      3.7249999999999948      24.212499999999991      39.112499999999997
   178   1      5.5874999999999915      22.349999999999994      39.112499999999997
   179   1      5.5874999999999915      24.212499999999991      37.249999999999993
   180   1      3.7249999999999948      22.349999999999994      40.974999999999994
   181   1      3.7249999999999948      24.212499999999991      42.837499999999999
   182   1      5.5874999999999915      22.349999999999994      42.837499999999999
   183   1      5.5874999999999915      24.212499999999991      40.974999999999994
   184   1      3.7249999999999948      22.349999999999994      44.699999999999996
   185   1      3.7249999999999948      24.212499999999991                 46.5625
   186   1      5.5874999999999915      22.349999999999994                 46.5625
   187   1      5.5874999999999915      24.212499999999991      44.699999999999996
   188   1      3.7249999999999948      22.349999999999994       48.42499999999999
   189   1      3.7249999999999948      24.212499999999991      50.287499999999994
   190   1      5.5874999999999915      22.349999999999994      50.287499999999994
   191   1      5.5874999999999915      24.212499999999991       48.42499999999999
   192   1      3.7249999999999948      22.349999999999994      52.149999999999991
   193   1      3.7249999999999948      24.212499999999991      54.012499999999996
   194   1      5.5874999999999915      22.349999999999994      54.012499999999996
   195   1      5.5874999999999915      24.212499999999991      52.149999999999991
   196   1      3.7249999999999948      22.349999999999994      55.874999999999993
   197   1      3.7249999999999948      24.212499999999991      57.737499999999997
   198   1      5.5874999999999915      22.349999999999994      57.737499999999997
   199   1      5.5874999999999915      24.212499999999991      55.874999999999993
   200   1      3.7249999999999948      22.349999999999994      59.599999999999994
   201   1      5.5874999999999915      22.349999999999994      61.462499999999999
   202   1      5.5874999999999915      24.212499999999991      59.599999999999994
   203   1      5.5874999999999915      22.349999999999994      65.187499999999986
   204   1      5.5874999999999915      24.212499999999991      63.324999999999989
   205   1      5.5874999999999915      24.212499999999991      67.049999999999997
   206   1      5.5874999999999915      26.074999999999992      16.762499999999992
   207   1      5.5874999999999915      27.937499999999993      14.899999999999991
   208   1      5.5874999999999915      26.074999999999992      20.487499999999994
   209   1      5.5874999999999915      27.937499999999993      18.624999999999993
   210   1      3.7249999999999948      26.074999999999992      22.349999999999994
   211   1      3.7249999999999948      27.937499999999993      24.212499999999991
   212   1      5.5874999999999915      26.074999999999992      24.212499999999991
   213   1      5.5874999999999915      27.937499999999993      22.349999999999994
   214   1      3.7249999999999948      26.074999999999992      26.074999999999992
   215   1      3.7249999999999948      27.937499999999993      27.937499999999993
   216   1      5.5874999999999915      26.074999999999992      27.937499999999993
   217   1      5.5874999999999915      27.937499999999993      26.074999999999992
   218   1      3.7249999999999948      26.074999999999992      29.799999999999994
   219   1      3.7249999999999948      27.937499999999993      31.662499999999991
   220   1      5.5874999999999915      26.074999999999992      31.662499999999991
   221   1      5.5874999999999915      27.937499999999993      29.799999999999994
   222   1      3.7249999999999948      26.074999999999992      33.524999999999991
   223   1      3.7249999999999948      27.937499999999993      35.387499999999989
   224   1      5.5874999999999915      26.074999999999992      35.387499999999989
   225   1      5.5874999999999915      27.937499999999993      33.524999999999991
   226   1      3.7249999999999948      26.074999999999992      37.249999999999993
   227   1      3.7249999999999948      27.937499999999993      39.112499999999997
   228   1      5.5874999999999915      26.074999999999992      39.112499999999997
   229   1      5.5874999999999915      27.937499999999993      37.249999999999993
   230   1      3.7249999999999948      26.074999999999992      40.974999999999994
   231   1      3.7249999999999948      27.937499999999993      42.837499999999999
   232   1      5.5874999999999915      26.074999999999992      42.837499999999999
   233   1      5.5874999999999915      27.937499999999993      40.974999999999994
   234   1      3.7249999999999948      26.074999999999992      44.699999999999996
   235   1      3.7249999999999948      27.937499999999993                 46.5625
   236   1      5.5874999999999915      26.074999999999992                 46.5625
   237   1      5.5874999999999915      27.937499999999993      44.699999999999996
   238   1      3.7249999999999948      26.074999999999992       48.42499999999999
   239   1      3.7249999999999948      27.937499999999993      50.287499999999994
   240   1      5.5874999999999915      26.074999999999992      50.287499999999994
   241   1      5.5874999999999915      27.937499999999993       48.42499999999999
   242   1      3.7249999999999948      26.074999999999992      52.149999999999991
   243   1      3.7249999999999948      27.937499999999993      54.012499999999996
   244   1      5.5874999999999915      26.074999999999992      54.012499999999996
   245   1      5.5874999999999915      27.937499999999993      52.149999999999991
   246   1      3.7249999999999948      26.074999999999992      55.874999999999993
   247   1      3.7249999999999948      27.937499999999993      57.737499999999997
   248   1      5.5874999999999915      26.074999999999992      57.737499999999997
   249   1      5.5874999999999915      27.937499999999993      55.874999999999993
   250   1      3.7249999999999948      26.074999999999992      59.599999999999994
   251   1      5.5874999999999915      26.074999999999992      61.462499999999999
   252   1      5.5874999999999915      27.937499999999993      59.599999999999994
   253   1      5.5874999999999915      26.074999999999992      65.187499999999986
   254   1      5.5874999999999915      27.937499999999993      63.324999999999989
   255   1      5.5874999999999915      27.937499999999993      67.049999999999997
   256   1      5.5874999999999915      29.799999999999994      16.762499999999992
   257   1      5.5874999999999915      31.662499999999991      14.899999999999991
   258   1      5.5874999999999915      29.799999999999994      20.487499999999994
   259   1      5.5874999999999915      31.662499999999991      18.624999999999993
   260   1      3.7249999999999948      29.799999999999994      22.349999999999994
   261   1      3.7249999999999948      31.662499999999991      24.212499999999991
   262   1      5.5874999999999915      29.799999999999994      24.212499999999991
   263   1      5.5874999999999915      31.662499999999991      22.349999999999994
   264   1      3.7249999999999948      29.799999999999994      26.074999999999992
   265   1      3.7249999999999948      31.662499999999991      27.937499999999993
   266   1      5.5874999999999915      29.799999999999994      27.937499999999993
   267   1      5.5874999999999915      31.662499999999991      26.074999999999992
   268   1      3.7249999999999948      29.799999999999994      29.799999999999994
   269   1      3.7249999999999948      31.662499999999991      31.662499999999991
   270   1      5.5874999999999915      29.799999999999994      31.662499999999991
   271   1      5.5874999999999915      31.662499999999991      29.799999999999994
   272   1      3.7249999999999948      29.799999999999994      33.524999999999991
   273   1      3.7249999999999948      31.662499999999991      35.387499999999989
   274   1      5.5874999999999915      29.799999999999994      35.387499999999989
   275   1      5.5874999999999915      31.662499999999991      33.524999999999991
   276   1      3.7249999999999948      29.799999999999994      37.249999999999993
   277   1      3.7249999999999948      31.662499999999991      39.112499999999997
   278   1      5.5874999999999915      29.799999999999994      39.112499999999997
   279   1      5.5874999999999915      31.662499999999991      37.249999999999993
   280   1      3.7249999999999948      29.799999999999994      40.974999999999994
   281   1      3.7249999999999948      31.662499999999991      42.837499999999999
   282   1      5.5874999999999915      29.799999999999994      42.837499999999999
   283   1      5.5874999999999915      31.662499999999991      40.974999999999994
   284   1      3.7249999999999948      29.799999999999994      44.699999999999996
   285   1      3.7249999999999948      31.662499999999991                 46.5625
   286   1      5.5874999999999915      29.799999999999994                 46.5625
   287   1      5.5874999999999915      31.662499999999991      44.699999999999996
   288   1      3.7249999999999948      29.799999999999994       48.42499999999999
   289   1      3.7249999999999948      31.662499999999991      50.287499999999994
   290   1      5.5874999999999915      29.799999999999994      50.287499999999994
   291   1      5.5874999999999915      31.662499999999991       48.42499999999999
   292   1      3.7249999999999948      29.799999999999994      52.149999999999991
   293   1      3.7249999999999948      31.662499999999991      54.012499999999996
   294   1      5.5874999999999915      29.799999999999994      54.012499999999996
   295   1      5.5874999999999915      31.662499999999991      52.149999999999991
   296   1      3.7249999999999948      29.799999999999994      55.874999999999993
   297   1      3.7249999999999948      31.662499999999991      57.737499999999997
   298   1      5.5874999999999915      29.799999999999994      57.737499999999997
   299   1      5.5874999999999915      31.662499999999991      55.874999999999993
   300   1      3.7249999999999948      29.799999999999994      59.599999999999994
   301   1      5.5874999999999915      29.799999999999994      61.462499999999999
   302   1      5.5874999999999915      31.662499999999991      59.599999999999994
   303   1      5.5874999999999915      29.799999999999994      65.187499999999986
   304   1      5.5874999999999915      31.662499999999991      63.324999999999989
   305   1      5.5874999999999915      31.662499999999991      67.049999999999997
   306   1      5.5874999999999915      33.524999999999991      16.762499999999992
   307   1      5.5874999999999915      35.387499999999989      14.899999999999991
   308   1      5.5874999999999915      33.524999999999991      20.487499999999994
   309   1      5.5874999999999915      35.387499999999989      18.624999999999993
   310   1      3.7249999999999948      33.524999999999991      22.349999999999994
   311   1      3.7249999999999948      35.387499999999989      24.212499999999991
   312   1      5.5874999999999915      33.524999999999991      24.212499999999991
   313   1      5.5874999999999915      35.387499999999989      22.349999999999994
   314   1      3.7249999999999948      33.524999999999991      26.074999999999992
   315   1      3.7249999999999948      35.387499999999989      27.937499999999993
   316   1      5.5874999999999915      33.524999999999991      27.937499999999993
   317   1      5.5874999999999915      35.387499999999989      26.074999999999992
   318   1      3.7249999999999948      33.524999999999991      29.799999999999994
   319   1      3.7249999999999948      35.387499999999989      31.662499999999991
   320   1      5.5874999999999915      33.524999999999991      31.662499999999991
   321   1      5.5874999999999915      35.387499999999989      29.799999999999994
   322   1      3.7249999999999948      33.524999999999991      33.524999999999991
   323   1      3.7249999999999948      35.387499999999989      35.387499999999989
   324   1      5.5874999999999915      33.524999999999991      35.387499999999989
   325   1      5.5874999999999915      35.387499999999989      33.524999999999991
   326   1      3.7249999999999948      33.524999999999991      37.249999999999993
   327   1      3.7249999999999948      35.387499999999989      39.112499999999997
   328   1      5.5874999999999915      33.524999999999991      39.112499999999997
   329   1      5.5874999999999915      35.387499999999989      37.249999999999993
   330   1      3.7249999999999948      33.524999999999991      40.974999999999994
   331   1      3.7249999999999948      35.387499999999989      42.837499999999999
   332   1      5.5874999999999915      33.524999999999991      42.837499999999999
   333   1      5.5874999999999915      35.387499999999989      40.974999999999994
   334   1      3.7249999999999948      33.524999999999991      44.699999999999996
   335   1      3.7249999999999948      35.387499999999989                 46.5625
   336   1      5.5874999999999915      33.524999999999991                 46.5625
   337   1      5.5874999999999915      35.387499999999989      44.699999999999996
   338   1      3.7249999999999948      33.524999999999991       48.42499999999999
   339   1      3.7249999999999948      35.387499999999989      50.287499999999994
   340   1      5.5874999999999915      33.524999999999991      50.287499999999994
   341   1      5.5874999999999915      35.387499999999989       48.42499999999999
   342   1      3.7249999999999948      33.524999999999991      52.149999999999991
   343   1      3.7249999999999948      35.387499999999989      54.012499999999996
   344   1      5.5874999999999915      33.524999999999991      54.012499999999996
   345   1      5.5874999999999915      35.387499999999989      52.149999999999991
   346   1      3.7249999999999948      33.524999999999991      55.874999999999993
   347   1      3.7249999999999948      35.387499999999989      57.737499999999997
   348   1      5.5874999999999915      33.524999999999991      57.737499999999997
   349   1      5.5874999999999915      35.387499999999989      55.874999999999993
   350   1      3.7249999999999948      33.524999999999991      59.599999999999994
   351   1      5.5874999999999915      33.524999999999991      61.462499999999999
   352   1      5.5874999999999915      35.387499999999989      59.599999999999994
   353   1      5.5874999999999915      33.524999999999991      65.187499999999986
   354   1      5.5874999999999915      35.387499999999989      63.324999999999989
   355   1      5.5874999999999915      35.387499999999989      67.049999999999997
   356   1      5.5874999999999915      37.249999999999993      16.762499999999992
   357   1      5.5874999999999915      39.112499999999997      14.899999999999991
   358   1      5.5874999999999915      37.249999999999993      20.487499999999994