model_files/CuAu/CuAu_30000/CuAu_100/CuAu_100_fcc_29659_temp.data (written by ASE) 

29659 	 atoms 
2  atom types
0.0                      73  xlo xhi
0.0                      73  ylo yhi
0.0                      73  zlo zhi


Atoms 

     1   1      72.999999999999986      72.999999999999986      1.8699999999999972
     2   1      72.999999999999986      72.999999999999986       5.609999999999995
     3   1      72.999999999999986      72.999999999999986      9.3499999999999943
     4   1      72.999999999999986      72.999999999999986      13.089999999999996
     5   1      72.999999999999986      72.999999999999986      16.829999999999998
     6   1      72.999999999999986      72.999999999999986      20.569999999999997
     7   1      72.999999999999986      72.999999999999986      24.309999999999995
     8   1      72.999999999999986      72.999999999999986      28.049999999999997
     9   1      72.999999999999986      72.999999999999986      31.789999999999999
    10   1      72.999999999999986      72.999999999999986      35.530000000000001
    11   1      72.999999999999986      72.999999999999986      39.269999999999996
    12   1      72.999999999999986      72.999999999999986      43.009999999999998
    13   1      72.999999999999986      72.999999999999986                   46.75
    14   1      72.999999999999986      72.999999999999986      50.489999999999995
    15   1      72.999999999999986      72.999999999999986      54.229999999999997
    16   1      72.999999999999986      72.999999999999986      57.969999999999999
    17   1      72.999999999999986      72.999999999999986      61.710000000000001
    18   1      72.999999999999986      72.999999999999986      65.450000000000003
    19   1      72.999999999999986      72.999999999999986      69.189999999999998
    20   1      72.999999999999986      1.8699999999999972      72.999999999999986
    21   1      72.999999999999986      1.8699999999999972      3.7399999999999944
    22   1      72.999999999999986      3.7399999999999944      1.8699999999999972
    23   1      72.999999999999986      1.8699999999999972       7.479999999999996
    24   1      72.999999999999986      3.7399999999999944       5.609999999999995
    25   1      72.999999999999986      1.8699999999999972      11.219999999999995
    26   1      72.999999999999986      3.7399999999999944      9.3499999999999943
    27   1      72.999999999999986      1.8699999999999972      14.959999999999997
    28   1      72.999999999999986      3.7399999999999944      13.089999999999996
    29   1      72.999999999999986      1.8699999999999972      18.699999999999999
    30   1      72.999999999999986      3.7399999999999944      16.829999999999998
    31   1      72.999999999999986      1.8699999999999972      22.439999999999998
    32   1      72.999999999999986      3.7399999999999944      20.569999999999997
    33   1      72.999999999999986      1.8699999999999972      26.179999999999996
    34   1      72.999999999999986      3.7399999999999944      24.309999999999995
    35   1      72.999999999999986      1.8699999999999972      29.919999999999998
    36   1      72.999999999999986      3.7399999999999944      28.049999999999997
    37   1      72.999999999999986      1.8699999999999972      33.659999999999997
    38   1      72.999999999999986      3.7399999999999944      31.789999999999999
    39   1      72.999999999999986      1.8699999999999972      37.399999999999999
    40   1      72.999999999999986      3.7399999999999944      35.530000000000001
    41   1      72.999999999999986      1.8699999999999972      41.139999999999993
    42   1      72.999999999999986      3.7399999999999944      39.269999999999996
    43   1      72.999999999999986      1.8699999999999972      44.879999999999995
    44   1      72.999999999999986      3.7399999999999944      43.009999999999998
    45   1      72.999999999999986      1.8699999999999972      48.619999999999997
    46   1      72.999999999999986      3.7399999999999944                   46.75
    47   1      72.999999999999986      1.8699999999999972      52.359999999999992
    48   1      72.999999999999986      3.7399999999999944      50.489999999999995
    49   1      72.999999999999986      1.8699999999999972      56.099999999999994
    50   1      72.999999999999986      3.7399999999999944      54.229999999999997
    51   1      72.999999999999986      1.8699999999999972      59.839999999999996
    52   1      72.999999999999986      3.7399999999999944      57.969999999999999
    53   1      72.999999999999986      1.8699999999999972      63.579999999999998
    54   1      72.999999999999986      3.7399999999999944      61.710000000000001
    55   1      72.999999999999986      1.8699999999999972      67.320000000000007
    56   1      72.999999999999986      3.7399999999999944      65.450000000000003
    57   1      72.999999999999986      1.8699999999999972      71.060000000000002
    58   1      72.999999999999986      3.7399999999999944      69.189999999999998
    59   1      72.999999999999986       5.609999999999995      72.999999999999986
    60   1      72.999999999999986       5.609999999999995      3.7399999999999944
    61   1      72.999999999999986       7.479999999999996      1.8699999999999972
    62   1      72.999999999999986       5.609999999999995       7.479999999999996
    63   1      72.999999999999986       7.479999999999996       5.609999999999995
    64   1      72.999999999999986       5.609999999999995      11.219999999999995
    65   1      72.999999999999986       7.479999999999996      9.3499999999999943
    66   1      72.999999999999986       5.609999999999995      14.959999999999997
    67   1      72.999999999999986       7.479999999999996      13.089999999999996
    68   1      72.999999999999986       5.609999999999995      18.699999999999999
    69   1      72.999999999999986       7.479999999999996      16.829999999999998
    70   1      72.999999999999986       5.609999999999995      22.439999999999998
    71   1      72.999999999999986       7.479999999999996      20.569999999999997
    72   1      72.999999999999986       5.609999999999995      26.179999999999996
    73   1      72.999999999999986       7.479999999999996      24.309999999999995
    74   1      72.999999999999986       5.609999999999995      29.919999999999998
    75   1      72.999999999999986       7.479999999999996      28.049999999999997
    76   1      72.999999999999986       5.609999999999995      33.659999999999997
    77   1      72.999999999999986       7.479999999999996      31.789999999999999
    78   1      72.999999999999986       5.609999999999995      37.399999999999999
    79   1      72.999999999999986       7.479999999999996      35.530000000000001
    80   1      72.999999999999986       5.609999999999995      41.139999999999993
    81   1      72.999999999999986       7.479999999999996      39.269999999999996
    82   1      72.999999999999986       5.609999999999995      44.879999999999995
    83   1      72.999999999999986       7.479999999999996      43.009999999999998
    84   1      72.999999999999986       5.609999999999995      48.619999999999997
    85   1      72.999999999999986       7.479999999999996                   46.75
    86   1      72.999999999999986       5.609999999999995      52.359999999999992
    87   1      72.999999999999986       7.479999999999996      50.489999999999995
    88   1      72.999999999999986       5.609999999999995      56.099999999999994
    89   1      72.999999999999986       7.479999999999996      54.229999999999997
    90   1      72.999999999999986       5.609999999999995      59.839999999999996
    91   1      72.999999999999986       7.479999999999996      57.969999999999999
    92   1      72.999999999999986       5.609999999999995      63.579999999999998
    93   1      72.999999999999986       7.479999999999996      61.710000000000001
    94   1      72.999999999999986       5.609999999999995      67.320000000000007
    95   1      72.999999999999986       7.479999999999996      65.450000000000003
    96   1      72.999999999999986       5.609999999999995      71.060000000000002
    97   1      72.999999999999986       7.479999999999996      69.189999999999998
    98   1      72.999999999999986      9.3499999999999943      72.999999999999986
    99   1      72.999999999999986      9.3499999999999943      3.7399999999999944
   100   1      72.999999999999986      11.219999999999995      1.8699999999999972
   101   1      72.999999999999986      9.3499999999999943       7.479999999999996
   102   1      72.999999999999986      11.219999999999995       5.609999999999995
   103   1      72.999999999999986      9.3499999999999943      11.219999999999995
   104   1      72.999999999999986      11.219999999999995      9.3499999999999943
   105   1      72.999999999999986      9.3499999999999943      14.959999999999997
   106   1      72.999999999999986      11.219999999999995      13.089999999999996
   107   1      72.999999999999986      9.3499999999999943      18.699999999999999
   108   1      72.999999999999986      11.219999999999995      16.829999999999998
   109   1      72.999999999999986      9.3499999999999943      22.439999999999998
   110   1      72.999999999999986      11.219999999999995      20.569999999999997
   111   1      72.999999999999986      9.3499999999999943      26.179999999999996
   112   1      72.999999999999986      11.219999999999995      24.309999999999995
   113   1      72.999999999999986      9.3499999999999943      29.919999999999998
   114   1      72.999999999999986      11.219999999999995      28.049999999999997
   115   1      72.999999999999986      9.3499999999999943      33.659999999999997
   116   1      72.999999999999986      11.219999999999995      31.789999999999999
   117   1      72.999999999999986      9.3499999999999943      37.399999999999999
   118   1      72.999999999999986      11.219999999999995      35.530000000000001
   119   1      72.999999999999986      9.3499999999999943      41.139999999999993
   120   1      72.999999999999986      11.219999999999995      39.269999999999996
   121   1      72.999999999999986      9.3499999999999943      44.879999999999995
   122   1      72.999999999999986      11.219999999999995      43.009999999999998
   123   1      72.999999999999986      9.3499999999999943      48.619999999999997
   124   1      72.999999999999986      11.219999999999995                   46.75
   125   1      72.999999999999986      9.3499999999999943      52.359999999999992
   126   1      72.999999999999986      11.219999999999995      50.489999999999995
   127   1      72.999999999999986      9.3499999999999943      56.099999999999994
   128   1      72.999999999999986      11.219999999999995      54.229999999999997
   129   1      72.999999999999986      9.3499999999999943      59.839999999999996
   130   1      72.999999999999986      11.219999999999995      57.969999999999999
   131   1      72.999999999999986      9.3499999999999943      63.579999999999998
   132   1      72.999999999999986      11.219999999999995      61.710000000000001
   133   1      72.999999999999986      9.3499999999999943      67.320000000000007
   134   1      72.999999999999986      11.219999999999995      65.450000000000003
   135   1      72.999999999999986      9.3499999999999943      71.060000000000002
   136   1      72.999999999999986      11.219999999999995      69.189999999999998
   137   1      72.999999999999986      13.089999999999996      72.999999999999986
   138   1      72.999999999999986      13.089999999999996      3.7399999999999944
   139   1      72.999999999999986      14.959999999999997      1.8699999999999972
   140   1      72.999999999999986      13.089999999999996       7.479999999999996
   141   1      72.999999999999986      14.959999999999997       5.609999999999995
   142   1      72.999999999999986      13.089999999999996      11.219999999999995
   143   1      72.999999999999986      14.959999999999997      9.3499999999999943
   144   1      72.999999999999986      13.089999999999996      14.959999999999997
   145   1      72.999999999999986      14.959999999999997      13.089999999999996
   146   1      72.999999999999986      13.089999999999996      18.699999999999999
   147   1      72.999999999999986      14.959999999999997      16.829999999999998
   148   1      72.999999999999986      13.089999999999996      22.439999999999998
   149   1      72.999999999999986      14.959999999999997      20.569999999999997
   150   1      72.999999999999986      13.089999999999996      26.179999999999996
   151   1      72.999999999999986      14.959999999999997      24.309999999999995
   152   1      72.999999999999986      13.089999999999996      29.919999999999998
   153   1      72.999999999999986      14.959999999999997      28.049999999999997
   154   1      72.999999999999986      13.089999999999996      33.659999999999997
   155   1      72.999999999999986      14.959999999999997      31.789999999999999
   156   1      72.999999999999986      13.089999999999996      37.399999999999999
   157   1      72.999999999999986      14.959999999999997      35.530000000000001
   158   1      72.999999999999986      13.089999999999996      41.139999999999993
   159   1      72.999999999999986      14.959999999999997      39.269999999999996
   160   1      72.999999999999986      13.089999999999996      44.879999999999995
   161   1      72.999999999999986      14.959999999999997      43.009999999999998
   162   1      72.999999999999986      13.089999999999996      48.619999999999997
   163   1      72.999999999999986      14.959999999999997                   46.75
   164   1      72.999999999999986      13.089999999999996      52.359999999999992
   165   1      72.999999999999986      14.959999999999997      50.489999999999995
   166   1      72.999999999999986      13.089999999999996      56.099999999999994
   167   1      72.999999999999986      14.959999999999997      54.229999999999997
   168   1      72.999999999999986      13.089999999999996      59.839999999999996
   169   1      72.999999999999986      14.959999999999997      57.969999999999999
   170   1      72.999999999999986      13.089999999999996      63.579999999999998
   171   1      72.999999999999986      14.959999999999997      61.710000000000001
   172   1      72.999999999999986      13.089999999999996      67.320000000000007
   173   1      72.999999999999986      14.959999999999997      65.450000000000003
   174   1      72.999999999999986      13.089999999999996      71.060000000000002
   175   1      72.999999999999986      14.959999999999997      69.189999999999998
   176   1      72.999999999999986      16.829999999999998      72.999999999999986
   177   1      72.999999999999986      16.829999999999998      3.7399999999999944
   178   1      72.999999999999986      18.699999999999999      1.8699999999999972
   179   1      72.999999999999986      16.829999999999998       7.479999999999996
   180   1      72.999999999999986      18.699999999999999       5.609999999999995
   181   1      72.999999999999986      16.829999999999998      11.219999999999995
   182   1      72.999999999999986      18.699999999999999      9.3499999999999943
   183   1      72.999999999999986      16.829999999999998      14.959999999999997
   184   1      72.999999999999986      18.699999999999999      13.089999999999996
   185   1      72.999999999999986      16.829999999999998      18.699999999999999
   186   1      72.999999999999986      18.699999999999999      16.829999999999998
   187   1      72.999999999999986      16.829999999999998      22.439999999999998
   188   1      72.999999999999986      18.699999999999999      20.569999999999997
   189   1      72.999999999999986      16.829999999999998      26.179999999999996
   190   1      72.999999999999986      18.699999999999999      24.309999999999995
   191   1      72.999999999999986      16.829999999999998      29.919999999999998
   192   1      72.999999999999986      18.699999999999999      28.049999999999997
   193   1      72.999999999999986      16.829999999999998      33.659999999999997
   194   1      72.999999999999986      18.699999999999999      31.789999999999999
   195   1      72.999999999999986      16.829999999999998      37.399999999999999
   196   1      72.999999999999986      18.699999999999999      35.530000000000001
   197   1      72.999999999999986      16.829999999999998      41.139999999999993
   198   1      72.999999999999986      18.699999999999999      39.269999999999996
   199   1      72.999999999999986      16.829999999999998      44.879999999999995
   200   1      72.999999999999986      18.699999999999999      43.009999999999998
   201   1      72.999999999999986      16.829999999999998      48.619999999999997
   202   1      72.999999999999986      18.699999999999999                   46.75
   203   1      72.999999999999986      16.829999999999998      52.359999999999992
   204   1      72.999999999999986      18.699999999999999      50.489999999999995
   205   1      72.999999999999986      16.829999999999998      56.099999999999994
   206   1      72.999999999999986      18.699999999999999      54.229999999999997
   207   1      72.999999999999986      16.829999999999998      59.839999999999996
   208   1      72.999999999999986      18.699999999999999      57.969999999999999
   209   1      72.999999999999986      16.829999999999998      63.579999999999998
   210   1      72.999999999999986      18.699999999999999      61.710000000000001
   211   1      72.999999999999986      16.829999999999998      67.320000000000007
   212   1      72.999999999999986      18.699999999999999      65.450000000000003
   213   1      72.999999999999986      16.829999999999998      71.060000000000002
   214   1      72.999999999999986      18.699999999999999      69.189999999999998
   215   1      72.999999999999986      20.569999999999997      72.999999999999986
   216   1      72.999999999999986      20.569999999999997      3.7399999999999944
   217   1      72.999999999999986      22.439999999999998      1.8699999999999972
   218   1      72.999999999999986      20.569999999999997       7.479999999999996
   219   1      72.999999999999986      22.439999999999998       5.609999999999995
   220   1      72.999999999999986      20.569999999999997      11.219999999999995
   221   1      72.999999999999986      22.439999999999998      9.3499999999999943
   222   1      72.999999999999986      20.569999999999997      14.959999999999997
   223   1      72.999999999999986      22.439999999999998      13.089999999999996
   224   1      72.999999999999986      20.569999999999997      18.699999999999999
   225   1      72.999999999999986      22.439999999999998      16.829999999999998
   226   1      72.999999999999986      20.569999999999997      22.439999999999998
   227   1      72.999999999999986      22.439999999999998      20.569999999999997
   228   1      72.999999999999986      20.569999999999997      26.179999999999996
   229   1      72.999999999999986      22.439999999999998      24.309999999999995
   230   1      72.999999999999986      20.569999999999997      29.919999999999998
   231   1      72.999999999999986      22.439999999999998      28.049999999999997
   232   1      72.999999999999986      20.569999999999997      33.659999999999997
   233   1      72.999999999999986      22.439999999999998      31.789999999999999
   234   1      72.999999999999986      20.569999999999997      37.399999999999999
   235   1      72.999999999999986      22.439999999999998      35.530000000000001
   236   1      72.999999999999986      20.569999999999997      41.139999999999993
   237   1      72.999999999999986      22.439999999999998      39.269999999999996
   238   1      72.999999999999986      20.569999999999997      44.879999999999995
   239   1      72.999999999999986      22.439999999999998      43.009999999999998
   240   1      72.999999999999986      20.569999999999997      48.619999999999997
   241   1      72.999999999999986      22.439999999999998                   46.75
   242   1      72.999999999999986      20.569999999999997      52.359999999999992
   243   1      72.999999999999986      22.439999999999998      50.489999999999995
   244   1      72.999999999999986      20.569999999999997      56.099999999999994
   245   1      72.999999999999986      22.439999999999998      54.229999999999997
   246   1      72.999999999999986      20.569999999999997      59.839999999999996
   247   1      72.999999999999986      22.439999999999998      57.969999999999999
   248   1      72.999999999999986      20.569999999999997      63.579999999999998
   249   1      72.999999999999986      22.439999999999998      61.710000000000001
   250   1      72.999999999999986      20.569999999999997      67.320000000000007
   251   1      72.999999999999986      22.439999999999998      65.450000000000003
   252   1      72.999999999999986      20.569999999999997      71.060000000000002
   253   1      72.999999999999986      22.439999999999998      69.189999999999998
   254   1      72.999999999999986      24.309999999999995      72.999999999999986
   255   1      72.999999999999986      24.309999999999995      3.7399999999999944
   256   1      72.999999999999986      26.179999999999996      1.8699999999999972
   257   1      72.999999999999986      24.309999999999995       7.479999999999996
   258   1      72.999999999999986      26.179999999999996       5.609999999999995
   259   1      72.999999999999986      24.309999999999995      11.219999999999995
   260   1      72.999999999999986      26.179999999999996      9.3499999999999943
   261   1      72.999999999999986      24.309999999999995      14.959999999999997
   262   1      72.999999999999986      26.179999999999996      13.089999999999996
   263   1      72.999999999999986      24.309999999999995      18.699999999999999
   264   1      72.999999999999986      26.179999999999996      16.829999999999998
   265   1      72.999999999999986      24.309999999999995      22.439999999999998
   266   1      72.999999999999986      26.179999999999996      20.569999999999997
   267   1      72.999999999999986      24.309999999999995      26.179999999999996
   268   1      72.999999999999986      26.179999999999996      24.309999999999995
   269   1      72.999999999999986      24.309999999999995      29.919999999999998
   270   1      72.999999999999986      26.179999999999996      28.049999999999997
   271   1      72.999999999999986      24.309999999999995      33.659999999999997
   272   1      72.999999999999986      26.179999999999996      31.789999999999999
   273   1      72.999999999999986      24.309999999999995      37.399999999999999
   274   1      72.999999999999986      26.179999999999996      35.530000000000001
   275   1      72.999999999999986      24.309999999999995      41.139999999999993
   276   1      72.999999999999986      26.179999999999996      39.269999999999996
   277   1      72.999999999999986      24.309999999999995      44.879999999999995
   278   1      72.999999999999986      26.179999999999996      43.009999999999998
   279   1      72.999999999999986      24.309999999999995      48.619999999999997
   280   1      72.999999999999986      26.179999999999996                   46.75
   281   1      72.999999999999986      24.309999999999995      52.359999999999992
   282   1      72.999999999999986      26.179999999999996      50.489999999999995
   283   1      72.999999999999986      24.309999999999995      56.099999999999994
   284   1      72.999999999999986      26.179999999999996      54.229999999999997
   285   1      72.999999999999986      24.309999999999995      59.839999999999996
   286   1      72.999999999999986      26.179999999999996      57.969999999999999
   287   1      72.999999999999986      24.309999999999995      63.579999999999998
   288   1      72.999999999999986      26.179999999999996      61.710000000000001
   289   1      72.999999999999986      24.309999999999995      67.320000000000007
   290   1      72.999999999999986      26.179999999999996      65.450000000000003
   291   1      72.999999999999986      24.309999999999995      71.060000000000002
   292   1      72.999999999999986      26.179999999999996      69.189999999999998
   293   1      72.999999999999986      28.049999999999997      72.999999999999986
   294   1      72.999999999999986      28.049999999999997      3.7399999999999944
   295   1      72.999999999999986      29.919999999999998      1.8699999999999972
   296   1      72.999999999999986      28.049999999999997       7.479999999999996
   297   1      72.999999999999986      29.919999999999998       5.609999999999995
   298   1      72.999999999999986      28.049999999999997      11.219999999999995
   299   1      72.999999999999986      29.919999999999998      9.3499999999999943
   300   1      72.999999999999986      28.049999999999997      14.959999999999997
   301   1      72.999999999999986      29.919999999999998      13.089999999999996
   302   1      72.999999999999986      28.049999999999997      18.699999999999999
   303   1      72.999999999999986      29.919999999999998      16.829999999999998
   304   1      72.999999999999986      28.049999999999997      22.439999999999998
   305   1      72.999999999999986      29.919999999999998      20.569999999999997
   306   1      72.999999999999986      28.049999999999997      26.179999999999996
   307   1      72.999999999999986      29.919999999999998      24.309999999999995
   308   1      72.999999999999986      28.049999999999997      29.919999999999998
   309   1      72.999999999999986      29.919999999999998      28.049999999999997
   310   1      72.999999999999986      28.049999999999997      33.659999999999997
   311   1      72.999999999999986      29.919999999999998      31.789999999999999
   312   1      72.999999999999986      28.049999999999997      37.399999999999999
   313   1      72.999999999999986      29.919999999999998      35.530000000000001
   314   1      72.999999999999986      28.049999999999997      41.139999999999993
   315   1      72.999999999999986      29.919999999999998      39.269999999999996
   316   1      72.999999999999986      28.049999999999997      44.879999999999995
   317   1      72.999999999999986      29.919999999999998      43.009999999999998
   318   1      72.999999999999986      28.049999999999997      48.619999999999997
   319   1      72.999999999999986      29.919999999999998                   46.75
   320   1      72.999999999999986      28.049999999999997      52.359999999999992
   321   1      72.999999999999986      29.919999999999998      50.489999999999995
   322   1      72.999999999999986      28.049999999999997      56.099999999999994
   323   1      72.999999999999986      29.919999999999998      54.229999999999997
   324   1      72.999999999999986      28.049999999999997      59.839999999999996
   325   1      72.999999999999986      29.919999999999998      57.969999999999999
   326   1      72.999999999999986      28.049999999999997      63.579999999999998
   327   1      72.999999999999986      29.919999999999998      61.710000000000001
   328   1      72.999999999999986      28.049999999999997      67.320000000000007
   329   1      72.999999999999986      29.919999999999998      65.450000000000003
   330   1      72.999999999999986      28.049999999999997      71.060000000000002
   331   1      72.999999999999986      29.919999999999998      69.189999999999998
   332   1      72.999999999999986      31.789999999999999      72.999999999999986
   333   1      72.999999999999986      31.789999999999999      3.7399999999999944
   334   1      72.999999999999986      33.659999999999997      1.8699999999999972
   335   1      72.999999999999986      31.789999999999999       7.479999999999996
   336   1      72.999999999999986      33.659999999999997       5.609999999999995
   337   1      72.999999999999986      31.789999999999999      11.219999999999995
   338   1      72.999999999999986      33.659999999999997      9.3499999999999943
   339   1      72.999999999999986      31.789999999999999      14.959999999999997
   340   1      72.999999999999986      33.659999999999997      13.089999999999996
   341   1      72.999999999999986      31.789999999999999      18.699999999999999
   342   1      72.999999999999986      33.659999999999997      16.829999999999998
   343   1      72.999999999999986      31.789999999999999      22.439999999999998
   344   1      72.999999999999986      33.659999999999997      20.569999999999997
   345   1      72.999999999999986      31.789999999999999      26.179999999999996
   346   1      72.999999999999986      33.659999999999997      24.309999999999995
   347   1      72.999999999999986      31.789999999999999      29.919999999999998
   348   1      72.999999999999986      33.659999999999997      28.049999999999997
   349   1      72.999999999999986      31.789999999999999      33.659999999999997
   350   1      72.999999999999986      33.659999999999997      31.789999999999999
   351   1      72.999999999999986      31.789999999999999      37.399999999999999
   352   1      72.999999999999986      33.659999999999997      35.530000000000001
   353   1      72.999999999999986      31.789999999999999      41.139999999999993
   354   1      72.999999999999986      33.659999999999997      39.269999999999996
   355   1      72.999999999999986      31.789999999999999      44.879999999999995
   356   1      72.999999999999986      33.659999999999997      43.009999999999998
   357   1      72.999999999999986      31.789999999999999      48.619999999999997
   358   1      72.999999999999986      33.659999999999997                   46.75