model_files/Au/Au_30000/Au_533/data.Au_533_fcc_30085 (written by ASE) 

30085 	 atoms 
1  atom types
0.0                     118  xlo xhi
0.0                     118  ylo yhi
0.0                     118  zlo zhi


Atoms 

     1   1  7.1054273576010019e-15      57.120000000000012      59.160000000000011
     2   1  7.1054273576010019e-15      59.160000000000011      57.120000000000012
     3   1  7.1054273576010019e-15      59.160000000000011      61.200000000000003
     4   1  7.1054273576010019e-15      61.200000000000003      59.160000000000011
     5   1      4.0800000000000054      53.040000000000006      59.160000000000011
     6   1      2.0400000000000063      57.120000000000012      57.120000000000012
     7   1      4.0800000000000054      55.080000000000013      57.120000000000012
     8   1      4.0800000000000054      57.120000000000012      55.080000000000013
     9   1      2.0400000000000063      55.080000000000013      59.160000000000011
    10   1      2.0400000000000063      57.120000000000012      61.200000000000003
    11   1      4.0800000000000054      55.080000000000013      61.200000000000003
    12   1      4.0800000000000054      57.120000000000012      59.160000000000011
    13   1      4.0800000000000054      57.120000000000012      63.240000000000009
    14   1      4.0800000000000054      59.160000000000011      53.040000000000006
    15   1      2.0400000000000063      59.160000000000011      55.080000000000013
    16   1      2.0400000000000063      61.200000000000003      57.120000000000012
    17   1      4.0800000000000054      59.160000000000011      57.120000000000012
    18   1      4.0800000000000054      61.200000000000003      55.080000000000013
    19   1      2.0400000000000063      59.160000000000011      59.160000000000011
    20   1      2.0400000000000063      61.200000000000003      61.200000000000003
    21   1      4.0800000000000054      59.160000000000011      61.200000000000003
    22   1      4.0800000000000054      61.200000000000003      59.160000000000011
    23   1      2.0400000000000063      59.160000000000011      63.240000000000009
    24   1      4.0800000000000054      59.160000000000011      65.280000000000015
    25   1      4.0800000000000054      61.200000000000003      63.240000000000009
    26   1      4.0800000000000054      63.240000000000009      57.120000000000012
    27   1      2.0400000000000063      63.240000000000009      59.160000000000011
    28   1      4.0800000000000054      63.240000000000009      61.200000000000003
    29   1      4.0800000000000054      65.280000000000015      59.160000000000011
    30   1      8.1600000000000108       44.88000000000001      59.160000000000011
    31   1      6.1200000000000045      48.960000000000008      57.120000000000012
    32   1      8.1600000000000108      46.920000000000009      57.120000000000012
    33   1      8.1600000000000108      48.960000000000008      55.080000000000013
    34   1      6.1200000000000045      46.920000000000009      59.160000000000011
    35   1      6.1200000000000045      48.960000000000008      61.200000000000003
    36   1      8.1600000000000108      46.920000000000009      61.200000000000003
    37   1      8.1600000000000108      48.960000000000008      59.160000000000011
    38   1      8.1600000000000108      48.960000000000008      63.240000000000009
    39   1      6.1200000000000045      53.040000000000006      53.040000000000006
    40   1      8.1600000000000108      51.000000000000007      53.040000000000006
    41   1      8.1600000000000108      53.040000000000006      51.000000000000007
    42   1      6.1200000000000045      51.000000000000007      55.080000000000013
    43   1      6.1200000000000045      53.040000000000006      57.120000000000012
    44   1      8.1600000000000108      51.000000000000007      57.120000000000012
    45   1      8.1600000000000108      53.040000000000006      55.080000000000013
    46   1      6.1200000000000045      51.000000000000007      59.160000000000011
    47   1      6.1200000000000045      53.040000000000006      61.200000000000003
    48   1      8.1600000000000108      51.000000000000007      61.200000000000003
    49   1      8.1600000000000108      53.040000000000006      59.160000000000011
    50   1      6.1200000000000045      51.000000000000007      63.240000000000009
    51   1      6.1200000000000045      53.040000000000006      65.280000000000015
    52   1      8.1600000000000108      51.000000000000007      65.280000000000015
    53   1      8.1600000000000108      53.040000000000006      63.240000000000009
    54   1      8.1600000000000108      53.040000000000006      67.320000000000007
    55   1      6.1200000000000045      57.120000000000012      48.960000000000008
    56   1      8.1600000000000108      55.080000000000013      48.960000000000008
    57   1      8.1600000000000108      57.120000000000012      46.920000000000009
    58   1      6.1200000000000045      55.080000000000013      51.000000000000007
    59   1      6.1200000000000045      57.120000000000012      53.040000000000006
    60   1      8.1600000000000108      55.080000000000013      53.040000000000006
    61   1      8.1600000000000108      57.120000000000012      51.000000000000007
    62   1      6.1200000000000045      55.080000000000013      55.080000000000013
    63   1      6.1200000000000045      57.120000000000012      57.120000000000012
    64   1      8.1600000000000108      55.080000000000013      57.120000000000012
    65   1      8.1600000000000108      57.120000000000012      55.080000000000013
    66   1      6.1200000000000045      55.080000000000013      59.160000000000011
    67   1      6.1200000000000045      57.120000000000012      61.200000000000003
    68   1      8.1600000000000108      55.080000000000013      61.200000000000003
    69   1      8.1600000000000108      57.120000000000012      59.160000000000011
    70   1      6.1200000000000045      55.080000000000013      63.240000000000009
    71   1      6.1200000000000045      57.120000000000012      65.280000000000015
    72   1      8.1600000000000108      55.080000000000013      65.280000000000015
    73   1      8.1600000000000108      57.120000000000012      63.240000000000009
    74   1      6.1200000000000045      55.080000000000013      67.320000000000007
    75   1      6.1200000000000045      57.120000000000012      69.360000000000014
    76   1      8.1600000000000108      55.080000000000013      69.360000000000014
    77   1      8.1600000000000108      57.120000000000012      67.320000000000007
    78   1      8.1600000000000108      57.120000000000012      71.400000000000006
    79   1      8.1600000000000108      59.160000000000011       44.88000000000001
    80   1      6.1200000000000045      59.160000000000011      46.920000000000009
    81   1      6.1200000000000045      61.200000000000003      48.960000000000008
    82   1      8.1600000000000108      59.160000000000011      48.960000000000008
    83   1      8.1600000000000108      61.200000000000003      46.920000000000009
    84   1      6.1200000000000045      59.160000000000011      51.000000000000007
    85   1      6.1200000000000045      61.200000000000003      53.040000000000006
    86   1      8.1600000000000108      59.160000000000011      53.040000000000006
    87   1      8.1600000000000108      61.200000000000003      51.000000000000007
    88   1      6.1200000000000045      59.160000000000011      55.080000000000013
    89   1      6.1200000000000045      61.200000000000003      57.120000000000012
    90   1      8.1600000000000108      59.160000000000011      57.120000000000012
    91   1      8.1600000000000108      61.200000000000003      55.080000000000013
    92   1      6.1200000000000045      59.160000000000011      59.160000000000011
    93   1      6.1200000000000045      61.200000000000003      61.200000000000003
    94   1      8.1600000000000108      59.160000000000011      61.200000000000003
    95   1      8.1600000000000108      61.200000000000003      59.160000000000011
    96   1      6.1200000000000045      59.160000000000011      63.240000000000009
    97   1      6.1200000000000045      61.200000000000003      65.280000000000015
    98   1      8.1600000000000108      59.160000000000011      65.280000000000015
    99   1      8.1600000000000108      61.200000000000003      63.240000000000009
   100   1      6.1200000000000045      59.160000000000011      67.320000000000007
   101   1      6.1200000000000045      61.200000000000003      69.360000000000014
   102   1      8.1600000000000108      59.160000000000011      69.360000000000014
   103   1      8.1600000000000108      61.200000000000003      67.320000000000007
   104   1      6.1200000000000045      59.160000000000011      71.400000000000006
   105   1      8.1600000000000108      59.160000000000011      73.440000000000012
   106   1      8.1600000000000108      61.200000000000003      71.400000000000006
   107   1      8.1600000000000108      63.240000000000009      48.960000000000008
   108   1      6.1200000000000045      63.240000000000009      51.000000000000007
   109   1      6.1200000000000045      65.280000000000015      53.040000000000006
   110   1      8.1600000000000108      63.240000000000009      53.040000000000006
   111   1      8.1600000000000108      65.280000000000015      51.000000000000007
   112   1      6.1200000000000045      63.240000000000009      55.080000000000013
   113   1      6.1200000000000045      65.280000000000015      57.120000000000012
   114   1      8.1600000000000108      63.240000000000009      57.120000000000012
   115   1      8.1600000000000108      65.280000000000015      55.080000000000013
   116   1      6.1200000000000045      63.240000000000009      59.160000000000011
   117   1      6.1200000000000045      65.280000000000015      61.200000000000003
   118   1      8.1600000000000108      63.240000000000009      61.200000000000003
   119   1      8.1600000000000108      65.280000000000015      59.160000000000011
   120   1      6.1200000000000045      63.240000000000009      63.240000000000009
   121   1      6.1200000000000045      65.280000000000015      65.280000000000015
   122   1      8.1600000000000108      63.240000000000009      65.280000000000015
   123   1      8.1600000000000108      65.280000000000015      63.240000000000009
   124   1      6.1200000000000045      63.240000000000009      67.320000000000007
   125   1      8.1600000000000108      63.240000000000009      69.360000000000014
   126   1      8.1600000000000108      65.280000000000015      67.320000000000007
   127   1      8.1600000000000108      67.320000000000007      53.040000000000006
   128   1      6.1200000000000045      67.320000000000007      55.080000000000013
   129   1      6.1200000000000045      69.360000000000014      57.120000000000012
   130   1      8.1600000000000108      67.320000000000007      57.120000000000012
   131   1      8.1600000000000108      69.360000000000014      55.080000000000013
   132   1      6.1200000000000045      67.320000000000007      59.160000000000011
   133   1      6.1200000000000045      69.360000000000014      61.200000000000003
   134   1      8.1600000000000108      67.320000000000007      61.200000000000003
   135   1      8.1600000000000108      69.360000000000014      59.160000000000011
   136   1      6.1200000000000045      67.320000000000007      63.240000000000009
   137   1      8.1600000000000108      67.320000000000007      65.280000000000015
   138   1      8.1600000000000108      69.360000000000014      63.240000000000009
   139   1      8.1600000000000108      71.400000000000006      57.120000000000012
   140   1      6.1200000000000045      71.400000000000006      59.160000000000011
   141   1      8.1600000000000108      71.400000000000006      61.200000000000003
   142   1      8.1600000000000108      73.440000000000012      59.160000000000011
   143   1      12.240000000000009      36.720000000000006      59.160000000000011
   144   1      12.240000000000009      38.760000000000005      57.120000000000012
   145   1      12.240000000000009      40.800000000000004      55.080000000000013
   146   1      12.240000000000009      38.760000000000005      61.200000000000003
   147   1      12.240000000000009      40.800000000000004      59.160000000000011
   148   1      12.240000000000009      40.800000000000004      63.240000000000009
   149   1      12.240000000000009      42.840000000000011      53.040000000000006
   150   1      12.240000000000009       44.88000000000001      51.000000000000007
   151   1       10.20000000000001       44.88000000000001      57.120000000000012
   152   1      12.240000000000009      42.840000000000011      57.120000000000012
   153   1      12.240000000000009       44.88000000000001      55.080000000000013
   154   1       10.20000000000001      42.840000000000011      59.160000000000011
   155   1       10.20000000000001       44.88000000000001      61.200000000000003
   156   1      12.240000000000009      42.840000000000011      61.200000000000003
   157   1      12.240000000000009       44.88000000000001      59.160000000000011
   158   1      12.240000000000009      42.840000000000011      65.280000000000015
   159   1      12.240000000000009       44.88000000000001      63.240000000000009
   160   1      12.240000000000009       44.88000000000001      67.320000000000007
   161   1      12.240000000000009      46.920000000000009      48.960000000000008
   162   1      12.240000000000009      48.960000000000008      46.920000000000009
   163   1       10.20000000000001      48.960000000000008      53.040000000000006
   164   1      12.240000000000009      46.920000000000009      53.040000000000006
   165   1      12.240000000000009      48.960000000000008      51.000000000000007
   166   1       10.20000000000001      46.920000000000009      55.080000000000013
   167   1       10.20000000000001      48.960000000000008      57.120000000000012
   168   1      12.240000000000009      46.920000000000009      57.120000000000012
   169   1      12.240000000000009      48.960000000000008      55.080000000000013
   170   1       10.20000000000001      46.920000000000009      59.160000000000011
   171   1       10.20000000000001      48.960000000000008      61.200000000000003
   172   1      12.240000000000009      46.920000000000009      61.200000000000003
   173   1      12.240000000000009      48.960000000000008      59.160000000000011
   174   1       10.20000000000001      46.920000000000009      63.240000000000009
   175   1       10.20000000000001      48.960000000000008      65.280000000000015
   176   1      12.240000000000009      46.920000000000009      65.280000000000015
   177   1      12.240000000000009      48.960000000000008      63.240000000000009
   178   1      12.240000000000009      46.920000000000009      69.360000000000014
   179   1      12.240000000000009      48.960000000000008      67.320000000000007
   180   1      12.240000000000009      48.960000000000008      71.400000000000006
   181   1      12.240000000000009      51.000000000000007       44.88000000000001
   182   1      12.240000000000009      53.040000000000006      42.840000000000011
   183   1       10.20000000000001      53.040000000000006      48.960000000000008
   184   1      12.240000000000009      51.000000000000007      48.960000000000008
   185   1      12.240000000000009      53.040000000000006      46.920000000000009
   186   1       10.20000000000001      51.000000000000007      51.000000000000007
   187   1       10.20000000000001      53.040000000000006      53.040000000000006
   188   1      12.240000000000009      51.000000000000007      53.040000000000006
   189   1      12.240000000000009      53.040000000000006      51.000000000000007
   190   1       10.20000000000001      51.000000000000007      55.080000000000013
   191   1       10.20000000000001      53.040000000000006      57.120000000000012
   192   1      12.240000000000009      51.000000000000007      57.120000000000012
   193   1      12.240000000000009      53.040000000000006      55.080000000000013
   194   1       10.20000000000001      51.000000000000007      59.160000000000011
   195   1       10.20000000000001      53.040000000000006      61.200000000000003
   196   1      12.240000000000009      51.000000000000007      61.200000000000003
   197   1      12.240000000000009      53.040000000000006      59.160000000000011
   198   1       10.20000000000001      51.000000000000007      63.240000000000009
   199   1       10.20000000000001      53.040000000000006      65.280000000000015
   200   1      12.240000000000009      51.000000000000007      65.280000000000015
   201   1      12.240000000000009      53.040000000000006      63.240000000000009
   202   1       10.20000000000001      51.000000000000007      67.320000000000007
   203   1       10.20000000000001      53.040000000000006      69.360000000000014
   204   1      12.240000000000009      51.000000000000007      69.360000000000014
   205   1      12.240000000000009      53.040000000000006      67.320000000000007
   206   1      12.240000000000009      51.000000000000007      73.440000000000012
   207   1      12.240000000000009      53.040000000000006      71.400000000000006
   208   1      12.240000000000009      53.040000000000006      75.480000000000004
   209   1      12.240000000000009      55.080000000000013      40.800000000000004
   210   1      12.240000000000009      57.120000000000012      38.760000000000005
   211   1       10.20000000000001      57.120000000000012       44.88000000000001
   212   1      12.240000000000009      55.080000000000013       44.88000000000001
   213   1      12.240000000000009      57.120000000000012      42.840000000000011
   214   1       10.20000000000001      55.080000000000013      46.920000000000009
   215   1       10.20000000000001      57.120000000000012      48.960000000000008
   216   1      12.240000000000009      55.080000000000013      48.960000000000008
   217   1      12.240000000000009      57.120000000000012      46.920000000000009
   218   1       10.20000000000001      55.080000000000013      51.000000000000007
   219   1       10.20000000000001      57.120000000000012      53.040000000000006
   220   1      12.240000000000009      55.080000000000013      53.040000000000006
   221   1      12.240000000000009      57.120000000000012      51.000000000000007
   222   1       10.20000000000001      55.080000000000013      55.080000000000013
   223   1       10.20000000000001      57.120000000000012      57.120000000000012
   224   1      12.240000000000009      55.080000000000013      57.120000000000012
   225   1      12.240000000000009      57.120000000000012      55.080000000000013
   226   1       10.20000000000001      55.080000000000013      59.160000000000011
   227   1       10.20000000000001      57.120000000000012      61.200000000000003
   228   1      12.240000000000009      55.080000000000013      61.200000000000003
   229   1      12.240000000000009      57.120000000000012      59.160000000000011
   230   1       10.20000000000001      55.080000000000013      63.240000000000009
   231   1       10.20000000000001      57.120000000000012      65.280000000000015
   232   1      12.240000000000009      55.080000000000013      65.280000000000015
   233   1      12.240000000000009      57.120000000000012      63.240000000000009
   234   1       10.20000000000001      55.080000000000013      67.320000000000007
   235   1       10.20000000000001      57.120000000000012      69.360000000000014
   236   1      12.240000000000009      55.080000000000013      69.360000000000014
   237   1      12.240000000000009      57.120000000000012      67.320000000000007
   238   1       10.20000000000001      55.080000000000013      71.400000000000006
   239   1       10.20000000000001      57.120000000000012      73.440000000000012
   240   1      12.240000000000009      55.080000000000013      73.440000000000012
   241   1      12.240000000000009      57.120000000000012      71.400000000000006
   242   1      12.240000000000009      55.080000000000013       77.52000000000001
   243   1      12.240000000000009      57.120000000000012      75.480000000000004
   244   1      12.240000000000009      57.120000000000012      79.560000000000002
   245   1      12.240000000000009      59.160000000000011      36.720000000000006
   246   1      12.240000000000009      59.160000000000011      40.800000000000004
   247   1      12.240000000000009      61.200000000000003      38.760000000000005
   248   1       10.20000000000001      59.160000000000011      42.840000000000011
   249   1       10.20000000000001      61.200000000000003       44.88000000000001
   250   1      12.240000000000009      59.160000000000011       44.88000000000001
   251   1      12.240000000000009      61.200000000000003      42.840000000000011
   252   1       10.20000000000001      59.160000000000011      46.920000000000009
   253   1       10.20000000000001      61.200000000000003      48.960000000000008
   254   1      12.240000000000009      59.160000000000011      48.960000000000008
   255   1      12.240000000000009      61.200000000000003      46.920000000000009
   256   1       10.20000000000001      59.160000000000011      51.000000000000007
   257   1       10.20000000000001      61.200000000000003      53.040000000000006
   258   1      12.240000000000009      59.160000000000011      53.040000000000006
   259   1      12.240000000000009      61.200000000000003      51.000000000000007
   260   1       10.20000000000001      59.160000000000011      55.080000000000013
   261   1       10.20000000000001      61.200000000000003      57.120000000000012
   262   1      12.240000000000009      59.160000000000011      57.120000000000012
   263   1      12.240000000000009      61.200000000000003      55.080000000000013
   264   1       10.20000000000001      59.160000000000011      59.160000000000011
   265   1       10.20000000000001      61.200000000000003      61.200000000000003
   266   1      12.240000000000009      59.160000000000011      61.200000000000003
   267   1      12.240000000000009      61.200000000000003      59.160000000000011
   268   1       10.20000000000001      59.160000000000011      63.240000000000009
   269   1       10.20000000000001      61.200000000000003      65.280000000000015
   270   1      12.240000000000009      59.160000000000011      65.280000000000015
   271   1      12.240000000000009      61.200000000000003      63.240000000000009
   272   1       10.20000000000001      59.160000000000011      67.320000000000007
   273   1       10.20000000000001      61.200000000000003      69.360000000000014
   274   1      12.240000000000009      59.160000000000011      69.360000000000014
   275   1      12.240000000000009      61.200000000000003      67.320000000000007
   276   1       10.20000000000001      59.160000000000011      71.400000000000006
   277   1       10.20000000000001      61.200000000000003      73.440000000000012
   278   1      12.240000000000009      59.160000000000011      73.440000000000012
   279   1      12.240000000000009      61.200000000000003      71.400000000000006
   280   1       10.20000000000001      59.160000000000011      75.480000000000004
   281   1      12.240000000000009      59.160000000000011       77.52000000000001
   282   1      12.240000000000009      61.200000000000003      75.480000000000004
   283   1      12.240000000000009      59.160000000000011      81.600000000000009
   284   1      12.240000000000009      61.200000000000003      79.560000000000002
   285   1      12.240000000000009      63.240000000000009      40.800000000000004
   286   1      12.240000000000009      63.240000000000009       44.88000000000001
   287   1      12.240000000000009      65.280000000000015      42.840000000000011
   288   1       10.20000000000001      63.240000000000009      46.920000000000009
   289   1       10.20000000000001      65.280000000000015      48.960000000000008
   290   1      12.240000000000009      63.240000000000009      48.960000000000008
   291   1      12.240000000000009      65.280000000000015      46.920000000000009
   292   1       10.20000000000001      63.240000000000009      51.000000000000007
   293   1       10.20000000000001      65.280000000000015      53.040000000000006
   294   1      12.240000000000009      63.240000000000009      53.040000000000006
   295   1      12.240000000000009      65.280000000000015      51.000000000000007
   296   1       10.20000000000001      63.240000000000009      55.080000000000013
   297   1       10.20000000000001      65.280000000000015      57.120000000000012
   298   1      12.240000000000009      63.240000000000009      57.120000000000012
   299   1      12.240000000000009      65.280000000000015      55.080000000000013
   300   1       10.20000000000001      63.240000000000009      59.160000000000011
   301   1       10.20000000000001      65.280000000000015      61.200000000000003
   302   1      12.240000000000009      63.240000000000009      61.200000000000003
   303   1      12.240000000000009      65.280000000000015      59.160000000000011
   304   1       10.20000000000001      63.240000000000009      63.240000000000009
   305   1       10.20000000000001      65.280000000000015      65.280000000000015
   306   1      12.240000000000009      63.240000000000009      65.280000000000015
   307   1      12.240000000000009      65.280000000000015      63.240000000000009
   308   1       10.20000000000001      63.240000000000009      67.320000000000007
   309   1       10.20000000000001      65.280000000000015      69.360000000000014
   310   1      12.240000000000009      63.240000000000009      69.360000000000014
   311   1      12.240000000000009      65.280000000000015      67.320000000000007
   312   1       10.20000000000001      63.240000000000009      71.400000000000006
   313   1      12.240000000000009      63.240000000000009      73.440000000000012
   314   1      12.240000000000009      65.280000000000015      71.400000000000006
   315   1      12.240000000000009      63.240000000000009       77.52000000000001
   316   1      12.240000000000009      65.280000000000015      75.480000000000004
   317   1      12.240000000000009      67.320000000000007       44.88000000000001
   318   1      12.240000000000009      67.320000000000007      48.960000000000008
   319   1      12.240000000000009      69.360000000000014      46.920000000000009
   320   1       10.20000000000001      67.320000000000007      51.000000000000007
   321   1       10.20000000000001      69.360000000000014      53.040000000000006
   322   1      12.240000000000009      67.320000000000007      53.040000000000006
   323   1      12.240000000000009      69.360000000000014      51.000000000000007
   324   1       10.20000000000001      67.320000000000007      55.080000000000013
   325   1       10.20000000000001      69.360000000000014      57.120000000000012
   326   1      12.240000000000009      67.320000000000007      57.120000000000012
   327   1      12.240000000000009      69.360000000000014      55.080000000000013
   328   1       10.20000000000001      67.320000000000007      59.160000000000011
   329   1       10.20000000000001      69.360000000000014      61.200000000000003
   330   1      12.240000000000009      67.320000000000007      61.200000000000003
   331   1      12.240000000000009      69.360000000000014      59.160000000000011
   332   1       10.20000000000001      67.320000000000007      63.240000000000009
   333   1       10.20000000000001      69.360000000000014      65.280000000000015
   334   1      12.240000000000009      67.320000000000007      65.280000000000015
   335   1      12.240000000000009      69.360000000000014      63.240000000000009
   336   1       10.20000000000001      67.320000000000007      67.320000000000007
   337   1      12.240000000000009      67.320000000000007      69.360000000000014
   338   1      12.240000000000009      69.360000000000014      67.320000000000007
   339   1      12.240000000000009      67.320000000000007      73.440000000000012
   340   1      12.240000000000009      69.360000000000014      71.400000000000006
   341   1      12.240000000000009      71.400000000000006      48.960000000000008
   342   1      12.240000000000009      71.400000000000006      53.040000000000006
   343   1      12.240000000000009      73.440000000000012      51.000000000000007
   344   1       10.20000000000001      71.400000000000006      55.080000000000013
   345   1       10.20000000000001      73.440000000000012      57.120000000000012
   346   1      12.240000000000009      71.400000000000006      57.120000000000012
   347   1      12.240000000000009      73.440000000000012      55.080000000000013
   348   1       10.20000000000001      71.400000000000006      59.160000000000011
   349   1       10.20000000000001      73.440000000000012      61.200000000000003
   350   1      12.240000000000009      71.400000000000006      61.200000000000003
   351   1      12.240000000000009      73.440000000000012      59.160000000000011
   352   1       10.20000000000001      71.400000000000006      63.240000000000009
   353   1      12.240000000000009      71.400000000000006      65.280000000000015
   354   1      12.240000000000009      73.440000000000012      63.240000000000009
   355   1      12.240000000000009      71.400000000000006      69.360000000000014
   356   1      12.240000000000009      73.440000000000012      67.320000000000007
   357   1      12.240000000000009      75.480000000000004      53.040000000000006
   358   1      12.240000000000009      75.480000000000004      57.120000000000012