model_files/CuAu/CuAu_30000/CuAu_543/CuAu_543_fcc_30079_temp.data (written by ASE) 

30079 	 atoms 
2  atom types
0.0                     117  xlo xhi
0.0                     117  ylo yhi
0.0                     117  zlo zhi


Atoms 

     1   1  7.1054273576010019e-15      56.100000000000016       57.97000000000002
     2   1  7.1054273576010019e-15       57.97000000000002      56.100000000000016
     3   1  7.1054273576010019e-15       57.97000000000002      59.840000000000018
     4   1  7.1054273576010019e-15      59.840000000000018       57.97000000000002
     5   1      3.7400000000000091      52.360000000000014       57.97000000000002
     6   1      1.8700000000000119      56.100000000000016      56.100000000000016
     7   1      3.7400000000000091      54.230000000000018      56.100000000000016
     8   1      3.7400000000000091      56.100000000000016      54.230000000000018
     9   1      1.8700000000000119      54.230000000000018       57.97000000000002
    10   1      1.8700000000000119      56.100000000000016      59.840000000000018
    11   1      3.7400000000000091      54.230000000000018      59.840000000000018
    12   1      3.7400000000000091      56.100000000000016       57.97000000000002
    13   1      3.7400000000000091      56.100000000000016      61.710000000000015
    14   1      3.7400000000000091       57.97000000000002      52.360000000000014
    15   1      1.8700000000000119       57.97000000000002      54.230000000000018
    16   1      1.8700000000000119      59.840000000000018      56.100000000000016
    17   1      3.7400000000000091       57.97000000000002      56.100000000000016
    18   1      3.7400000000000091      59.840000000000018      54.230000000000018
    19   1      1.8700000000000119       57.97000000000002       57.97000000000002
    20   1      1.8700000000000119      59.840000000000018      59.840000000000018
    21   1      3.7400000000000091       57.97000000000002      59.840000000000018
    22   1      3.7400000000000091      59.840000000000018       57.97000000000002
    23   1      1.8700000000000119       57.97000000000002      61.710000000000015
    24   1      3.7400000000000091       57.97000000000002      63.580000000000013
    25   1      3.7400000000000091      59.840000000000018      61.710000000000015
    26   1      3.7400000000000091      61.710000000000015      56.100000000000016
    27   1      1.8700000000000119      61.710000000000015       57.97000000000002
    28   1      3.7400000000000091      61.710000000000015      59.840000000000018
    29   1      3.7400000000000091      63.580000000000013       57.97000000000002
    30   1       7.480000000000012      48.620000000000012       57.97000000000002
    31   1      5.6100000000000145      52.360000000000014      56.100000000000016
    32   1       7.480000000000012      50.490000000000016      56.100000000000016
    33   1       7.480000000000012      52.360000000000014      54.230000000000018
    34   1      5.6100000000000145      50.490000000000016       57.97000000000002
    35   1      5.6100000000000145      52.360000000000014      59.840000000000018
    36   1       7.480000000000012      50.490000000000016      59.840000000000018
    37   1       7.480000000000012      52.360000000000014       57.97000000000002
    38   1       7.480000000000012      52.360000000000014      61.710000000000015
    39   1      5.6100000000000145      56.100000000000016      52.360000000000014
    40   1       7.480000000000012      54.230000000000018      52.360000000000014
    41   1       7.480000000000012      56.100000000000016      50.490000000000016
    42   1      5.6100000000000145      54.230000000000018      54.230000000000018
    43   1      5.6100000000000145      56.100000000000016      56.100000000000016
    44   1       7.480000000000012      54.230000000000018      56.100000000000016
    45   1       7.480000000000012      56.100000000000016      54.230000000000018
    46   1      5.6100000000000145      54.230000000000018       57.97000000000002
    47   1      5.6100000000000145      56.100000000000016      59.840000000000018
    48   1       7.480000000000012      54.230000000000018      59.840000000000018
    49   1       7.480000000000012      56.100000000000016       57.97000000000002
    50   1      5.6100000000000145      54.230000000000018      61.710000000000015
    51   1      5.6100000000000145      56.100000000000016      63.580000000000013
    52   1       7.480000000000012      54.230000000000018      63.580000000000013
    53   1       7.480000000000012      56.100000000000016      61.710000000000015
    54   1       7.480000000000012      56.100000000000016      65.450000000000031
    55   1       7.480000000000012       57.97000000000002      48.620000000000012
    56   1      5.6100000000000145       57.97000000000002      50.490000000000016
    57   1      5.6100000000000145      59.840000000000018      52.360000000000014
    58   1       7.480000000000012       57.97000000000002      52.360000000000014
    59   1       7.480000000000012      59.840000000000018      50.490000000000016
    60   1      5.6100000000000145       57.97000000000002      54.230000000000018
    61   1      5.6100000000000145      59.840000000000018      56.100000000000016
    62   1       7.480000000000012       57.97000000000002      56.100000000000016
    63   1       7.480000000000012      59.840000000000018      54.230000000000018
    64   1      5.6100000000000145       57.97000000000002       57.97000000000002
    65   1      5.6100000000000145      59.840000000000018      59.840000000000018
    66   1       7.480000000000012       57.97000000000002      59.840000000000018
    67   1       7.480000000000012      59.840000000000018       57.97000000000002
    68   1      5.6100000000000145       57.97000000000002      61.710000000000015
    69   1      5.6100000000000145      59.840000000000018      63.580000000000013
    70   1       7.480000000000012       57.97000000000002      63.580000000000013
    71   1       7.480000000000012      59.840000000000018      61.710000000000015
    72   1      5.6100000000000145       57.97000000000002      65.450000000000031
    73   1       7.480000000000012       57.97000000000002      67.320000000000022
    74   1       7.480000000000012      59.840000000000018      65.450000000000031
    75   1       7.480000000000012      61.710000000000015      52.360000000000014
    76   1      5.6100000000000145      61.710000000000015      54.230000000000018
    77   1      5.6100000000000145      63.580000000000013      56.100000000000016
    78   1       7.480000000000012      61.710000000000015      56.100000000000016
    79   1       7.480000000000012      63.580000000000013      54.230000000000018
    80   1      5.6100000000000145      61.710000000000015       57.97000000000002
    81   1      5.6100000000000145      63.580000000000013      59.840000000000018
    82   1       7.480000000000012      61.710000000000015      59.840000000000018
    83   1       7.480000000000012      63.580000000000013       57.97000000000002
    84   1      5.6100000000000145      61.710000000000015      61.710000000000015
    85   1       7.480000000000012      61.710000000000015      63.580000000000013
    86   1       7.480000000000012      63.580000000000013      61.710000000000015
    87   1       7.480000000000012      65.450000000000031      56.100000000000016
    88   1      5.6100000000000145      65.450000000000031       57.97000000000002
    89   1       7.480000000000012      65.450000000000031      59.840000000000018
    90   1       7.480000000000012      67.320000000000022       57.97000000000002
    91   1      11.220000000000015      44.880000000000017      54.230000000000018
    92   1      11.220000000000015      44.880000000000017       57.97000000000002
    93   1      11.220000000000015      44.880000000000017      61.710000000000015
    94   1      9.3500000000000085      48.620000000000012      52.360000000000014
    95   1      11.220000000000015      46.750000000000014      52.360000000000014
    96   1      11.220000000000015      48.620000000000012      50.490000000000016
    97   1      9.3500000000000085      48.620000000000012      56.100000000000016
    98   1      11.220000000000015      46.750000000000014      56.100000000000016
    99   1      11.220000000000015      48.620000000000012      54.230000000000018
   100   1      9.3500000000000085      46.750000000000014       57.97000000000002
   101   1      9.3500000000000085      48.620000000000012      59.840000000000018
   102   1      11.220000000000015      46.750000000000014      59.840000000000018
   103   1      11.220000000000015      48.620000000000012       57.97000000000002
   104   1      9.3500000000000085      48.620000000000012      63.580000000000013
   105   1      11.220000000000015      46.750000000000014      63.580000000000013
   106   1      11.220000000000015      48.620000000000012      61.710000000000015
   107   1      11.220000000000015      48.620000000000012      65.450000000000031
   108   1      9.3500000000000085      52.360000000000014      48.620000000000012
   109   1      11.220000000000015      50.490000000000016      48.620000000000012
   110   1      11.220000000000015      52.360000000000014      46.750000000000014
   111   1      9.3500000000000085      50.490000000000016      50.490000000000016
   112   1      9.3500000000000085      52.360000000000014      52.360000000000014
   113   1      11.220000000000015      50.490000000000016      52.360000000000014
   114   1      11.220000000000015      52.360000000000014      50.490000000000016
   115   1      9.3500000000000085      50.490000000000016      54.230000000000018
   116   1      9.3500000000000085      52.360000000000014      56.100000000000016
   117   1      11.220000000000015      50.490000000000016      56.100000000000016
   118   1      11.220000000000015      52.360000000000014      54.230000000000018
   119   1      9.3500000000000085      50.490000000000016       57.97000000000002
   120   1      9.3500000000000085      52.360000000000014      59.840000000000018
   121   1      11.220000000000015      50.490000000000016      59.840000000000018
   122   1      11.220000000000015      52.360000000000014       57.97000000000002
   123   1      9.3500000000000085      50.490000000000016      61.710000000000015
   124   1      9.3500000000000085      52.360000000000014      63.580000000000013
   125   1      11.220000000000015      50.490000000000016      63.580000000000013
   126   1      11.220000000000015      52.360000000000014      61.710000000000015
   127   1      9.3500000000000085      50.490000000000016      65.450000000000031
   128   1      9.3500000000000085      52.360000000000014      67.320000000000022
   129   1      11.220000000000015      50.490000000000016      67.320000000000022
   130   1      11.220000000000015      52.360000000000014      65.450000000000031
   131   1      11.220000000000015      52.360000000000014      69.190000000000026
   132   1      11.220000000000015      54.230000000000018      44.880000000000017
   133   1      9.3500000000000085      56.100000000000016      48.620000000000012
   134   1      11.220000000000015      54.230000000000018      48.620000000000012
   135   1      11.220000000000015      56.100000000000016      46.750000000000014
   136   1      9.3500000000000085      54.230000000000018      50.490000000000016
   137   1      9.3500000000000085      56.100000000000016      52.360000000000014
   138   1      11.220000000000015      54.230000000000018      52.360000000000014
   139   1      11.220000000000015      56.100000000000016      50.490000000000016
   140   1      9.3500000000000085      54.230000000000018      54.230000000000018
   141   1      9.3500000000000085      56.100000000000016      56.100000000000016
   142   1      11.220000000000015      54.230000000000018      56.100000000000016
   143   1      11.220000000000015      56.100000000000016      54.230000000000018
   144   1      9.3500000000000085      54.230000000000018       57.97000000000002
   145   1      9.3500000000000085      56.100000000000016      59.840000000000018
   146   1      11.220000000000015      54.230000000000018      59.840000000000018
   147   1      11.220000000000015      56.100000000000016       57.97000000000002
   148   1      9.3500000000000085      54.230000000000018      61.710000000000015
   149   1      9.3500000000000085      56.100000000000016      63.580000000000013
   150   1      11.220000000000015      54.230000000000018      63.580000000000013
   151   1      11.220000000000015      56.100000000000016      61.710000000000015
   152   1      9.3500000000000085      54.230000000000018      65.450000000000031
   153   1      9.3500000000000085      56.100000000000016      67.320000000000022
   154   1      11.220000000000015      54.230000000000018      67.320000000000022
   155   1      11.220000000000015      56.100000000000016      65.450000000000031
   156   1      11.220000000000015      54.230000000000018      71.060000000000016
   157   1      11.220000000000015      56.100000000000016      69.190000000000026
   158   1      11.220000000000015       57.97000000000002      44.880000000000017
   159   1      9.3500000000000085       57.97000000000002      46.750000000000014
   160   1      9.3500000000000085      59.840000000000018      48.620000000000012
   161   1      11.220000000000015       57.97000000000002      48.620000000000012
   162   1      11.220000000000015      59.840000000000018      46.750000000000014
   163   1      9.3500000000000085       57.97000000000002      50.490000000000016
   164   1      9.3500000000000085      59.840000000000018      52.360000000000014
   165   1      11.220000000000015       57.97000000000002      52.360000000000014
   166   1      11.220000000000015      59.840000000000018      50.490000000000016
   167   1      9.3500000000000085       57.97000000000002      54.230000000000018
   168   1      9.3500000000000085      59.840000000000018      56.100000000000016
   169   1      11.220000000000015       57.97000000000002      56.100000000000016
   170   1      11.220000000000015      59.840000000000018      54.230000000000018
   171   1      9.3500000000000085       57.97000000000002       57.97000000000002
   172   1      9.3500000000000085      59.840000000000018      59.840000000000018
   173   1      11.220000000000015       57.97000000000002      59.840000000000018
   174   1      11.220000000000015      59.840000000000018       57.97000000000002
   175   1      9.3500000000000085       57.97000000000002      61.710000000000015
   176   1      9.3500000000000085      59.840000000000018      63.580000000000013
   177   1      11.220000000000015       57.97000000000002      63.580000000000013
   178   1      11.220000000000015      59.840000000000018      61.710000000000015
   179   1      9.3500000000000085       57.97000000000002      65.450000000000031
   180   1      9.3500000000000085      59.840000000000018      67.320000000000022
   181   1      11.220000000000015       57.97000000000002      67.320000000000022
   182   1      11.220000000000015      59.840000000000018      65.450000000000031
   183   1      9.3500000000000085       57.97000000000002      69.190000000000026
   184   1      11.220000000000015       57.97000000000002      71.060000000000016
   185   1      11.220000000000015      59.840000000000018      69.190000000000026
   186   1      11.220000000000015      61.710000000000015      44.880000000000017
   187   1      9.3500000000000085      63.580000000000013      48.620000000000012
   188   1      11.220000000000015      61.710000000000015      48.620000000000012
   189   1      11.220000000000015      63.580000000000013      46.750000000000014
   190   1      9.3500000000000085      61.710000000000015      50.490000000000016
   191   1      9.3500000000000085      63.580000000000013      52.360000000000014
   192   1      11.220000000000015      61.710000000000015      52.360000000000014
   193   1      11.220000000000015      63.580000000000013      50.490000000000016
   194   1      9.3500000000000085      61.710000000000015      54.230000000000018
   195   1      9.3500000000000085      63.580000000000013      56.100000000000016
   196   1      11.220000000000015      61.710000000000015      56.100000000000016
   197   1      11.220000000000015      63.580000000000013      54.230000000000018
   198   1      9.3500000000000085      61.710000000000015       57.97000000000002
   199   1      9.3500000000000085      63.580000000000013      59.840000000000018
   200   1      11.220000000000015      61.710000000000015      59.840000000000018
   201   1      11.220000000000015      63.580000000000013       57.97000000000002
   202   1      9.3500000000000085      61.710000000000015      61.710000000000015
   203   1      9.3500000000000085      63.580000000000013      63.580000000000013
   204   1      11.220000000000015      61.710000000000015      63.580000000000013
   205   1      11.220000000000015      63.580000000000013      61.710000000000015
   206   1      9.3500000000000085      61.710000000000015      65.450000000000031
   207   1      9.3500000000000085      63.580000000000013      67.320000000000022
   208   1      11.220000000000015      61.710000000000015      67.320000000000022
   209   1      11.220000000000015      63.580000000000013      65.450000000000031
   210   1      11.220000000000015      61.710000000000015      71.060000000000016
   211   1      11.220000000000015      63.580000000000013      69.190000000000026
   212   1      11.220000000000015      65.450000000000031      48.620000000000012
   213   1      9.3500000000000085      65.450000000000031      50.490000000000016
   214   1      9.3500000000000085      67.320000000000022      52.360000000000014
   215   1      11.220000000000015      65.450000000000031      52.360000000000014
   216   1      11.220000000000015      67.320000000000022      50.490000000000016
   217   1      9.3500000000000085      65.450000000000031      54.230000000000018
   218   1      9.3500000000000085      67.320000000000022      56.100000000000016
   219   1      11.220000000000015      65.450000000000031      56.100000000000016
   220   1      11.220000000000015      67.320000000000022      54.230000000000018
   221   1      9.3500000000000085      65.450000000000031       57.97000000000002
   222   1      9.3500000000000085      67.320000000000022      59.840000000000018
   223   1      11.220000000000015      65.450000000000031      59.840000000000018
   224   1      11.220000000000015      67.320000000000022       57.97000000000002
   225   1      9.3500000000000085      65.450000000000031      61.710000000000015
   226   1      9.3500000000000085      67.320000000000022      63.580000000000013
   227   1      11.220000000000015      65.450000000000031      63.580000000000013
   228   1      11.220000000000015      67.320000000000022      61.710000000000015
   229   1      9.3500000000000085      65.450000000000031      65.450000000000031
   230   1      11.220000000000015      65.450000000000031      67.320000000000022
   231   1      11.220000000000015      67.320000000000022      65.450000000000031
   232   1      11.220000000000015      69.190000000000026      52.360000000000014
   233   1      11.220000000000015      69.190000000000026      56.100000000000016
   234   1      11.220000000000015      71.060000000000016      54.230000000000018
   235   1      9.3500000000000085      69.190000000000026       57.97000000000002
   236   1      11.220000000000015      69.190000000000026      59.840000000000018
   237   1      11.220000000000015      71.060000000000016       57.97000000000002
   238   1      11.220000000000015      69.190000000000026      63.580000000000013
   239   1      11.220000000000015      71.060000000000016      61.710000000000015
   240   1      14.960000000000008       37.40000000000002       57.97000000000002
   241   1      13.090000000000012      41.140000000000015      56.100000000000016
   242   1      14.960000000000008      39.270000000000017      56.100000000000016
   243   1      14.960000000000008      41.140000000000015      54.230000000000018
   244   1      13.090000000000012      41.140000000000015      59.840000000000018
   245   1      14.960000000000008      39.270000000000017      59.840000000000018
   246   1      14.960000000000008      41.140000000000015       57.97000000000002
   247   1      14.960000000000008      41.140000000000015      61.710000000000015
   248   1      13.090000000000012      44.880000000000017      52.360000000000014
   249   1      14.960000000000008      43.010000000000019      52.360000000000014
   250   1      14.960000000000008      44.880000000000017      50.490000000000016
   251   1      13.090000000000012      43.010000000000019      54.230000000000018
   252   1      13.090000000000012      44.880000000000017      56.100000000000016
   253   1      14.960000000000008      43.010000000000019      56.100000000000016
   254   1      14.960000000000008      44.880000000000017      54.230000000000018
   255   1      13.090000000000012      43.010000000000019       57.97000000000002
   256   1      13.090000000000012      44.880000000000017      59.840000000000018
   257   1      14.960000000000008      43.010000000000019      59.840000000000018
   258   1      14.960000000000008      44.880000000000017       57.97000000000002
   259   1      13.090000000000012      43.010000000000019      61.710000000000015
   260   1      13.090000000000012      44.880000000000017      63.580000000000013
   261   1      14.960000000000008      43.010000000000019      63.580000000000013
   262   1      14.960000000000008      44.880000000000017      61.710000000000015
   263   1      14.960000000000008      44.880000000000017      65.450000000000031
   264   1      13.090000000000012      48.620000000000012      48.620000000000012
   265   1      14.960000000000008      46.750000000000014      48.620000000000012
   266   1      14.960000000000008      48.620000000000012      46.750000000000014
   267   1      13.090000000000012      46.750000000000014      50.490000000000016
   268   1      13.090000000000012      48.620000000000012      52.360000000000014
   269   1      14.960000000000008      46.750000000000014      52.360000000000014
   270   1      14.960000000000008      48.620000000000012      50.490000000000016
   271   1      13.090000000000012      46.750000000000014      54.230000000000018
   272   1      13.090000000000012      48.620000000000012      56.100000000000016
   273   1      14.960000000000008      46.750000000000014      56.100000000000016
   274   1      14.960000000000008      48.620000000000012      54.230000000000018
   275   1      13.090000000000012      46.750000000000014       57.97000000000002
   276   1      13.090000000000012      48.620000000000012      59.840000000000018
   277   1      14.960000000000008      46.750000000000014      59.840000000000018
   278   1      14.960000000000008      48.620000000000012       57.97000000000002
   279   1      13.090000000000012      46.750000000000014      61.710000000000015
   280   1      13.090000000000012      48.620000000000012      63.580000000000013
   281   1      14.960000000000008      46.750000000000014      63.580000000000013
   282   1      14.960000000000008      48.620000000000012      61.710000000000015
   283   1      13.090000000000012      46.750000000000014      65.450000000000031
   284   1      13.090000000000012      48.620000000000012      67.320000000000022
   285   1      14.960000000000008      46.750000000000014      67.320000000000022
   286   1      14.960000000000008      48.620000000000012      65.450000000000031
   287   1      14.960000000000008      48.620000000000012      69.190000000000026
   288   1      13.090000000000012      52.360000000000014      44.880000000000017
   289   1      14.960000000000008      50.490000000000016      44.880000000000017
   290   1      14.960000000000008      52.360000000000014      43.010000000000019
   291   1      13.090000000000012      50.490000000000016      46.750000000000014
   292   1      13.090000000000012      52.360000000000014      48.620000000000012
   293   1      14.960000000000008      50.490000000000016      48.620000000000012
   294   1      14.960000000000008      52.360000000000014      46.750000000000014
   295   1      13.090000000000012      50.490000000000016      50.490000000000016
   296   1      13.090000000000012      52.360000000000014      52.360000000000014
   297   1      14.960000000000008      50.490000000000016      52.360000000000014
   298   1      14.960000000000008      52.360000000000014      50.490000000000016
   299   1      13.090000000000012      50.490000000000016      54.230000000000018
   300   1      13.090000000000012      52.360000000000014      56.100000000000016
   301   1      14.960000000000008      50.490000000000016      56.100000000000016
   302   1      14.960000000000008      52.360000000000014      54.230000000000018
   303   1      13.090000000000012      50.490000000000016       57.97000000000002
   304   1      13.090000000000012      52.360000000000014      59.840000000000018
   305   1      14.960000000000008      50.490000000000016      59.840000000000018
   306   1      14.960000000000008      52.360000000000014       57.97000000000002
   307   1      13.090000000000012      50.490000000000016      61.710000000000015
   308   1      13.090000000000012      52.360000000000014      63.580000000000013
   309   1      14.960000000000008      50.490000000000016      63.580000000000013
   310   1      14.960000000000008      52.360000000000014      61.710000000000015
   311   1      13.090000000000012      50.490000000000016      65.450000000000031
   312   1      13.090000000000012      52.360000000000014      67.320000000000022
   313   1      14.960000000000008      50.490000000000016      67.320000000000022
   314   1      14.960000000000008      52.360000000000014      65.450000000000031
   315   1      13.090000000000012      50.490000000000016      69.190000000000026
   316   1      13.090000000000012      52.360000000000014      71.060000000000016
   317   1      14.960000000000008      50.490000000000016      71.060000000000016
   318   1      14.960000000000008      52.360000000000014      69.190000000000026
   319   1      14.960000000000008      52.360000000000014      72.930000000000035
   320   1      13.090000000000012      56.100000000000016      41.140000000000015
   321   1      14.960000000000008      54.230000000000018      41.140000000000015
   322   1      14.960000000000008      56.100000000000016      39.270000000000017
   323   1      13.090000000000012      54.230000000000018      43.010000000000019
   324   1      13.090000000000012      56.100000000000016      44.880000000000017
   325   1      14.960000000000008      54.230000000000018      44.880000000000017
   326   1      14.960000000000008      56.100000000000016      43.010000000000019
   327   1      13.090000000000012      54.230000000000018      46.750000000000014
   328   1      13.090000000000012      56.100000000000016      48.620000000000012
   329   1      14.960000000000008      54.230000000000018      48.620000000000012
   330   1      14.960000000000008      56.100000000000016      46.750000000000014
   331   1      13.090000000000012      54.230000000000018      50.490000000000016
   332   1      13.090000000000012      56.100000000000016      52.360000000000014
   333   1      14.960000000000008      54.230000000000018      52.360000000000014
   334   1      14.960000000000008      56.100000000000016      50.490000000000016
   335   1      13.090000000000012      54.230000000000018      54.230000000000018
   336   1      13.090000000000012      56.100000000000016      56.100000000000016
   337   1      14.960000000000008      54.230000000000018      56.100000000000016
   338   1      14.960000000000008      56.100000000000016      54.230000000000018
   339   1      13.090000000000012      54.230000000000018       57.97000000000002
   340   1      13.090000000000012      56.100000000000016      59.840000000000018
   341   1      14.960000000000008      54.230000000000018      59.840000000000018
   342   1      14.960000000000008      56.100000000000016       57.97000000000002
   343   1      13.090000000000012      54.230000000000018      61.710000000000015
   344   1      13.090000000000012      56.100000000000016      63.580000000000013
   345   1      14.960000000000008      54.230000000000018      63.580000000000013
   346   1      14.960000000000008      56.100000000000016      61.710000000000015
   347   1      13.090000000000012      54.230000000000018      65.450000000000031
   348   1      13.090000000000012      56.100000000000016      67.320000000000022
   349   1      14.960000000000008      54.230000000000018      67.320000000000022
   350   1      14.960000000000008      56.100000000000016      65.450000000000031
   351   1      13.090000000000012      54.230000000000018      69.190000000000026
   352   1      13.090000000000012      56.100000000000016      71.060000000000016
   353   1      14.960000000000008      54.230000000000018      71.060000000000016
   354   1      14.960000000000008      56.100000000000016      69.190000000000026
   355   1      13.090000000000012      54.230000000000018      72.930000000000035
   356   1      13.090000000000012      56.100000000000016       74.80000000000004
   357   1      14.960000000000008      54.230000000000018       74.80000000000004
   358   1      14.960000000000008      56.100000000000016      72.930000000000035