model_files/Ag/Ag_30000/Ag_421/data.Ag_421_fcc_30423 (written by ASE) 

30423 	 atoms 
1  atom types
0.0                     106  xlo xhi
0.0                     106  ylo yhi
0.0                     106  zlo zhi


Atoms 

     1   1      2.0449999999999946      47.034999999999997      49.079999999999998
     2   1      2.0449999999999946      47.034999999999997      53.169999999999995
     3   1      2.0449999999999946      47.034999999999997      57.259999999999991
     4   1      2.0449999999999946      49.079999999999998      47.034999999999997
     5   1      105.99999999999999      51.124999999999993      51.124999999999993
     6   1      2.0449999999999946      49.079999999999998      51.124999999999993
     7   1      2.0449999999999946      51.124999999999993      49.079999999999998
     8   1      105.99999999999999      49.079999999999998      53.169999999999995
     9   1      105.99999999999999      51.124999999999993      55.214999999999989
    10   1      2.0449999999999946      49.079999999999998      55.214999999999989
    11   1      2.0449999999999946      51.124999999999993      53.169999999999995
    12   1      2.0449999999999946      49.079999999999998      59.304999999999986
    13   1      2.0449999999999946      51.124999999999993      57.259999999999991
    14   1      2.0449999999999946      53.169999999999995      47.034999999999997
    15   1      105.99999999999999      53.169999999999995      49.079999999999998
    16   1      105.99999999999999      55.214999999999989      51.124999999999993
    17   1      2.0449999999999946      53.169999999999995      51.124999999999993
    18   1      2.0449999999999946      55.214999999999989      49.079999999999998
    19   1      105.99999999999999      53.169999999999995      53.169999999999995
    20   1      105.99999999999999      55.214999999999989      55.214999999999989
    21   1      2.0449999999999946      53.169999999999995      55.214999999999989
    22   1      2.0449999999999946      55.214999999999989      53.169999999999995
    23   1      105.99999999999999      53.169999999999995      57.259999999999991
    24   1      2.0449999999999946      53.169999999999995      59.304999999999986
    25   1      2.0449999999999946      55.214999999999989      57.259999999999991
    26   1      2.0449999999999946      57.259999999999991      47.034999999999997
    27   1      2.0449999999999946      57.259999999999991      51.124999999999993
    28   1      2.0449999999999946      59.304999999999986      49.079999999999998
    29   1      105.99999999999999      57.259999999999991      53.169999999999995
    30   1      2.0449999999999946      57.259999999999991      55.214999999999989
    31   1      2.0449999999999946      59.304999999999986      53.169999999999995
    32   1      2.0449999999999946      57.259999999999991      59.304999999999986
    33   1      2.0449999999999946      59.304999999999986      57.259999999999991
    34   1       6.134999999999998      38.854999999999997      49.079999999999998
    35   1       6.134999999999998      38.854999999999997      53.169999999999995
    36   1       6.134999999999998      38.854999999999997      57.259999999999991
    37   1       6.134999999999998      40.899999999999991      47.034999999999997
    38   1       6.134999999999998      42.944999999999993      44.989999999999995
    39   1      4.0899999999999963      42.944999999999993      51.124999999999993
    40   1       6.134999999999998      40.899999999999991      51.124999999999993
    41   1       6.134999999999998      42.944999999999993      49.079999999999998
    42   1      4.0899999999999963      40.899999999999991      53.169999999999995
    43   1      4.0899999999999963      42.944999999999993      55.214999999999989
    44   1       6.134999999999998      40.899999999999991      55.214999999999989
    45   1       6.134999999999998      42.944999999999993      53.169999999999995
    46   1       6.134999999999998      40.899999999999991      59.304999999999986
    47   1       6.134999999999998      42.944999999999993      57.259999999999991
    48   1       6.134999999999998      42.944999999999993      61.349999999999994
    49   1       6.134999999999998      44.989999999999995      42.944999999999993
    50   1       6.134999999999998      47.034999999999997      40.899999999999991
    51   1      4.0899999999999963      44.989999999999995      44.989999999999995
    52   1      4.0899999999999963      47.034999999999997      47.034999999999997
    53   1       6.134999999999998      44.989999999999995      47.034999999999997
    54   1       6.134999999999998      47.034999999999997      44.989999999999995
    55   1      4.0899999999999963      44.989999999999995      49.079999999999998
    56   1      4.0899999999999963      47.034999999999997      51.124999999999993
    57   1       6.134999999999998      44.989999999999995      51.124999999999993
    58   1       6.134999999999998      47.034999999999997      49.079999999999998
    59   1      4.0899999999999963      44.989999999999995      53.169999999999995
    60   1      4.0899999999999963      47.034999999999997      55.214999999999989
    61   1       6.134999999999998      44.989999999999995      55.214999999999989
    62   1       6.134999999999998      47.034999999999997      53.169999999999995
    63   1      4.0899999999999963      44.989999999999995      57.259999999999991
    64   1      4.0899999999999963      47.034999999999997      59.304999999999986
    65   1       6.134999999999998      44.989999999999995      59.304999999999986
    66   1       6.134999999999998      47.034999999999997      57.259999999999991
    67   1      4.0899999999999963      44.989999999999995      61.349999999999994
    68   1       6.134999999999998      44.989999999999995      63.394999999999996
    69   1       6.134999999999998      47.034999999999997      61.349999999999994
    70   1       6.134999999999998      47.034999999999997      65.439999999999984
    71   1       6.134999999999998      49.079999999999998      38.854999999999997
    72   1      4.0899999999999963      51.124999999999993      42.944999999999993
    73   1       6.134999999999998      49.079999999999998      42.944999999999993
    74   1       6.134999999999998      51.124999999999993      40.899999999999991
    75   1      4.0899999999999963      49.079999999999998      44.989999999999995
    76   1      4.0899999999999963      51.124999999999993      47.034999999999997
    77   1       6.134999999999998      49.079999999999998      47.034999999999997
    78   1       6.134999999999998      51.124999999999993      44.989999999999995
    79   1      4.0899999999999963      49.079999999999998      49.079999999999998
    80   1      4.0899999999999963      51.124999999999993      51.124999999999993
    81   1       6.134999999999998      49.079999999999998      51.124999999999993
    82   1       6.134999999999998      51.124999999999993      49.079999999999998
    83   1      4.0899999999999963      49.079999999999998      53.169999999999995
    84   1      4.0899999999999963      51.124999999999993      55.214999999999989
    85   1       6.134999999999998      49.079999999999998      55.214999999999989
    86   1       6.134999999999998      51.124999999999993      53.169999999999995
    87   1      4.0899999999999963      49.079999999999998      57.259999999999991
    88   1      4.0899999999999963      51.124999999999993      59.304999999999986
    89   1       6.134999999999998      49.079999999999998      59.304999999999986
    90   1       6.134999999999998      51.124999999999993      57.259999999999991
    91   1      4.0899999999999963      49.079999999999998      61.349999999999994
    92   1      4.0899999999999963      51.124999999999993      63.394999999999996
    93   1       6.134999999999998      49.079999999999998      63.394999999999996
    94   1       6.134999999999998      51.124999999999993      61.349999999999994
    95   1       6.134999999999998      49.079999999999998      67.484999999999999
    96   1       6.134999999999998      51.124999999999993      65.439999999999984
    97   1       6.134999999999998      53.169999999999995      38.854999999999997
    98   1      4.0899999999999963      53.169999999999995      40.899999999999991
    99   1      4.0899999999999963      55.214999999999989      42.944999999999993
   100   1       6.134999999999998      53.169999999999995      42.944999999999993
   101   1       6.134999999999998      55.214999999999989      40.899999999999991
   102   1      4.0899999999999963      53.169999999999995      44.989999999999995
   103   1      4.0899999999999963      55.214999999999989      47.034999999999997
   104   1       6.134999999999998      53.169999999999995      47.034999999999997
   105   1       6.134999999999998      55.214999999999989      44.989999999999995
   106   1      4.0899999999999963      53.169999999999995      49.079999999999998
   107   1      4.0899999999999963      55.214999999999989      51.124999999999993
   108   1       6.134999999999998      53.169999999999995      51.124999999999993
   109   1       6.134999999999998      55.214999999999989      49.079999999999998
   110   1      4.0899999999999963      53.169999999999995      53.169999999999995
   111   1      4.0899999999999963      55.214999999999989      55.214999999999989
   112   1       6.134999999999998      53.169999999999995      55.214999999999989
   113   1       6.134999999999998      55.214999999999989      53.169999999999995
   114   1      4.0899999999999963      53.169999999999995      57.259999999999991
   115   1      4.0899999999999963      55.214999999999989      59.304999999999986
   116   1       6.134999999999998      53.169999999999995      59.304999999999986
   117   1       6.134999999999998      55.214999999999989      57.259999999999991
   118   1      4.0899999999999963      53.169999999999995      61.349999999999994
   119   1      4.0899999999999963      55.214999999999989      63.394999999999996
   120   1       6.134999999999998      53.169999999999995      63.394999999999996
   121   1       6.134999999999998      55.214999999999989      61.349999999999994
   122   1      4.0899999999999963      53.169999999999995      65.439999999999984
   123   1       6.134999999999998      53.169999999999995      67.484999999999999
   124   1       6.134999999999998      55.214999999999989      65.439999999999984
   125   1       6.134999999999998      57.259999999999991      38.854999999999997
   126   1       6.134999999999998      57.259999999999991      42.944999999999993
   127   1       6.134999999999998      59.304999999999986      40.899999999999991
   128   1      4.0899999999999963      57.259999999999991      44.989999999999995
   129   1      4.0899999999999963      59.304999999999986      47.034999999999997
   130   1       6.134999999999998      57.259999999999991      47.034999999999997
   131   1       6.134999999999998      59.304999999999986      44.989999999999995
   132   1      4.0899999999999963      57.259999999999991      49.079999999999998
   133   1      4.0899999999999963      59.304999999999986      51.124999999999993
   134   1       6.134999999999998      57.259999999999991      51.124999999999993
   135   1       6.134999999999998      59.304999999999986      49.079999999999998
   136   1      4.0899999999999963      57.259999999999991      53.169999999999995
   137   1      4.0899999999999963      59.304999999999986      55.214999999999989
   138   1       6.134999999999998      57.259999999999991      55.214999999999989
   139   1       6.134999999999998      59.304999999999986      53.169999999999995
   140   1      4.0899999999999963      57.259999999999991      57.259999999999991
   141   1      4.0899999999999963      59.304999999999986      59.304999999999986
   142   1       6.134999999999998      57.259999999999991      59.304999999999986
   143   1       6.134999999999998      59.304999999999986      57.259999999999991
   144   1      4.0899999999999963      57.259999999999991      61.349999999999994
   145   1       6.134999999999998      57.259999999999991      63.394999999999996
   146   1       6.134999999999998      59.304999999999986      61.349999999999994
   147   1       6.134999999999998      57.259999999999991      67.484999999999999
   148   1       6.134999999999998      59.304999999999986      65.439999999999984
   149   1       6.134999999999998      61.349999999999994      42.944999999999993
   150   1      4.0899999999999963      61.349999999999994      44.989999999999995
   151   1       6.134999999999998      61.349999999999994      47.034999999999997
   152   1       6.134999999999998      63.394999999999996      44.989999999999995
   153   1      4.0899999999999963      61.349999999999994      49.079999999999998
   154   1      4.0899999999999963      63.394999999999996      51.124999999999993
   155   1       6.134999999999998      61.349999999999994      51.124999999999993
   156   1       6.134999999999998      63.394999999999996      49.079999999999998
   157   1      4.0899999999999963      61.349999999999994      53.169999999999995
   158   1      4.0899999999999963      63.394999999999996      55.214999999999989
   159   1       6.134999999999998      61.349999999999994      55.214999999999989
   160   1       6.134999999999998      63.394999999999996      53.169999999999995
   161   1      4.0899999999999963      61.349999999999994      57.259999999999991
   162   1       6.134999999999998      61.349999999999994      59.304999999999986
   163   1       6.134999999999998      63.394999999999996      57.259999999999991
   164   1      4.0899999999999963      61.349999999999994      61.349999999999994
   165   1       6.134999999999998      61.349999999999994      63.394999999999996
   166   1       6.134999999999998      63.394999999999996      61.349999999999994
   167   1       6.134999999999998      65.439999999999984      47.034999999999997
   168   1       6.134999999999998      65.439999999999984      51.124999999999993
   169   1       6.134999999999998      67.484999999999999      49.079999999999998
   170   1      4.0899999999999963      65.439999999999984      53.169999999999995
   171   1       6.134999999999998      65.439999999999984      55.214999999999989
   172   1       6.134999999999998      67.484999999999999      53.169999999999995
   173   1       6.134999999999998      65.439999999999984      59.304999999999986
   174   1       6.134999999999998      67.484999999999999      57.259999999999991
   175   1      10.224999999999993      30.674999999999997      49.079999999999998
   176   1      10.224999999999993      30.674999999999997      53.169999999999995
   177   1      10.224999999999993      30.674999999999997      57.259999999999991
   178   1      10.224999999999993      34.765000000000001      40.899999999999991
   179   1      10.224999999999993      32.719999999999992      47.034999999999997
   180   1      10.224999999999993      34.765000000000001      44.989999999999995
   181   1      8.1799999999999979      34.765000000000001      51.124999999999993
   182   1      10.224999999999993      32.719999999999992      51.124999999999993
   183   1      10.224999999999993      34.765000000000001      49.079999999999998
   184   1      8.1799999999999979      32.719999999999992      53.169999999999995
   185   1      8.1799999999999979      34.765000000000001      55.214999999999989
   186   1      10.224999999999993      32.719999999999992      55.214999999999989
   187   1      10.224999999999993      34.765000000000001      53.169999999999995
   188   1      10.224999999999993      32.719999999999992      59.304999999999986
   189   1      10.224999999999993      34.765000000000001      57.259999999999991
   190   1      10.224999999999993      34.765000000000001      61.349999999999994
   191   1      10.224999999999993      34.765000000000001      65.439999999999984
   192   1      10.224999999999993      36.809999999999995      38.854999999999997
   193   1      10.224999999999993      38.854999999999997      36.809999999999995
   194   1      8.1799999999999979      38.854999999999997      42.944999999999993
   195   1      10.224999999999993      36.809999999999995      42.944999999999993
   196   1      10.224999999999993      38.854999999999997      40.899999999999991
   197   1      8.1799999999999979      36.809999999999995      44.989999999999995
   198   1      8.1799999999999979      38.854999999999997      47.034999999999997
   199   1      10.224999999999993      36.809999999999995      47.034999999999997
   200   1      10.224999999999993      38.854999999999997      44.989999999999995
   201   1      8.1799999999999979      36.809999999999995      49.079999999999998
   202   1      8.1799999999999979      38.854999999999997      51.124999999999993
   203   1      10.224999999999993      36.809999999999995      51.124999999999993
   204   1      10.224999999999993      38.854999999999997      49.079999999999998
   205   1      8.1799999999999979      36.809999999999995      53.169999999999995
   206   1      8.1799999999999979      38.854999999999997      55.214999999999989
   207   1      10.224999999999993      36.809999999999995      55.214999999999989
   208   1      10.224999999999993      38.854999999999997      53.169999999999995
   209   1      8.1799999999999979      36.809999999999995      57.259999999999991
   210   1      8.1799999999999979      38.854999999999997      59.304999999999986
   211   1      10.224999999999993      36.809999999999995      59.304999999999986
   212   1      10.224999999999993      38.854999999999997      57.259999999999991
   213   1      8.1799999999999979      36.809999999999995      61.349999999999994
   214   1      8.1799999999999979      38.854999999999997      63.394999999999996
   215   1      10.224999999999993      36.809999999999995      63.394999999999996
   216   1      10.224999999999993      38.854999999999997      61.349999999999994
   217   1      10.224999999999993      36.809999999999995      67.484999999999999
   218   1      10.224999999999993      38.854999999999997      65.439999999999984
   219   1      10.224999999999993      38.854999999999997      69.530000000000001
   220   1      10.224999999999993      40.899999999999991      34.765000000000001
   221   1      8.1799999999999979      42.944999999999993      38.854999999999997
   222   1      10.224999999999993      40.899999999999991      38.854999999999997
   223   1      10.224999999999993      42.944999999999993      36.809999999999995
   224   1      8.1799999999999979      40.899999999999991      40.899999999999991
   225   1      8.1799999999999979      42.944999999999993      42.944999999999993
   226   1      10.224999999999993      40.899999999999991      42.944999999999993
   227   1      10.224999999999993      42.944999999999993      40.899999999999991
   228   1      8.1799999999999979      40.899999999999991      44.989999999999995
   229   1      8.1799999999999979      42.944999999999993      47.034999999999997
   230   1      10.224999999999993      40.899999999999991      47.034999999999997
   231   1      10.224999999999993      42.944999999999993      44.989999999999995
   232   1      8.1799999999999979      40.899999999999991      49.079999999999998
   233   1      8.1799999999999979      42.944999999999993      51.124999999999993
   234   1      10.224999999999993      40.899999999999991      51.124999999999993
   235   1      10.224999999999993      42.944999999999993      49.079999999999998
   236   1      8.1799999999999979      40.899999999999991      53.169999999999995
   237   1      8.1799999999999979      42.944999999999993      55.214999999999989
   238   1      10.224999999999993      40.899999999999991      55.214999999999989
   239   1      10.224999999999993      42.944999999999993      53.169999999999995
   240   1      8.1799999999999979      40.899999999999991      57.259999999999991
   241   1      8.1799999999999979      42.944999999999993      59.304999999999986
   242   1      10.224999999999993      40.899999999999991      59.304999999999986
   243   1      10.224999999999993      42.944999999999993      57.259999999999991
   244   1      8.1799999999999979      40.899999999999991      61.349999999999994
   245   1      8.1799999999999979      42.944999999999993      63.394999999999996
   246   1      10.224999999999993      40.899999999999991      63.394999999999996
   247   1      10.224999999999993      42.944999999999993      61.349999999999994
   248   1      8.1799999999999979      40.899999999999991      65.439999999999984
   249   1      8.1799999999999979      42.944999999999993      67.484999999999999
   250   1      10.224999999999993      40.899999999999991      67.484999999999999
   251   1      10.224999999999993      42.944999999999993      65.439999999999984
   252   1      10.224999999999993      40.899999999999991      71.574999999999989
   253   1      10.224999999999993      42.944999999999993      69.530000000000001
   254   1      10.224999999999993      44.989999999999995      34.765000000000001
   255   1      10.224999999999993      47.034999999999997      32.719999999999992
   256   1      8.1799999999999979      44.989999999999995      36.809999999999995
   257   1      8.1799999999999979      47.034999999999997      38.854999999999997
   258   1      10.224999999999993      44.989999999999995      38.854999999999997
   259   1      10.224999999999993      47.034999999999997      36.809999999999995
   260   1      8.1799999999999979      44.989999999999995      40.899999999999991
   261   1      8.1799999999999979      47.034999999999997      42.944999999999993
   262   1      10.224999999999993      44.989999999999995      42.944999999999993
   263   1      10.224999999999993      47.034999999999997      40.899999999999991
   264   1      8.1799999999999979      44.989999999999995      44.989999999999995
   265   1      8.1799999999999979      47.034999999999997      47.034999999999997
   266   1      10.224999999999993      44.989999999999995      47.034999999999997
   267   1      10.224999999999993      47.034999999999997      44.989999999999995
   268   1      8.1799999999999979      44.989999999999995      49.079999999999998
   269   1      8.1799999999999979      47.034999999999997      51.124999999999993
   270   1      10.224999999999993      44.989999999999995      51.124999999999993
   271   1      10.224999999999993      47.034999999999997      49.079999999999998
   272   1      8.1799999999999979      44.989999999999995      53.169999999999995
   273   1      8.1799999999999979      47.034999999999997      55.214999999999989
   274   1      10.224999999999993      44.989999999999995      55.214999999999989
   275   1      10.224999999999993      47.034999999999997      53.169999999999995
   276   1      8.1799999999999979      44.989999999999995      57.259999999999991
   277   1      8.1799999999999979      47.034999999999997      59.304999999999986
   278   1      10.224999999999993      44.989999999999995      59.304999999999986
   279   1      10.224999999999993      47.034999999999997      57.259999999999991
   280   1      8.1799999999999979      44.989999999999995      61.349999999999994
   281   1      8.1799999999999979      47.034999999999997      63.394999999999996
   282   1      10.224999999999993      44.989999999999995      63.394999999999996
   283   1      10.224999999999993      47.034999999999997      61.349999999999994
   284   1      8.1799999999999979      44.989999999999995      65.439999999999984
   285   1      8.1799999999999979      47.034999999999997      67.484999999999999
   286   1      10.224999999999993      44.989999999999995      67.484999999999999
   287   1      10.224999999999993      47.034999999999997      65.439999999999984
   288   1      8.1799999999999979      44.989999999999995      69.530000000000001
   289   1      10.224999999999993      44.989999999999995      71.574999999999989
   290   1      10.224999999999993      47.034999999999997      69.530000000000001
   291   1      10.224999999999993      47.034999999999997       73.61999999999999
   292   1      10.224999999999993      49.079999999999998      30.674999999999997
   293   1      8.1799999999999979      51.124999999999993      34.765000000000001
   294   1      10.224999999999993      49.079999999999998      34.765000000000001
   295   1      10.224999999999993      51.124999999999993      32.719999999999992
   296   1      8.1799999999999979      49.079999999999998      36.809999999999995
   297   1      8.1799999999999979      51.124999999999993      38.854999999999997
   298   1      10.224999999999993      49.079999999999998      38.854999999999997
   299   1      10.224999999999993      51.124999999999993      36.809999999999995
   300   1      8.1799999999999979      49.079999999999998      40.899999999999991
   301   1      8.1799999999999979      51.124999999999993      42.944999999999993
   302   1      10.224999999999993      49.079999999999998      42.944999999999993
   303   1      10.224999999999993      51.124999999999993      40.899999999999991
   304   1      8.1799999999999979      49.079999999999998      44.989999999999995
   305   1      8.1799999999999979      51.124999999999993      47.034999999999997
   306   1      10.224999999999993      49.079999999999998      47.034999999999997
   307   1      10.224999999999993      51.124999999999993      44.989999999999995
   308   1      8.1799999999999979      49.079999999999998      49.079999999999998
   309   1      8.1799999999999979      51.124999999999993      51.124999999999993
   310   1      10.224999999999993      49.079999999999998      51.124999999999993
   311   1      10.224999999999993      51.124999999999993      49.079999999999998
   312   1      8.1799999999999979      49.079999999999998      53.169999999999995
   313   1      8.1799999999999979      51.124999999999993      55.214999999999989
   314   1      10.224999999999993      49.079999999999998      55.214999999999989
   315   1      10.224999999999993      51.124999999999993      53.169999999999995
   316   1      8.1799999999999979      49.079999999999998      57.259999999999991
   317   1      8.1799999999999979      51.124999999999993      59.304999999999986
   318   1      10.224999999999993      49.079999999999998      59.304999999999986
   319   1      10.224999999999993      51.124999999999993      57.259999999999991
   320   1      8.1799999999999979      49.079999999999998      61.349999999999994
   321   1      8.1799999999999979      51.124999999999993      63.394999999999996
   322   1      10.224999999999993      49.079999999999998      63.394999999999996
   323   1      10.224999999999993      51.124999999999993      61.349999999999994
   324   1      8.1799999999999979      49.079999999999998      65.439999999999984
   325   1      8.1799999999999979      51.124999999999993      67.484999999999999
   326   1      10.224999999999993      49.079999999999998      67.484999999999999
   327   1      10.224999999999993      51.124999999999993      65.439999999999984
   328   1      8.1799999999999979      49.079999999999998      69.530000000000001
   329   1      8.1799999999999979      51.124999999999993      71.574999999999989
   330   1      10.224999999999993      49.079999999999998      71.574999999999989
   331   1      10.224999999999993      51.124999999999993      69.530000000000001
   332   1      10.224999999999993      49.079999999999998      75.664999999999992
   333   1      10.224999999999993      51.124999999999993       73.61999999999999
   334   1      10.224999999999993      53.169999999999995      30.674999999999997
   335   1      8.1799999999999979      53.169999999999995      32.719999999999992
   336   1      8.1799999999999979      55.214999999999989      34.765000000000001
   337   1      10.224999999999993      53.169999999999995      34.765000000000001
   338   1      10.224999999999993      55.214999999999989      32.719999999999992
   339   1      8.1799999999999979      53.169999999999995      36.809999999999995
   340   1      8.1799999999999979      55.214999999999989      38.854999999999997
   341   1      10.224999999999993      53.169999999999995      38.854999999999997
   342   1      10.224999999999993      55.214999999999989      36.809999999999995
   343   1      8.1799999999999979      53.169999999999995      40.899999999999991
   344   1      8.1799999999999979      55.214999999999989      42.944999999999993
   345   1      10.224999999999993      53.169999999999995      42.944999999999993
   346   1      10.224999999999993      55.214999999999989      40.899999999999991
   347   1      8.1799999999999979      53.169999999999995      44.989999999999995
   348   1      8.1799999999999979      55.214999999999989      47.034999999999997
   349   1      10.224999999999993      53.169999999999995      47.034999999999997
   350   1      10.224999999999993      55.214999999999989      44.989999999999995
   351   1      8.1799999999999979      53.169999999999995      49.079999999999998
   352   1      8.1799999999999979      55.214999999999989      51.124999999999993
   353   1      10.224999999999993      53.169999999999995      51.124999999999993
   354   1      10.224999999999993      55.214999999999989      49.079999999999998
   355   1      8.1799999999999979      53.169999999999995      53.169999999999995
   356   1      8.1799999999999979      55.214999999999989      55.214999999999989
   357   1      10.224999999999993      53.169999999999995      55.214999999999989
   358   1      10.224999999999993      55.214999999999989      53.169999999999995