model_files/PtAu/PtAu_30000/PtAu_210/PtAu_210_fcc_30389_temp.data (written by ASE) 

30389 	 atoms 
2  atom types
0.0                     103  xlo xhi
0.0                     103  ylo yhi
0.0                     103  zlo zhi


Atoms 

     1   1                       0      48.515999999999998      50.537499999999994
     2   1                       0      50.537499999999994      48.515999999999998
     3   1                       0      50.537499999999994      52.558999999999997
     4   1                       0      52.558999999999997      50.537499999999994
     5   1      4.0429999999999993      40.429999999999993      42.451499999999996
     6   1      4.0429999999999993      40.429999999999993      46.494500000000002
     7   1      4.0429999999999993      40.429999999999993      50.537499999999994
     8   1      4.0429999999999993      40.429999999999993      54.580499999999994
     9   1      4.0429999999999993      40.429999999999993                 58.6235
    10   1      4.0429999999999993      42.451499999999996      40.429999999999993
    11   1      2.0214999999999961      44.472999999999999      44.472999999999999
    12   1      4.0429999999999993      42.451499999999996      44.472999999999999
    13   1      4.0429999999999993      44.472999999999999      42.451499999999996
    14   1      2.0214999999999961      44.472999999999999      48.515999999999998
    15   1      4.0429999999999993      42.451499999999996      48.515999999999998
    16   1      4.0429999999999993      44.472999999999999      46.494500000000002
    17   1      2.0214999999999961      44.472999999999999      52.558999999999997
    18   1      4.0429999999999993      42.451499999999996      52.558999999999997
    19   1      4.0429999999999993      44.472999999999999      50.537499999999994
    20   1      2.0214999999999961      44.472999999999999      56.601999999999997
    21   1      4.0429999999999993      42.451499999999996      56.601999999999997
    22   1      4.0429999999999993      44.472999999999999      54.580499999999994
    23   1      4.0429999999999993      42.451499999999996      60.645000000000003
    24   1      4.0429999999999993      44.472999999999999                 58.6235
    25   1      4.0429999999999993      46.494500000000002      40.429999999999993
    26   1      2.0214999999999961      48.515999999999998      44.472999999999999
    27   1      4.0429999999999993      46.494500000000002      44.472999999999999
    28   1      4.0429999999999993      48.515999999999998      42.451499999999996
    29   1      2.0214999999999961      46.494500000000002      46.494500000000002
    30   1      2.0214999999999961      48.515999999999998      48.515999999999998
    31   1      4.0429999999999993      46.494500000000002      48.515999999999998
    32   1      4.0429999999999993      48.515999999999998      46.494500000000002
    33   1      2.0214999999999961      46.494500000000002      50.537499999999994
    34   1      2.0214999999999961      48.515999999999998      52.558999999999997
    35   1      4.0429999999999993      46.494500000000002      52.558999999999997
    36   1      4.0429999999999993      48.515999999999998      50.537499999999994
    37   1      2.0214999999999961      46.494500000000002      54.580499999999994
    38   1      2.0214999999999961      48.515999999999998      56.601999999999997
    39   1      4.0429999999999993      46.494500000000002      56.601999999999997
    40   1      4.0429999999999993      48.515999999999998      54.580499999999994
    41   1      4.0429999999999993      46.494500000000002      60.645000000000003
    42   1      4.0429999999999993      48.515999999999998                 58.6235
    43   1      4.0429999999999993      50.537499999999994      40.429999999999993
    44   1      2.0214999999999961      52.558999999999997      44.472999999999999
    45   1      4.0429999999999993      50.537499999999994      44.472999999999999
    46   1      4.0429999999999993      52.558999999999997      42.451499999999996
    47   1      2.0214999999999961      50.537499999999994      46.494500000000002
    48   1      2.0214999999999961      52.558999999999997      48.515999999999998
    49   1      4.0429999999999993      50.537499999999994      48.515999999999998
    50   1      4.0429999999999993      52.558999999999997      46.494500000000002
    51   1      2.0214999999999961      50.537499999999994      50.537499999999994
    52   1      2.0214999999999961      52.558999999999997      52.558999999999997
    53   1      4.0429999999999993      50.537499999999994      52.558999999999997
    54   1      4.0429999999999993      52.558999999999997      50.537499999999994
    55   1      2.0214999999999961      50.537499999999994      54.580499999999994
    56   1      2.0214999999999961      52.558999999999997      56.601999999999997
    57   1      4.0429999999999993      50.537499999999994      56.601999999999997
    58   1      4.0429999999999993      52.558999999999997      54.580499999999994
    59   1      4.0429999999999993      50.537499999999994      60.645000000000003
    60   1      4.0429999999999993      52.558999999999997                 58.6235
    61   1      4.0429999999999993      54.580499999999994      40.429999999999993
    62   1      2.0214999999999961      56.601999999999997      44.472999999999999
    63   1      4.0429999999999993      54.580499999999994      44.472999999999999
    64   1      4.0429999999999993      56.601999999999997      42.451499999999996
    65   1      2.0214999999999961      54.580499999999994      46.494500000000002
    66   1      2.0214999999999961      56.601999999999997      48.515999999999998
    67   1      4.0429999999999993      54.580499999999994      48.515999999999998
    68   1      4.0429999999999993      56.601999999999997      46.494500000000002
    69   1      2.0214999999999961      54.580499999999994      50.537499999999994
    70   1      2.0214999999999961      56.601999999999997      52.558999999999997
    71   1      4.0429999999999993      54.580499999999994      52.558999999999997
    72   1      4.0429999999999993      56.601999999999997      50.537499999999994
    73   1      2.0214999999999961      54.580499999999994      54.580499999999994
    74   1      2.0214999999999961      56.601999999999997      56.601999999999997
    75   1      4.0429999999999993      54.580499999999994      56.601999999999997
    76   1      4.0429999999999993      56.601999999999997      54.580499999999994
    77   1      4.0429999999999993      54.580499999999994      60.645000000000003
    78   1      4.0429999999999993      56.601999999999997                 58.6235
    79   1      4.0429999999999993                 58.6235      40.429999999999993
    80   1      4.0429999999999993                 58.6235      44.472999999999999
    81   1      4.0429999999999993      60.645000000000003      42.451499999999996
    82   1      4.0429999999999993                 58.6235      48.515999999999998
    83   1      4.0429999999999993      60.645000000000003      46.494500000000002
    84   1      4.0429999999999993                 58.6235      52.558999999999997
    85   1      4.0429999999999993      60.645000000000003      50.537499999999994
    86   1      4.0429999999999993                 58.6235      56.601999999999997
    87   1      4.0429999999999993      60.645000000000003      54.580499999999994
    88   1      4.0429999999999993                 58.6235      60.645000000000003
    89   1      4.0429999999999993      60.645000000000003                 58.6235
    90   1      8.0859999999999985      32.344000000000001      34.365499999999997
    91   1      8.0859999999999985      32.344000000000001      38.408499999999989
    92   1      8.0859999999999985      32.344000000000001      42.451499999999996
    93   1      8.0859999999999985      32.344000000000001      46.494500000000002
    94   1      8.0859999999999985      32.344000000000001      50.537499999999994
    95   1      8.0859999999999985      32.344000000000001      54.580499999999994
    96   1      8.0859999999999985      32.344000000000001                 58.6235
    97   1      8.0859999999999985      32.344000000000001      62.666499999999992
    98   1      8.0859999999999985      32.344000000000001      66.709500000000006
    99   1      8.0859999999999985      34.365499999999997      32.344000000000001
   100   1      6.0644999999999945      36.386999999999993      36.386999999999993
   101   1      8.0859999999999985      34.365499999999997      36.386999999999993
   102   1      8.0859999999999985      36.386999999999993      34.365499999999997
   103   1      6.0644999999999945      36.386999999999993      40.429999999999993
   104   1      8.0859999999999985      34.365499999999997      40.429999999999993
   105   1      8.0859999999999985      36.386999999999993      38.408499999999989
   106   1      6.0644999999999945      36.386999999999993      44.472999999999999
   107   1      8.0859999999999985      34.365499999999997      44.472999999999999
   108   1      8.0859999999999985      36.386999999999993      42.451499999999996
   109   1      6.0644999999999945      36.386999999999993      48.515999999999998
   110   1      8.0859999999999985      34.365499999999997      48.515999999999998
   111   1      8.0859999999999985      36.386999999999993      46.494500000000002
   112   1      6.0644999999999945      36.386999999999993      52.558999999999997
   113   1      8.0859999999999985      34.365499999999997      52.558999999999997
   114   1      8.0859999999999985      36.386999999999993      50.537499999999994
   115   1      6.0644999999999945      36.386999999999993      56.601999999999997
   116   1      8.0859999999999985      34.365499999999997      56.601999999999997
   117   1      8.0859999999999985      36.386999999999993      54.580499999999994
   118   1      6.0644999999999945      36.386999999999993      60.645000000000003
   119   1      8.0859999999999985      34.365499999999997      60.645000000000003
   120   1      8.0859999999999985      36.386999999999993                 58.6235
   121   1      6.0644999999999945      36.386999999999993      64.688000000000002
   122   1      8.0859999999999985      34.365499999999997      64.688000000000002
   123   1      8.0859999999999985      36.386999999999993      62.666499999999992
   124   1      8.0859999999999985      34.365499999999997      68.731000000000009
   125   1      8.0859999999999985      36.386999999999993      66.709500000000006
   126   1      8.0859999999999985      38.408499999999989      32.344000000000001
   127   1      6.0644999999999945      40.429999999999993      36.386999999999993
   128   1      8.0859999999999985      38.408499999999989      36.386999999999993
   129   1      8.0859999999999985      40.429999999999993      34.365499999999997
   130   1      6.0644999999999945      38.408499999999989      38.408499999999989
   131   1      6.0644999999999945      40.429999999999993      40.429999999999993
   132   1      8.0859999999999985      38.408499999999989      40.429999999999993
   133   1      8.0859999999999985      40.429999999999993      38.408499999999989
   134   1      6.0644999999999945      38.408499999999989      42.451499999999996
   135   1      6.0644999999999945      40.429999999999993      44.472999999999999
   136   1      8.0859999999999985      38.408499999999989      44.472999999999999
   137   1      8.0859999999999985      40.429999999999993      42.451499999999996
   138   1      6.0644999999999945      38.408499999999989      46.494500000000002
   139   1      6.0644999999999945      40.429999999999993      48.515999999999998
   140   1      8.0859999999999985      38.408499999999989      48.515999999999998
   141   1      8.0859999999999985      40.429999999999993      46.494500000000002
   142   1      6.0644999999999945      38.408499999999989      50.537499999999994
   143   1      6.0644999999999945      40.429999999999993      52.558999999999997
   144   1      8.0859999999999985      38.408499999999989      52.558999999999997
   145   1      8.0859999999999985      40.429999999999993      50.537499999999994
   146   1      6.0644999999999945      38.408499999999989      54.580499999999994
   147   1      6.0644999999999945      40.429999999999993      56.601999999999997
   148   1      8.0859999999999985      38.408499999999989      56.601999999999997
   149   1      8.0859999999999985      40.429999999999993      54.580499999999994
   150   1      6.0644999999999945      38.408499999999989                 58.6235
   151   1      6.0644999999999945      40.429999999999993      60.645000000000003
   152   1      8.0859999999999985      38.408499999999989      60.645000000000003
   153   1      8.0859999999999985      40.429999999999993                 58.6235
   154   1      6.0644999999999945      38.408499999999989      62.666499999999992
   155   1      6.0644999999999945      40.429999999999993      64.688000000000002
   156   1      8.0859999999999985      38.408499999999989      64.688000000000002
   157   1      8.0859999999999985      40.429999999999993      62.666499999999992
   158   1      8.0859999999999985      38.408499999999989      68.731000000000009
   159   1      8.0859999999999985      40.429999999999993      66.709500000000006
   160   1      8.0859999999999985      42.451499999999996      32.344000000000001
   161   1      6.0644999999999945      44.472999999999999      36.386999999999993
   162   1      8.0859999999999985      42.451499999999996      36.386999999999993
   163   1      8.0859999999999985      44.472999999999999      34.365499999999997
   164   1      6.0644999999999945      42.451499999999996      38.408499999999989
   165   1      6.0644999999999945      44.472999999999999      40.429999999999993
   166   1      8.0859999999999985      42.451499999999996      40.429999999999993
   167   1      8.0859999999999985      44.472999999999999      38.408499999999989
   168   1      6.0644999999999945      42.451499999999996      42.451499999999996
   169   1      6.0644999999999945      44.472999999999999      44.472999999999999
   170   1      8.0859999999999985      42.451499999999996      44.472999999999999
   171   1      8.0859999999999985      44.472999999999999      42.451499999999996
   172   1      6.0644999999999945      42.451499999999996      46.494500000000002
   173   1      6.0644999999999945      44.472999999999999      48.515999999999998
   174   1      8.0859999999999985      42.451499999999996      48.515999999999998
   175   1      8.0859999999999985      44.472999999999999      46.494500000000002
   176   1      6.0644999999999945      42.451499999999996      50.537499999999994
   177   1      6.0644999999999945      44.472999999999999      52.558999999999997
   178   1      8.0859999999999985      42.451499999999996      52.558999999999997
   179   1      8.0859999999999985      44.472999999999999      50.537499999999994
   180   1      6.0644999999999945      42.451499999999996      54.580499999999994
   181   1      6.0644999999999945      44.472999999999999      56.601999999999997
   182   1      8.0859999999999985      42.451499999999996      56.601999999999997
   183   1      8.0859999999999985      44.472999999999999      54.580499999999994
   184   1      6.0644999999999945      42.451499999999996                 58.6235
   185   1      6.0644999999999945      44.472999999999999      60.645000000000003
   186   1      8.0859999999999985      42.451499999999996      60.645000000000003
   187   1      8.0859999999999985      44.472999999999999                 58.6235
   188   1      6.0644999999999945      42.451499999999996      62.666499999999992
   189   1      6.0644999999999945      44.472999999999999      64.688000000000002
   190   1      8.0859999999999985      42.451499999999996      64.688000000000002
   191   1      8.0859999999999985      44.472999999999999      62.666499999999992
   192   1      8.0859999999999985      42.451499999999996      68.731000000000009
   193   1      8.0859999999999985      44.472999999999999      66.709500000000006
   194   1      8.0859999999999985      46.494500000000002      32.344000000000001
   195   1      6.0644999999999945      48.515999999999998      36.386999999999993
   196   1      8.0859999999999985      46.494500000000002      36.386999999999993
   197   1      8.0859999999999985      48.515999999999998      34.365499999999997
   198   1      6.0644999999999945      46.494500000000002      38.408499999999989
   199   1      6.0644999999999945      48.515999999999998      40.429999999999993
   200   1      8.0859999999999985      46.494500000000002      40.429999999999993
   201   1      8.0859999999999985      48.515999999999998      38.408499999999989
   202   1      6.0644999999999945      46.494500000000002      42.451499999999996
   203   1      6.0644999999999945      48.515999999999998      44.472999999999999
   204   1      8.0859999999999985      46.494500000000002      44.472999999999999
   205   1      8.0859999999999985      48.515999999999998      42.451499999999996
   206   1      6.0644999999999945      46.494500000000002      46.494500000000002
   207   1      6.0644999999999945      48.515999999999998      48.515999999999998
   208   1      8.0859999999999985      46.494500000000002      48.515999999999998
   209   1      8.0859999999999985      48.515999999999998      46.494500000000002
   210   1      6.0644999999999945      46.494500000000002      50.537499999999994
   211   1      6.0644999999999945      48.515999999999998      52.558999999999997
   212   1      8.0859999999999985      46.494500000000002      52.558999999999997
   213   1      8.0859999999999985      48.515999999999998      50.537499999999994
   214   1      6.0644999999999945      46.494500000000002      54.580499999999994
   215   1      6.0644999999999945      48.515999999999998      56.601999999999997
   216   1      8.0859999999999985      46.494500000000002      56.601999999999997
   217   1      8.0859999999999985      48.515999999999998      54.580499999999994
   218   1      6.0644999999999945      46.494500000000002                 58.6235
   219   1      6.0644999999999945      48.515999999999998      60.645000000000003
   220   1      8.0859999999999985      46.494500000000002      60.645000000000003
   221   1      8.0859999999999985      48.515999999999998                 58.6235
   222   1      6.0644999999999945      46.494500000000002      62.666499999999992
   223   1      6.0644999999999945      48.515999999999998      64.688000000000002
   224   1      8.0859999999999985      46.494500000000002      64.688000000000002
   225   1      8.0859999999999985      48.515999999999998      62.666499999999992
   226   1      8.0859999999999985      46.494500000000002      68.731000000000009
   227   1      8.0859999999999985      48.515999999999998      66.709500000000006
   228   1      8.0859999999999985      50.537499999999994      32.344000000000001
   229   1      6.0644999999999945      52.558999999999997      36.386999999999993
   230   1      8.0859999999999985      50.537499999999994      36.386999999999993
   231   1      8.0859999999999985      52.558999999999997      34.365499999999997
   232   1      6.0644999999999945      50.537499999999994      38.408499999999989
   233   1      6.0644999999999945      52.558999999999997      40.429999999999993
   234   1      8.0859999999999985      50.537499999999994      40.429999999999993
   235   1      8.0859999999999985      52.558999999999997      38.408499999999989
   236   1      6.0644999999999945      50.537499999999994      42.451499999999996
   237   1      6.0644999999999945      52.558999999999997      44.472999999999999
   238   1      8.0859999999999985      50.537499999999994      44.472999999999999
   239   1      8.0859999999999985      52.558999999999997      42.451499999999996
   240   1      6.0644999999999945      50.537499999999994      46.494500000000002
   241   1      6.0644999999999945      52.558999999999997      48.515999999999998
   242   1      8.0859999999999985      50.537499999999994      48.515999999999998
   243   1      8.0859999999999985      52.558999999999997      46.494500000000002
   244   1      6.0644999999999945      50.537499999999994      50.537499999999994
   245   1      6.0644999999999945      52.558999999999997      52.558999999999997
   246   1      8.0859999999999985      50.537499999999994      52.558999999999997
   247   1      8.0859999999999985      52.558999999999997      50.537499999999994
   248   1      6.0644999999999945      50.537499999999994      54.580499999999994
   249   1      6.0644999999999945      52.558999999999997      56.601999999999997
   250   1      8.0859999999999985      50.537499999999994      56.601999999999997
   251   1      8.0859999999999985      52.558999999999997      54.580499999999994
   252   1      6.0644999999999945      50.537499999999994                 58.6235
   253   1      6.0644999999999945      52.558999999999997      60.645000000000003
   254   1      8.0859999999999985      50.537499999999994      60.645000000000003
   255   1      8.0859999999999985      52.558999999999997                 58.6235
   256   1      6.0644999999999945      50.537499999999994      62.666499999999992
   257   1      6.0644999999999945      52.558999999999997      64.688000000000002
   258   1      8.0859999999999985      50.537499999999994      64.688000000000002
   259   1      8.0859999999999985      52.558999999999997      62.666499999999992
   260   1      8.0859999999999985      50.537499999999994      68.731000000000009
   261   1      8.0859999999999985      52.558999999999997      66.709500000000006
   262   1      8.0859999999999985      54.580499999999994      32.344000000000001
   263   1      6.0644999999999945      56.601999999999997      36.386999999999993
   264   1      8.0859999999999985      54.580499999999994      36.386999999999993
   265   1      8.0859999999999985      56.601999999999997      34.365499999999997
   266   1      6.0644999999999945      54.580499999999994      38.408499999999989
   267   1      6.0644999999999945      56.601999999999997      40.429999999999993
   268   1      8.0859999999999985      54.580499999999994      40.429999999999993
   269   1      8.0859999999999985      56.601999999999997      38.408499999999989
   270   1      6.0644999999999945      54.580499999999994      42.451499999999996
   271   1      6.0644999999999945      56.601999999999997      44.472999999999999
   272   1      8.0859999999999985      54.580499999999994      44.472999999999999
   273   1      8.0859999999999985      56.601999999999997      42.451499999999996
   274   1      6.0644999999999945      54.580499999999994      46.494500000000002
   275   1      6.0644999999999945      56.601999999999997      48.515999999999998
   276   1      8.0859999999999985      54.580499999999994      48.515999999999998
   277   1      8.0859999999999985      56.601999999999997      46.494500000000002
   278   1      6.0644999999999945      54.580499999999994      50.537499999999994
   279   1      6.0644999999999945      56.601999999999997      52.558999999999997
   280   1      8.0859999999999985      54.580499999999994      52.558999999999997
   281   1      8.0859999999999985      56.601999999999997      50.537499999999994
   282   1      6.0644999999999945      54.580499999999994      54.580499999999994
   283   1      6.0644999999999945      56.601999999999997      56.601999999999997
   284   1      8.0859999999999985      54.580499999999994      56.601999999999997
   285   1      8.0859999999999985      56.601999999999997      54.580499999999994
   286   1      6.0644999999999945      54.580499999999994                 58.6235
   287   1      6.0644999999999945      56.601999999999997      60.645000000000003
   288   1      8.0859999999999985      54.580499999999994      60.645000000000003
   289   1      8.0859999999999985      56.601999999999997                 58.6235
   290   1      6.0644999999999945      54.580499999999994      62.666499999999992
   291   1      6.0644999999999945      56.601999999999997      64.688000000000002
   292   1      8.0859999999999985      54.580499999999994      64.688000000000002
   293   1      8.0859999999999985      56.601999999999997      62.666499999999992
   294   1      8.0859999999999985      54.580499999999994      68.731000000000009
   295   1      8.0859999999999985      56.601999999999997      66.709500000000006
   296   1      8.0859999999999985                 58.6235      32.344000000000001
   297   1      6.0644999999999945      60.645000000000003      36.386999999999993
   298   1      8.0859999999999985                 58.6235      36.386999999999993
   299   1      8.0859999999999985      60.645000000000003      34.365499999999997
   300   1      6.0644999999999945                 58.6235      38.408499999999989
   301   1      6.0644999999999945      60.645000000000003      40.429999999999993
   302   1      8.0859999999999985                 58.6235      40.429999999999993
   303   1      8.0859999999999985      60.645000000000003      38.408499999999989
   304   1      6.0644999999999945                 58.6235      42.451499999999996
   305   1      6.0644999999999945      60.645000000000003      44.472999999999999
   306   1      8.0859999999999985                 58.6235      44.472999999999999
   307   1      8.0859999999999985      60.645000000000003      42.451499999999996
   308   1      6.0644999999999945                 58.6235      46.494500000000002
   309   1      6.0644999999999945      60.645000000000003      48.515999999999998
   310   1      8.0859999999999985                 58.6235      48.515999999999998
   311   1      8.0859999999999985      60.645000000000003      46.494500000000002
   312   1      6.0644999999999945                 58.6235      50.537499999999994
   313   1      6.0644999999999945      60.645000000000003      52.558999999999997
   314   1      8.0859999999999985                 58.6235      52.558999999999997
   315   1      8.0859999999999985      60.645000000000003      50.537499999999994
   316   1      6.0644999999999945                 58.6235      54.580499999999994
   317   1      6.0644999999999945      60.645000000000003      56.601999999999997
   318   1      8.0859999999999985                 58.6235      56.601999999999997
   319   1      8.0859999999999985      60.645000000000003      54.580499999999994
   320   1      6.0644999999999945                 58.6235                 58.6235
   321   1      6.0644999999999945      60.645000000000003      60.645000000000003
   322   1      8.0859999999999985                 58.6235      60.645000000000003
   323   1      8.0859999999999985      60.645000000000003                 58.6235
   324   1      6.0644999999999945                 58.6235      62.666499999999992
   325   1      6.0644999999999945      60.645000000000003      64.688000000000002
   326   1      8.0859999999999985                 58.6235      64.688000000000002
   327   1      8.0859999999999985      60.645000000000003      62.666499999999992
   328   1      8.0859999999999985                 58.6235      68.731000000000009
   329   1      8.0859999999999985      60.645000000000003      66.709500000000006
   330   1      8.0859999999999985      62.666499999999992      32.344000000000001
   331   1      6.0644999999999945      64.688000000000002      36.386999999999993
   332   1      8.0859999999999985      62.666499999999992      36.386999999999993
   333   1      8.0859999999999985      64.688000000000002      34.365499999999997
   334   1      6.0644999999999945      62.666499999999992      38.408499999999989
   335   1      6.0644999999999945      64.688000000000002      40.429999999999993
   336   1      8.0859999999999985      62.666499999999992      40.429999999999993
   337   1      8.0859999999999985      64.688000000000002      38.408499999999989
   338   1      6.0644999999999945      62.666499999999992      42.451499999999996
   339   1      6.0644999999999945      64.688000000000002      44.472999999999999
   340   1      8.0859999999999985      62.666499999999992      44.472999999999999
   341   1      8.0859999999999985      64.688000000000002      42.451499999999996
   342   1      6.0644999999999945      62.666499999999992      46.494500000000002
   343   1      6.0644999999999945      64.688000000000002      48.515999999999998
   344   1      8.0859999999999985      62.666499999999992      48.515999999999998
   345   1      8.0859999999999985      64.688000000000002      46.494500000000002
   346   1      6.0644999999999945      62.666499999999992      50.537499999999994
   347   1      6.0644999999999945      64.688000000000002      52.558999999999997
   348   1      8.0859999999999985      62.666499999999992      52.558999999999997
   349   1      8.0859999999999985      64.688000000000002      50.537499999999994
   350   1      6.0644999999999945      62.666499999999992      54.580499999999994
   351   1      6.0644999999999945      64.688000000000002      56.601999999999997
   352   1      8.0859999999999985      62.666499999999992      56.601999999999997
   353   1      8.0859999999999985      64.688000000000002      54.580499999999994
   354   1      6.0644999999999945      62.666499999999992                 58.6235
   355   1      6.0644999999999945      64.688000000000002      60.645000000000003
   356   1      8.0859999999999985      62.666499999999992      60.645000000000003
   357   1      8.0859999999999985      64.688000000000002                 58.6235
   358   1      6.0644999999999945      62.666499999999992      62.666499999999992