model_files/CuNi/CuNi_30000/CuNi_531/CuNi_531_fcc_29859_temp.data (written by ASE) 

29859 	 atoms 
2  atom types
0.0                      96  xlo xhi
0.0                      96  ylo yhi
0.0                      96  zlo zhi


Atoms 

     1   1                       0      46.358000000000004      48.141000000000005
     2   1                       0      48.141000000000005      46.358000000000004
     3   1                       0      48.141000000000005      49.924000000000007
     4   1                       0      49.924000000000007      48.141000000000005
     5   1      3.5660000000000025                  41.009      46.358000000000004
     6   1      3.5660000000000025      42.792000000000002      44.575000000000003
     7   1      3.5660000000000025                  41.009      49.924000000000007
     8   1      3.5660000000000025      42.792000000000002      48.141000000000005
     9   1      3.5660000000000025      42.792000000000002      51.707000000000001
    10   1      3.5660000000000025      44.575000000000003      42.792000000000002
    11   1      3.5660000000000025      46.358000000000004                  41.009
    12   1      1.7830000000000013      44.575000000000003      44.575000000000003
    13   1      1.7830000000000013      46.358000000000004      46.358000000000004
    14   1      3.5660000000000025      44.575000000000003      46.358000000000004
    15   1      3.5660000000000025      46.358000000000004      44.575000000000003
    16   1      1.7830000000000013      44.575000000000003      48.141000000000005
    17   1      1.7830000000000013      46.358000000000004      49.924000000000007
    18   1      3.5660000000000025      44.575000000000003      49.924000000000007
    19   1      3.5660000000000025      46.358000000000004      48.141000000000005
    20   1      1.7830000000000013      44.575000000000003      51.707000000000001
    21   1      3.5660000000000025      44.575000000000003      53.489999999999995
    22   1      3.5660000000000025      46.358000000000004      51.707000000000001
    23   1      3.5660000000000025      46.358000000000004      55.272999999999996
    24   1      3.5660000000000025      48.141000000000005      42.792000000000002
    25   1      3.5660000000000025      49.924000000000007                  41.009
    26   1      1.7830000000000013      48.141000000000005      44.575000000000003
    27   1      1.7830000000000013      49.924000000000007      46.358000000000004
    28   1      3.5660000000000025      48.141000000000005      46.358000000000004
    29   1      3.5660000000000025      49.924000000000007      44.575000000000003
    30   1      1.7830000000000013      48.141000000000005      48.141000000000005
    31   1      1.7830000000000013      49.924000000000007      49.924000000000007
    32   1      3.5660000000000025      48.141000000000005      49.924000000000007
    33   1      3.5660000000000025      49.924000000000007      48.141000000000005
    34   1      1.7830000000000013      48.141000000000005      51.707000000000001
    35   1      3.5660000000000025      48.141000000000005      53.489999999999995
    36   1      3.5660000000000025      49.924000000000007      51.707000000000001
    37   1      3.5660000000000025      49.924000000000007      55.272999999999996
    38   1      3.5660000000000025      51.707000000000001      42.792000000000002
    39   1      1.7830000000000013      51.707000000000001      44.575000000000003
    40   1      3.5660000000000025      51.707000000000001      46.358000000000004
    41   1      3.5660000000000025      53.489999999999995      44.575000000000003
    42   1      1.7830000000000013      51.707000000000001      48.141000000000005
    43   1      3.5660000000000025      51.707000000000001      49.924000000000007
    44   1      3.5660000000000025      53.489999999999995      48.141000000000005
    45   1      1.7830000000000013      51.707000000000001      51.707000000000001
    46   1      3.5660000000000025      51.707000000000001      53.489999999999995
    47   1      3.5660000000000025      53.489999999999995      51.707000000000001
    48   1      3.5660000000000025      55.272999999999996      46.358000000000004
    49   1      3.5660000000000025      55.272999999999996      49.924000000000007
    50   1      7.1319999999999979      35.659999999999997      44.575000000000003
    51   1      7.1319999999999979      35.659999999999997      48.141000000000005
    52   1      7.1319999999999979      35.659999999999997      51.707000000000001
    53   1      7.1319999999999979      37.443000000000005      39.226000000000006
    54   1      7.1319999999999979      39.226000000000006      37.443000000000005
    55   1      5.3489999999999966      39.226000000000006      42.792000000000002
    56   1      7.1319999999999979      37.443000000000005      42.792000000000002
    57   1      7.1319999999999979      39.226000000000006                  41.009
    58   1      5.3489999999999966      39.226000000000006      46.358000000000004
    59   1      7.1319999999999979      37.443000000000005      46.358000000000004
    60   1      7.1319999999999979      39.226000000000006      44.575000000000003
    61   1      5.3489999999999966      37.443000000000005      48.141000000000005
    62   1      5.3489999999999966      39.226000000000006      49.924000000000007
    63   1      7.1319999999999979      37.443000000000005      49.924000000000007
    64   1      7.1319999999999979      39.226000000000006      48.141000000000005
    65   1      5.3489999999999966      39.226000000000006      53.489999999999995
    66   1      7.1319999999999979      37.443000000000005      53.489999999999995
    67   1      7.1319999999999979      39.226000000000006      51.707000000000001
    68   1      7.1319999999999979      37.443000000000005      57.056000000000004
    69   1      7.1319999999999979      39.226000000000006      55.272999999999996
    70   1      7.1319999999999979      39.226000000000006      58.838999999999999
    71   1      5.3489999999999966      42.792000000000002      39.226000000000006
    72   1      7.1319999999999979                  41.009      39.226000000000006
    73   1      7.1319999999999979      42.792000000000002      37.443000000000005
    74   1      5.3489999999999966                  41.009                  41.009
    75   1      5.3489999999999966      42.792000000000002      42.792000000000002
    76   1      7.1319999999999979                  41.009      42.792000000000002
    77   1      7.1319999999999979      42.792000000000002                  41.009
    78   1      5.3489999999999966                  41.009      44.575000000000003
    79   1      5.3489999999999966      42.792000000000002      46.358000000000004
    80   1      7.1319999999999979                  41.009      46.358000000000004
    81   1      7.1319999999999979      42.792000000000002      44.575000000000003
    82   1      5.3489999999999966                  41.009      48.141000000000005
    83   1      5.3489999999999966      42.792000000000002      49.924000000000007
    84   1      7.1319999999999979                  41.009      49.924000000000007
    85   1      7.1319999999999979      42.792000000000002      48.141000000000005
    86   1      5.3489999999999966                  41.009      51.707000000000001
    87   1      5.3489999999999966      42.792000000000002      53.489999999999995
    88   1      7.1319999999999979                  41.009      53.489999999999995
    89   1      7.1319999999999979      42.792000000000002      51.707000000000001
    90   1      5.3489999999999966                  41.009      55.272999999999996
    91   1      5.3489999999999966      42.792000000000002      57.056000000000004
    92   1      7.1319999999999979                  41.009      57.056000000000004
    93   1      7.1319999999999979      42.792000000000002      55.272999999999996
    94   1      7.1319999999999979      42.792000000000002      58.838999999999999
    95   1      7.1319999999999979      44.575000000000003      35.659999999999997
    96   1      5.3489999999999966      46.358000000000004      39.226000000000006
    97   1      7.1319999999999979      44.575000000000003      39.226000000000006
    98   1      7.1319999999999979      46.358000000000004      37.443000000000005
    99   1      5.3489999999999966      44.575000000000003                  41.009
   100   1      5.3489999999999966      46.358000000000004      42.792000000000002
   101   1      7.1319999999999979      44.575000000000003      42.792000000000002
   102   1      7.1319999999999979      46.358000000000004                  41.009
   103   1      5.3489999999999966      44.575000000000003      44.575000000000003
   104   1      5.3489999999999966      46.358000000000004      46.358000000000004
   105   1      7.1319999999999979      44.575000000000003      46.358000000000004
   106   1      7.1319999999999979      46.358000000000004      44.575000000000003
   107   1      5.3489999999999966      44.575000000000003      48.141000000000005
   108   1      5.3489999999999966      46.358000000000004      49.924000000000007
   109   1      7.1319999999999979      44.575000000000003      49.924000000000007
   110   1      7.1319999999999979      46.358000000000004      48.141000000000005
   111   1      5.3489999999999966      44.575000000000003      51.707000000000001
   112   1      5.3489999999999966      46.358000000000004      53.489999999999995
   113   1      7.1319999999999979      44.575000000000003      53.489999999999995
   114   1      7.1319999999999979      46.358000000000004      51.707000000000001
   115   1      5.3489999999999966      44.575000000000003      55.272999999999996
   116   1      5.3489999999999966      46.358000000000004      57.056000000000004
   117   1      7.1319999999999979      44.575000000000003      57.056000000000004
   118   1      7.1319999999999979      46.358000000000004      55.272999999999996
   119   1      7.1319999999999979      44.575000000000003                  60.622
   120   1      7.1319999999999979      46.358000000000004      58.838999999999999
   121   1      7.1319999999999979      48.141000000000005      35.659999999999997
   122   1      5.3489999999999966      48.141000000000005      37.443000000000005
   123   1      5.3489999999999966      49.924000000000007      39.226000000000006
   124   1      7.1319999999999979      48.141000000000005      39.226000000000006
   125   1      7.1319999999999979      49.924000000000007      37.443000000000005
   126   1      5.3489999999999966      48.141000000000005                  41.009
   127   1      5.3489999999999966      49.924000000000007      42.792000000000002
   128   1      7.1319999999999979      48.141000000000005      42.792000000000002
   129   1      7.1319999999999979      49.924000000000007                  41.009
   130   1      5.3489999999999966      48.141000000000005      44.575000000000003
   131   1      5.3489999999999966      49.924000000000007      46.358000000000004
   132   1      7.1319999999999979      48.141000000000005      46.358000000000004
   133   1      7.1319999999999979      49.924000000000007      44.575000000000003
   134   1      5.3489999999999966      48.141000000000005      48.141000000000005
   135   1      5.3489999999999966      49.924000000000007      49.924000000000007
   136   1      7.1319999999999979      48.141000000000005      49.924000000000007
   137   1      7.1319999999999979      49.924000000000007      48.141000000000005
   138   1      5.3489999999999966      48.141000000000005      51.707000000000001
   139   1      5.3489999999999966      49.924000000000007      53.489999999999995
   140   1      7.1319999999999979      48.141000000000005      53.489999999999995
   141   1      7.1319999999999979      49.924000000000007      51.707000000000001
   142   1      5.3489999999999966      48.141000000000005      55.272999999999996
   143   1      5.3489999999999966      49.924000000000007      57.056000000000004
   144   1      7.1319999999999979      48.141000000000005      57.056000000000004
   145   1      7.1319999999999979      49.924000000000007      55.272999999999996
   146   1      5.3489999999999966      48.141000000000005      58.838999999999999
   147   1      7.1319999999999979      48.141000000000005                  60.622
   148   1      7.1319999999999979      49.924000000000007      58.838999999999999
   149   1      7.1319999999999979      51.707000000000001      35.659999999999997
   150   1      5.3489999999999966      53.489999999999995      39.226000000000006
   151   1      7.1319999999999979      51.707000000000001      39.226000000000006
   152   1      7.1319999999999979      53.489999999999995      37.443000000000005
   153   1      5.3489999999999966      51.707000000000001                  41.009
   154   1      5.3489999999999966      53.489999999999995      42.792000000000002
   155   1      7.1319999999999979      51.707000000000001      42.792000000000002
   156   1      7.1319999999999979      53.489999999999995                  41.009
   157   1      5.3489999999999966      51.707000000000001      44.575000000000003
   158   1      5.3489999999999966      53.489999999999995      46.358000000000004
   159   1      7.1319999999999979      51.707000000000001      46.358000000000004
   160   1      7.1319999999999979      53.489999999999995      44.575000000000003
   161   1      5.3489999999999966      51.707000000000001      48.141000000000005
   162   1      5.3489999999999966      53.489999999999995      49.924000000000007
   163   1      7.1319999999999979      51.707000000000001      49.924000000000007
   164   1      7.1319999999999979      53.489999999999995      48.141000000000005
   165   1      5.3489999999999966      51.707000000000001      51.707000000000001
   166   1      5.3489999999999966      53.489999999999995      53.489999999999995
   167   1      7.1319999999999979      51.707000000000001      53.489999999999995
   168   1      7.1319999999999979      53.489999999999995      51.707000000000001
   169   1      5.3489999999999966      51.707000000000001      55.272999999999996
   170   1      5.3489999999999966      53.489999999999995      57.056000000000004
   171   1      7.1319999999999979      51.707000000000001      57.056000000000004
   172   1      7.1319999999999979      53.489999999999995      55.272999999999996
   173   1      7.1319999999999979      51.707000000000001                  60.622
   174   1      7.1319999999999979      53.489999999999995      58.838999999999999
   175   1      7.1319999999999979      55.272999999999996      39.226000000000006
   176   1      7.1319999999999979      57.056000000000004      37.443000000000005
   177   1      5.3489999999999966      55.272999999999996                  41.009
   178   1      5.3489999999999966      57.056000000000004      42.792000000000002
   179   1      7.1319999999999979      55.272999999999996      42.792000000000002
   180   1      7.1319999999999979      57.056000000000004                  41.009
   181   1      5.3489999999999966      55.272999999999996      44.575000000000003
   182   1      5.3489999999999966      57.056000000000004      46.358000000000004
   183   1      7.1319999999999979      55.272999999999996      46.358000000000004
   184   1      7.1319999999999979      57.056000000000004      44.575000000000003
   185   1      5.3489999999999966      55.272999999999996      48.141000000000005
   186   1      5.3489999999999966      57.056000000000004      49.924000000000007
   187   1      7.1319999999999979      55.272999999999996      49.924000000000007
   188   1      7.1319999999999979      57.056000000000004      48.141000000000005
   189   1      5.3489999999999966      55.272999999999996      51.707000000000001
   190   1      5.3489999999999966      57.056000000000004      53.489999999999995
   191   1      7.1319999999999979      55.272999999999996      53.489999999999995
   192   1      7.1319999999999979      57.056000000000004      51.707000000000001
   193   1      5.3489999999999966      55.272999999999996      55.272999999999996
   194   1      7.1319999999999979      55.272999999999996      57.056000000000004
   195   1      7.1319999999999979      57.056000000000004      55.272999999999996
   196   1      7.1319999999999979      57.056000000000004      58.838999999999999
   197   1      7.1319999999999979      58.838999999999999      39.226000000000006
   198   1      7.1319999999999979      58.838999999999999      42.792000000000002
   199   1      7.1319999999999979      58.838999999999999      46.358000000000004
   200   1      7.1319999999999979                  60.622      44.575000000000003
   201   1      5.3489999999999966      58.838999999999999      48.141000000000005
   202   1      7.1319999999999979      58.838999999999999      49.924000000000007
   203   1      7.1319999999999979                  60.622      48.141000000000005
   204   1      7.1319999999999979      58.838999999999999      53.489999999999995
   205   1      7.1319999999999979                  60.622      51.707000000000001
   206   1      7.1319999999999979      58.838999999999999      57.056000000000004
   207   1                  10.698      28.528000000000002      48.141000000000005
   208   1                  10.698      32.094000000000001      37.443000000000005
   209   1                  10.698      30.310999999999996      42.792000000000002
   210   1                  10.698      32.094000000000001                  41.009
   211   1      8.9149999999999991      32.094000000000001      46.358000000000004
   212   1                  10.698      30.310999999999996      46.358000000000004
   213   1                  10.698      32.094000000000001      44.575000000000003
   214   1      8.9149999999999991      32.094000000000001      49.924000000000007
   215   1                  10.698      30.310999999999996      49.924000000000007
   216   1                  10.698      32.094000000000001      48.141000000000005
   217   1                  10.698      30.310999999999996      53.489999999999995
   218   1                  10.698      32.094000000000001      51.707000000000001
   219   1                  10.698      32.094000000000001      55.272999999999996
   220   1                  10.698      32.094000000000001      58.838999999999999
   221   1      8.9149999999999991      35.659999999999997      35.659999999999997
   222   1                  10.698      33.877000000000002      35.659999999999997
   223   1                  10.698      35.659999999999997      33.877000000000002
   224   1      8.9149999999999991      35.659999999999997      39.226000000000006
   225   1                  10.698      33.877000000000002      39.226000000000006
   226   1                  10.698      35.659999999999997      37.443000000000005
   227   1      8.9149999999999991      33.877000000000002                  41.009
   228   1      8.9149999999999991      35.659999999999997      42.792000000000002
   229   1                  10.698      33.877000000000002      42.792000000000002
   230   1                  10.698      35.659999999999997                  41.009
   231   1      8.9149999999999991      33.877000000000002      44.575000000000003
   232   1      8.9149999999999991      35.659999999999997      46.358000000000004
   233   1                  10.698      33.877000000000002      46.358000000000004
   234   1                  10.698      35.659999999999997      44.575000000000003
   235   1      8.9149999999999991      33.877000000000002      48.141000000000005
   236   1      8.9149999999999991      35.659999999999997      49.924000000000007
   237   1                  10.698      33.877000000000002      49.924000000000007
   238   1                  10.698      35.659999999999997      48.141000000000005
   239   1      8.9149999999999991      33.877000000000002      51.707000000000001
   240   1      8.9149999999999991      35.659999999999997      53.489999999999995
   241   1                  10.698      33.877000000000002      53.489999999999995
   242   1                  10.698      35.659999999999997      51.707000000000001
   243   1      8.9149999999999991      33.877000000000002      55.272999999999996
   244   1      8.9149999999999991      35.659999999999997      57.056000000000004
   245   1                  10.698      33.877000000000002      57.056000000000004
   246   1                  10.698      35.659999999999997      55.272999999999996
   247   1      8.9149999999999991      35.659999999999997                  60.622
   248   1                  10.698      33.877000000000002                  60.622
   249   1                  10.698      35.659999999999997      58.838999999999999
   250   1                  10.698      35.659999999999997      62.405000000000001
   251   1                  10.698      37.443000000000005      32.094000000000001
   252   1      8.9149999999999991      39.226000000000006      35.659999999999997
   253   1                  10.698      37.443000000000005      35.659999999999997
   254   1                  10.698      39.226000000000006      33.877000000000002
   255   1      8.9149999999999991      37.443000000000005      37.443000000000005
   256   1      8.9149999999999991      39.226000000000006      39.226000000000006
   257   1                  10.698      37.443000000000005      39.226000000000006
   258   1                  10.698      39.226000000000006      37.443000000000005
   259   1      8.9149999999999991      37.443000000000005                  41.009
   260   1      8.9149999999999991      39.226000000000006      42.792000000000002
   261   1                  10.698      37.443000000000005      42.792000000000002
   262   1                  10.698      39.226000000000006                  41.009
   263   1      8.9149999999999991      37.443000000000005      44.575000000000003
   264   1      8.9149999999999991      39.226000000000006      46.358000000000004
   265   1                  10.698      37.443000000000005      46.358000000000004
   266   1                  10.698      39.226000000000006      44.575000000000003
   267   1      8.9149999999999991      37.443000000000005      48.141000000000005
   268   1      8.9149999999999991      39.226000000000006      49.924000000000007
   269   1                  10.698      37.443000000000005      49.924000000000007
   270   1                  10.698      39.226000000000006      48.141000000000005
   271   1      8.9149999999999991      37.443000000000005      51.707000000000001
   272   1      8.9149999999999991      39.226000000000006      53.489999999999995
   273   1                  10.698      37.443000000000005      53.489999999999995
   274   1                  10.698      39.226000000000006      51.707000000000001
   275   1      8.9149999999999991      37.443000000000005      55.272999999999996
   276   1      8.9149999999999991      39.226000000000006      57.056000000000004
   277   1                  10.698      37.443000000000005      57.056000000000004
   278   1                  10.698      39.226000000000006      55.272999999999996
   279   1      8.9149999999999991      37.443000000000005      58.838999999999999
   280   1      8.9149999999999991      39.226000000000006                  60.622
   281   1                  10.698      37.443000000000005                  60.622
   282   1                  10.698      39.226000000000006      58.838999999999999
   283   1                  10.698      37.443000000000005      64.188000000000002
   284   1                  10.698      39.226000000000006      62.405000000000001
   285   1                  10.698                  41.009      32.094000000000001
   286   1                  10.698      42.792000000000002      30.310999999999996
   287   1      8.9149999999999991                  41.009      33.877000000000002
   288   1      8.9149999999999991      42.792000000000002      35.659999999999997
   289   1                  10.698                  41.009      35.659999999999997
   290   1                  10.698      42.792000000000002      33.877000000000002
   291   1      8.9149999999999991                  41.009      37.443000000000005
   292   1      8.9149999999999991      42.792000000000002      39.226000000000006
   293   1                  10.698                  41.009      39.226000000000006
   294   1                  10.698      42.792000000000002      37.443000000000005
   295   1      8.9149999999999991                  41.009                  41.009
   296   1      8.9149999999999991      42.792000000000002      42.792000000000002
   297   1                  10.698                  41.009      42.792000000000002
   298   1                  10.698      42.792000000000002                  41.009
   299   1      8.9149999999999991                  41.009      44.575000000000003
   300   1      8.9149999999999991      42.792000000000002      46.358000000000004
   301   1                  10.698                  41.009      46.358000000000004
   302   1                  10.698      42.792000000000002      44.575000000000003
   303   1      8.9149999999999991                  41.009      48.141000000000005
   304   1      8.9149999999999991      42.792000000000002      49.924000000000007
   305   1                  10.698                  41.009      49.924000000000007
   306   1                  10.698      42.792000000000002      48.141000000000005
   307   1      8.9149999999999991                  41.009      51.707000000000001
   308   1      8.9149999999999991      42.792000000000002      53.489999999999995
   309   1                  10.698                  41.009      53.489999999999995
   310   1                  10.698      42.792000000000002      51.707000000000001
   311   1      8.9149999999999991                  41.009      55.272999999999996
   312   1      8.9149999999999991      42.792000000000002      57.056000000000004
   313   1                  10.698                  41.009      57.056000000000004
   314   1                  10.698      42.792000000000002      55.272999999999996
   315   1      8.9149999999999991                  41.009      58.838999999999999
   316   1      8.9149999999999991      42.792000000000002                  60.622
   317   1                  10.698                  41.009                  60.622
   318   1                  10.698      42.792000000000002      58.838999999999999
   319   1      8.9149999999999991                  41.009      62.405000000000001
   320   1                  10.698                  41.009      64.188000000000002
   321   1                  10.698      42.792000000000002      62.405000000000001
   322   1                  10.698      42.792000000000002      65.971000000000004
   323   1      8.9149999999999991      46.358000000000004      32.094000000000001
   324   1                  10.698      44.575000000000003      32.094000000000001
   325   1                  10.698      46.358000000000004      30.310999999999996
   326   1      8.9149999999999991      44.575000000000003      33.877000000000002
   327   1      8.9149999999999991      46.358000000000004      35.659999999999997
   328   1                  10.698      44.575000000000003      35.659999999999997
   329   1                  10.698      46.358000000000004      33.877000000000002
   330   1      8.9149999999999991      44.575000000000003      37.443000000000005
   331   1      8.9149999999999991      46.358000000000004      39.226000000000006
   332   1                  10.698      44.575000000000003      39.226000000000006
   333   1                  10.698      46.358000000000004      37.443000000000005
   334   1      8.9149999999999991      44.575000000000003                  41.009
   335   1      8.9149999999999991      46.358000000000004      42.792000000000002
   336   1                  10.698      44.575000000000003      42.792000000000002
   337   1                  10.698      46.358000000000004                  41.009
   338   1      8.9149999999999991      44.575000000000003      44.575000000000003
   339   1      8.9149999999999991      46.358000000000004      46.358000000000004
   340   1                  10.698      44.575000000000003      46.358000000000004
   341   1                  10.698      46.358000000000004      44.575000000000003
   342   1      8.9149999999999991      44.575000000000003      48.141000000000005
   343   1      8.9149999999999991      46.358000000000004      49.924000000000007
   344   1                  10.698      44.575000000000003      49.924000000000007
   345   1                  10.698      46.358000000000004      48.141000000000005
   346   1      8.9149999999999991      44.575000000000003      51.707000000000001
   347   1      8.9149999999999991      46.358000000000004      53.489999999999995
   348   1                  10.698      44.575000000000003      53.489999999999995
   349   1                  10.698      46.358000000000004      51.707000000000001
   350   1      8.9149999999999991      44.575000000000003      55.272999999999996
   351   1      8.9149999999999991      46.358000000000004      57.056000000000004
   352   1                  10.698      44.575000000000003      57.056000000000004
   353   1                  10.698      46.358000000000004      55.272999999999996
   354   1      8.9149999999999991      44.575000000000003      58.838999999999999
   355   1      8.9149999999999991      46.358000000000004                  60.622
   356   1                  10.698      44.575000000000003                  60.622
   357   1                  10.698      46.358000000000004      58.838999999999999
   358   1      8.9149999999999991      44.575000000000003      62.405000000000001