model_files/Fe/Fe_30000/Fe_542/data.Fe_542_fcc_30227 (written by ASE) 

30227 	 atoms 
1  atom types
0.0                     111  xlo xhi
0.0                     111  ylo yhi
0.0                     111  zlo zhi


Atoms 

     1   1      1.4350000000000094      53.095000000000006      53.095000000000006
     2   1      1.4350000000000094      53.095000000000006      55.965000000000003
     3   1      1.4350000000000094      55.965000000000003      53.095000000000006
     4   1  7.1054273576010019e-15      54.530000000000001      54.530000000000001
     5   1      1.4350000000000094      55.965000000000003      55.965000000000003
     6   1      4.3050000000000068      50.225000000000009      50.225000000000009
     7   1      4.3050000000000068      50.225000000000009      53.095000000000006
     8   1      4.3050000000000068      50.225000000000009      55.965000000000003
     9   1      4.3050000000000068      50.225000000000009      58.835000000000008
    10   1      4.3050000000000068      53.095000000000006      50.225000000000009
    11   1      2.8700000000000117      51.660000000000004      51.660000000000004
    12   1      4.3050000000000068      53.095000000000006      53.095000000000006
    13   1      2.8700000000000117      51.660000000000004      54.530000000000001
    14   1      4.3050000000000068      53.095000000000006      55.965000000000003
    15   1      2.8700000000000117      51.660000000000004      57.400000000000006
    16   1      4.3050000000000068      53.095000000000006      58.835000000000008
    17   1      4.3050000000000068      55.965000000000003      50.225000000000009
    18   1      2.8700000000000117      54.530000000000001      51.660000000000004
    19   1      4.3050000000000068      55.965000000000003      53.095000000000006
    20   1      2.8700000000000117      54.530000000000001      54.530000000000001
    21   1      4.3050000000000068      55.965000000000003      55.965000000000003
    22   1      2.8700000000000117      54.530000000000001      57.400000000000006
    23   1      4.3050000000000068      55.965000000000003      58.835000000000008
    24   1      4.3050000000000068      58.835000000000008      50.225000000000009
    25   1      2.8700000000000117      57.400000000000006      51.660000000000004
    26   1      4.3050000000000068      58.835000000000008      53.095000000000006
    27   1      2.8700000000000117      57.400000000000006      54.530000000000001
    28   1      4.3050000000000068      58.835000000000008      55.965000000000003
    29   1      2.8700000000000117      57.400000000000006      57.400000000000006
    30   1      4.3050000000000068      58.835000000000008      58.835000000000008
    31   1      7.1750000000000114      44.485000000000007      53.095000000000006
    32   1      7.1750000000000114      44.485000000000007      55.965000000000003
    33   1      7.1750000000000114      47.355000000000004      47.355000000000004
    34   1      7.1750000000000114      47.355000000000004      50.225000000000009
    35   1      7.1750000000000114      47.355000000000004      53.095000000000006
    36   1      5.7400000000000091      45.920000000000002      54.530000000000001
    37   1      7.1750000000000114      47.355000000000004      55.965000000000003
    38   1      7.1750000000000114      47.355000000000004      58.835000000000008
    39   1      7.1750000000000114      47.355000000000004      61.704999999999991
    40   1      7.1750000000000114      50.225000000000009      47.355000000000004
    41   1      5.7400000000000091      48.790000000000006      48.790000000000006
    42   1      7.1750000000000114      50.225000000000009      50.225000000000009
    43   1      5.7400000000000091      48.790000000000006      51.660000000000004
    44   1      7.1750000000000114      50.225000000000009      53.095000000000006
    45   1      5.7400000000000091      48.790000000000006      54.530000000000001
    46   1      7.1750000000000114      50.225000000000009      55.965000000000003
    47   1      5.7400000000000091      48.790000000000006      57.400000000000006
    48   1      7.1750000000000114      50.225000000000009      58.835000000000008
    49   1      5.7400000000000091      48.790000000000006      60.270000000000003
    50   1      7.1750000000000114      50.225000000000009      61.704999999999991
    51   1      7.1750000000000114      53.095000000000006      44.485000000000007
    52   1      7.1750000000000114      53.095000000000006      47.355000000000004
    53   1      5.7400000000000091      51.660000000000004      48.790000000000006
    54   1      7.1750000000000114      53.095000000000006      50.225000000000009
    55   1      5.7400000000000091      51.660000000000004      51.660000000000004
    56   1      7.1750000000000114      53.095000000000006      53.095000000000006
    57   1      5.7400000000000091      51.660000000000004      54.530000000000001
    58   1      7.1750000000000114      53.095000000000006      55.965000000000003
    59   1      5.7400000000000091      51.660000000000004      57.400000000000006
    60   1      7.1750000000000114      53.095000000000006      58.835000000000008
    61   1      5.7400000000000091      51.660000000000004      60.270000000000003
    62   1      7.1750000000000114      53.095000000000006      61.704999999999991
    63   1      7.1750000000000114      53.095000000000006      64.575000000000003
    64   1      7.1750000000000114      55.965000000000003      44.485000000000007
    65   1      5.7400000000000091      54.530000000000001      45.920000000000002
    66   1      7.1750000000000114      55.965000000000003      47.355000000000004
    67   1      5.7400000000000091      54.530000000000001      48.790000000000006
    68   1      7.1750000000000114      55.965000000000003      50.225000000000009
    69   1      5.7400000000000091      54.530000000000001      51.660000000000004
    70   1      7.1750000000000114      55.965000000000003      53.095000000000006
    71   1      5.7400000000000091      54.530000000000001      54.530000000000001
    72   1      7.1750000000000114      55.965000000000003      55.965000000000003
    73   1      5.7400000000000091      54.530000000000001      57.400000000000006
    74   1      7.1750000000000114      55.965000000000003      58.835000000000008
    75   1      5.7400000000000091      54.530000000000001      60.270000000000003
    76   1      7.1750000000000114      55.965000000000003      61.704999999999991
    77   1      5.7400000000000091      54.530000000000001      63.139999999999993
    78   1      7.1750000000000114      55.965000000000003      64.575000000000003
    79   1      7.1750000000000114      58.835000000000008      47.355000000000004
    80   1      5.7400000000000091      57.400000000000006      48.790000000000006
    81   1      7.1750000000000114      58.835000000000008      50.225000000000009
    82   1      5.7400000000000091      57.400000000000006      51.660000000000004
    83   1      7.1750000000000114      58.835000000000008      53.095000000000006
    84   1      5.7400000000000091      57.400000000000006      54.530000000000001
    85   1      7.1750000000000114      58.835000000000008      55.965000000000003
    86   1      5.7400000000000091      57.400000000000006      57.400000000000006
    87   1      7.1750000000000114      58.835000000000008      58.835000000000008
    88   1      5.7400000000000091      57.400000000000006      60.270000000000003
    89   1      7.1750000000000114      58.835000000000008      61.704999999999991
    90   1      7.1750000000000114      61.704999999999991      47.355000000000004
    91   1      5.7400000000000091      60.270000000000003      48.790000000000006
    92   1      7.1750000000000114      61.704999999999991      50.225000000000009
    93   1      5.7400000000000091      60.270000000000003      51.660000000000004
    94   1      7.1750000000000114      61.704999999999991      53.095000000000006
    95   1      5.7400000000000091      60.270000000000003      54.530000000000001
    96   1      7.1750000000000114      61.704999999999991      55.965000000000003
    97   1      5.7400000000000091      60.270000000000003      57.400000000000006
    98   1      7.1750000000000114      61.704999999999991      58.835000000000008
    99   1      5.7400000000000091      60.270000000000003      60.270000000000003
   100   1      7.1750000000000114      61.704999999999991      61.704999999999991
   101   1      7.1750000000000114      64.575000000000003      53.095000000000006
   102   1      5.7400000000000091      63.139999999999993      54.530000000000001
   103   1      7.1750000000000114      64.575000000000003      55.965000000000003
   104   1      10.045000000000009      41.615000000000009      53.095000000000006
   105   1      10.045000000000009      41.615000000000009      55.965000000000003
   106   1      10.045000000000009      44.485000000000007      47.355000000000004
   107   1      10.045000000000009      44.485000000000007      50.225000000000009
   108   1      10.045000000000009      44.485000000000007      53.095000000000006
   109   1      8.6100000000000065      43.050000000000004      54.530000000000001
   110   1      10.045000000000009      44.485000000000007      55.965000000000003
   111   1      10.045000000000009      44.485000000000007      58.835000000000008
   112   1      10.045000000000009      44.485000000000007      61.704999999999991
   113   1      10.045000000000009      47.355000000000004      44.485000000000007
   114   1      10.045000000000009      47.355000000000004      47.355000000000004
   115   1      8.6100000000000065      45.920000000000002      48.790000000000006
   116   1      10.045000000000009      47.355000000000004      50.225000000000009
   117   1      8.6100000000000065      45.920000000000002      51.660000000000004
   118   1      10.045000000000009      47.355000000000004      53.095000000000006
   119   1      8.6100000000000065      45.920000000000002      54.530000000000001
   120   1      10.045000000000009      47.355000000000004      55.965000000000003
   121   1      8.6100000000000065      45.920000000000002      57.400000000000006
   122   1      10.045000000000009      47.355000000000004      58.835000000000008
   123   1      8.6100000000000065      45.920000000000002      60.270000000000003
   124   1      10.045000000000009      47.355000000000004      61.704999999999991
   125   1      10.045000000000009      47.355000000000004      64.575000000000003
   126   1      10.045000000000009      50.225000000000009      44.485000000000007
   127   1      8.6100000000000065      48.790000000000006      45.920000000000002
   128   1      10.045000000000009      50.225000000000009      47.355000000000004
   129   1      8.6100000000000065      48.790000000000006      48.790000000000006
   130   1      10.045000000000009      50.225000000000009      50.225000000000009
   131   1      8.6100000000000065      48.790000000000006      51.660000000000004
   132   1      10.045000000000009      50.225000000000009      53.095000000000006
   133   1      8.6100000000000065      48.790000000000006      54.530000000000001
   134   1      10.045000000000009      50.225000000000009      55.965000000000003
   135   1      8.6100000000000065      48.790000000000006      57.400000000000006
   136   1      10.045000000000009      50.225000000000009      58.835000000000008
   137   1      8.6100000000000065      48.790000000000006      60.270000000000003
   138   1      10.045000000000009      50.225000000000009      61.704999999999991
   139   1      8.6100000000000065      48.790000000000006      63.139999999999993
   140   1      10.045000000000009      50.225000000000009      64.575000000000003
   141   1      10.045000000000009      53.095000000000006      41.615000000000009
   142   1      10.045000000000009      53.095000000000006      44.485000000000007
   143   1      8.6100000000000065      51.660000000000004      45.920000000000002
   144   1      10.045000000000009      53.095000000000006      47.355000000000004
   145   1      8.6100000000000065      51.660000000000004      48.790000000000006
   146   1      10.045000000000009      53.095000000000006      50.225000000000009
   147   1      8.6100000000000065      51.660000000000004      51.660000000000004
   148   1      10.045000000000009      53.095000000000006      53.095000000000006
   149   1      8.6100000000000065      51.660000000000004      54.530000000000001
   150   1      10.045000000000009      53.095000000000006      55.965000000000003
   151   1      8.6100000000000065      51.660000000000004      57.400000000000006
   152   1      10.045000000000009      53.095000000000006      58.835000000000008
   153   1      8.6100000000000065      51.660000000000004      60.270000000000003
   154   1      10.045000000000009      53.095000000000006      61.704999999999991
   155   1      8.6100000000000065      51.660000000000004      63.139999999999993
   156   1      10.045000000000009      53.095000000000006      64.575000000000003
   157   1      10.045000000000009      53.095000000000006      67.445000000000007
   158   1      10.045000000000009      55.965000000000003      41.615000000000009
   159   1      8.6100000000000065      54.530000000000001      43.050000000000004
   160   1      10.045000000000009      55.965000000000003      44.485000000000007
   161   1      8.6100000000000065      54.530000000000001      45.920000000000002
   162   1      10.045000000000009      55.965000000000003      47.355000000000004
   163   1      8.6100000000000065      54.530000000000001      48.790000000000006
   164   1      10.045000000000009      55.965000000000003      50.225000000000009
   165   1      8.6100000000000065      54.530000000000001      51.660000000000004
   166   1      10.045000000000009      55.965000000000003      53.095000000000006
   167   1      8.6100000000000065      54.530000000000001      54.530000000000001
   168   1      10.045000000000009      55.965000000000003      55.965000000000003
   169   1      8.6100000000000065      54.530000000000001      57.400000000000006
   170   1      10.045000000000009      55.965000000000003      58.835000000000008
   171   1      8.6100000000000065      54.530000000000001      60.270000000000003
   172   1      10.045000000000009      55.965000000000003      61.704999999999991
   173   1      8.6100000000000065      54.530000000000001      63.139999999999993
   174   1      10.045000000000009      55.965000000000003      64.575000000000003
   175   1      8.6100000000000065      54.530000000000001      66.010000000000005
   176   1      10.045000000000009      55.965000000000003      67.445000000000007
   177   1      10.045000000000009      58.835000000000008      44.485000000000007
   178   1      8.6100000000000065      57.400000000000006      45.920000000000002
   179   1      10.045000000000009      58.835000000000008      47.355000000000004
   180   1      8.6100000000000065      57.400000000000006      48.790000000000006
   181   1      10.045000000000009      58.835000000000008      50.225000000000009
   182   1      8.6100000000000065      57.400000000000006      51.660000000000004
   183   1      10.045000000000009      58.835000000000008      53.095000000000006
   184   1      8.6100000000000065      57.400000000000006      54.530000000000001
   185   1      10.045000000000009      58.835000000000008      55.965000000000003
   186   1      8.6100000000000065      57.400000000000006      57.400000000000006
   187   1      10.045000000000009      58.835000000000008      58.835000000000008
   188   1      8.6100000000000065      57.400000000000006      60.270000000000003
   189   1      10.045000000000009      58.835000000000008      61.704999999999991
   190   1      8.6100000000000065      57.400000000000006      63.139999999999993
   191   1      10.045000000000009      58.835000000000008      64.575000000000003
   192   1      10.045000000000009      61.704999999999991      44.485000000000007
   193   1      8.6100000000000065      60.270000000000003      45.920000000000002
   194   1      10.045000000000009      61.704999999999991      47.355000000000004
   195   1      8.6100000000000065      60.270000000000003      48.790000000000006
   196   1      10.045000000000009      61.704999999999991      50.225000000000009
   197   1      8.6100000000000065      60.270000000000003      51.660000000000004
   198   1      10.045000000000009      61.704999999999991      53.095000000000006
   199   1      8.6100000000000065      60.270000000000003      54.530000000000001
   200   1      10.045000000000009      61.704999999999991      55.965000000000003
   201   1      8.6100000000000065      60.270000000000003      57.400000000000006
   202   1      10.045000000000009      61.704999999999991      58.835000000000008
   203   1      8.6100000000000065      60.270000000000003      60.270000000000003
   204   1      10.045000000000009      61.704999999999991      61.704999999999991
   205   1      8.6100000000000065      60.270000000000003      63.139999999999993
   206   1      10.045000000000009      61.704999999999991      64.575000000000003
   207   1      10.045000000000009      64.575000000000003      47.355000000000004
   208   1      8.6100000000000065      63.139999999999993      48.790000000000006
   209   1      10.045000000000009      64.575000000000003      50.225000000000009
   210   1      8.6100000000000065      63.139999999999993      51.660000000000004
   211   1      10.045000000000009      64.575000000000003      53.095000000000006
   212   1      8.6100000000000065      63.139999999999993      54.530000000000001
   213   1      10.045000000000009      64.575000000000003      55.965000000000003
   214   1      8.6100000000000065      63.139999999999993      57.400000000000006
   215   1      10.045000000000009      64.575000000000003      58.835000000000008
   216   1      8.6100000000000065      63.139999999999993      60.270000000000003
   217   1      10.045000000000009      64.575000000000003      61.704999999999991
   218   1      10.045000000000009      67.445000000000007      53.095000000000006
   219   1      8.6100000000000065      66.010000000000005      54.530000000000001
   220   1      10.045000000000009      67.445000000000007      55.965000000000003
   221   1      12.915000000000006      38.745000000000005      50.225000000000009
   222   1      12.915000000000006      38.745000000000005      53.095000000000006
   223   1      12.915000000000006      38.745000000000005      55.965000000000003
   224   1      12.915000000000006      38.745000000000005      58.835000000000008
   225   1      12.915000000000006      41.615000000000009      44.485000000000007
   226   1      12.915000000000006      41.615000000000009      47.355000000000004
   227   1      12.915000000000006      41.615000000000009      50.225000000000009
   228   1      11.480000000000004      40.180000000000007      51.660000000000004
   229   1      12.915000000000006      41.615000000000009      53.095000000000006
   230   1      11.480000000000004      40.180000000000007      54.530000000000001
   231   1      12.915000000000006      41.615000000000009      55.965000000000003
   232   1      11.480000000000004      40.180000000000007      57.400000000000006
   233   1      12.915000000000006      41.615000000000009      58.835000000000008
   234   1      12.915000000000006      41.615000000000009      61.704999999999991
   235   1      12.915000000000006      41.615000000000009      64.575000000000003
   236   1      12.915000000000006      44.485000000000007      41.615000000000009
   237   1      12.915000000000006      44.485000000000007      44.485000000000007
   238   1      11.480000000000004      43.050000000000004      45.920000000000002
   239   1      12.915000000000006      44.485000000000007      47.355000000000004
   240   1      11.480000000000004      43.050000000000004      48.790000000000006
   241   1      12.915000000000006      44.485000000000007      50.225000000000009
   242   1      11.480000000000004      43.050000000000004      51.660000000000004
   243   1      12.915000000000006      44.485000000000007      53.095000000000006
   244   1      11.480000000000004      43.050000000000004      54.530000000000001
   245   1      12.915000000000006      44.485000000000007      55.965000000000003
   246   1      11.480000000000004      43.050000000000004      57.400000000000006
   247   1      12.915000000000006      44.485000000000007      58.835000000000008
   248   1      11.480000000000004      43.050000000000004      60.270000000000003
   249   1      12.915000000000006      44.485000000000007      61.704999999999991
   250   1      11.480000000000004      43.050000000000004      63.139999999999993
   251   1      12.915000000000006      44.485000000000007      64.575000000000003
   252   1      12.915000000000006      44.485000000000007      67.445000000000007
   253   1      12.915000000000006      47.355000000000004      41.615000000000009
   254   1      11.480000000000004      45.920000000000002      43.050000000000004
   255   1      12.915000000000006      47.355000000000004      44.485000000000007
   256   1      11.480000000000004      45.920000000000002      45.920000000000002
   257   1      12.915000000000006      47.355000000000004      47.355000000000004
   258   1      11.480000000000004      45.920000000000002      48.790000000000006
   259   1      12.915000000000006      47.355000000000004      50.225000000000009
   260   1      11.480000000000004      45.920000000000002      51.660000000000004
   261   1      12.915000000000006      47.355000000000004      53.095000000000006
   262   1      11.480000000000004      45.920000000000002      54.530000000000001
   263   1      12.915000000000006      47.355000000000004      55.965000000000003
   264   1      11.480000000000004      45.920000000000002      57.400000000000006
   265   1      12.915000000000006      47.355000000000004      58.835000000000008
   266   1      11.480000000000004      45.920000000000002      60.270000000000003
   267   1      12.915000000000006      47.355000000000004      61.704999999999991
   268   1      11.480000000000004      45.920000000000002      63.139999999999993
   269   1      12.915000000000006      47.355000000000004      64.575000000000003
   270   1      11.480000000000004      45.920000000000002      66.010000000000005
   271   1      12.915000000000006      47.355000000000004      67.445000000000007
   272   1      12.915000000000006      50.225000000000009      38.745000000000005
   273   1      12.915000000000006      50.225000000000009      41.615000000000009
   274   1      11.480000000000004      48.790000000000006      43.050000000000004
   275   1      12.915000000000006      50.225000000000009      44.485000000000007
   276   1      11.480000000000004      48.790000000000006      45.920000000000002
   277   1      12.915000000000006      50.225000000000009      47.355000000000004
   278   1      11.480000000000004      48.790000000000006      48.790000000000006
   279   1      12.915000000000006      50.225000000000009      50.225000000000009
   280   1      11.480000000000004      48.790000000000006      51.660000000000004
   281   1      12.915000000000006      50.225000000000009      53.095000000000006
   282   1      11.480000000000004      48.790000000000006      54.530000000000001
   283   1      12.915000000000006      50.225000000000009      55.965000000000003
   284   1      11.480000000000004      48.790000000000006      57.400000000000006
   285   1      12.915000000000006      50.225000000000009      58.835000000000008
   286   1      11.480000000000004      48.790000000000006      60.270000000000003
   287   1      12.915000000000006      50.225000000000009      61.704999999999991
   288   1      11.480000000000004      48.790000000000006      63.139999999999993
   289   1      12.915000000000006      50.225000000000009      64.575000000000003
   290   1      11.480000000000004      48.790000000000006      66.010000000000005
   291   1      12.915000000000006      50.225000000000009      67.445000000000007
   292   1      12.915000000000006      50.225000000000009      70.314999999999998
   293   1      12.915000000000006      53.095000000000006      38.745000000000005
   294   1      11.480000000000004      51.660000000000004      40.180000000000007
   295   1      12.915000000000006      53.095000000000006      41.615000000000009
   296   1      11.480000000000004      51.660000000000004      43.050000000000004
   297   1      12.915000000000006      53.095000000000006      44.485000000000007
   298   1      11.480000000000004      51.660000000000004      45.920000000000002
   299   1      12.915000000000006      53.095000000000006      47.355000000000004
   300   1      11.480000000000004      51.660000000000004      48.790000000000006
   301   1      12.915000000000006      53.095000000000006      50.225000000000009
   302   1      11.480000000000004      51.660000000000004      51.660000000000004
   303   1      12.915000000000006      53.095000000000006      53.095000000000006
   304   1      11.480000000000004      51.660000000000004      54.530000000000001
   305   1      12.915000000000006      53.095000000000006      55.965000000000003
   306   1      11.480000000000004      51.660000000000004      57.400000000000006
   307   1      12.915000000000006      53.095000000000006      58.835000000000008
   308   1      11.480000000000004      51.660000000000004      60.270000000000003
   309   1      12.915000000000006      53.095000000000006      61.704999999999991
   310   1      11.480000000000004      51.660000000000004      63.139999999999993
   311   1      12.915000000000006      53.095000000000006      64.575000000000003
   312   1      11.480000000000004      51.660000000000004      66.010000000000005
   313   1      12.915000000000006      53.095000000000006      67.445000000000007
   314   1      11.480000000000004      51.660000000000004      68.879999999999995
   315   1      12.915000000000006      53.095000000000006      70.314999999999998
   316   1      12.915000000000006      55.965000000000003      38.745000000000005
   317   1      11.480000000000004      54.530000000000001      40.180000000000007
   318   1      12.915000000000006      55.965000000000003      41.615000000000009
   319   1      11.480000000000004      54.530000000000001      43.050000000000004
   320   1      12.915000000000006      55.965000000000003      44.485000000000007
   321   1      11.480000000000004      54.530000000000001      45.920000000000002
   322   1      12.915000000000006      55.965000000000003      47.355000000000004
   323   1      11.480000000000004      54.530000000000001      48.790000000000006
   324   1      12.915000000000006      55.965000000000003      50.225000000000009
   325   1      11.480000000000004      54.530000000000001      51.660000000000004
   326   1      12.915000000000006      55.965000000000003      53.095000000000006
   327   1      11.480000000000004      54.530000000000001      54.530000000000001
   328   1      12.915000000000006      55.965000000000003      55.965000000000003
   329   1      11.480000000000004      54.530000000000001      57.400000000000006
   330   1      12.915000000000006      55.965000000000003      58.835000000000008
   331   1      11.480000000000004      54.530000000000001      60.270000000000003
   332   1      12.915000000000006      55.965000000000003      61.704999999999991
   333   1      11.480000000000004      54.530000000000001      63.139999999999993
   334   1      12.915000000000006      55.965000000000003      64.575000000000003
   335   1      11.480000000000004      54.530000000000001      66.010000000000005
   336   1      12.915000000000006      55.965000000000003      67.445000000000007
   337   1      11.480000000000004      54.530000000000001      68.879999999999995
   338   1      12.915000000000006      55.965000000000003      70.314999999999998
   339   1      12.915000000000006      58.835000000000008      38.745000000000005
   340   1      11.480000000000004      57.400000000000006      40.180000000000007
   341   1      12.915000000000006      58.835000000000008      41.615000000000009
   342   1      11.480000000000004      57.400000000000006      43.050000000000004
   343   1      12.915000000000006      58.835000000000008      44.485000000000007
   344   1      11.480000000000004      57.400000000000006      45.920000000000002
   345   1      12.915000000000006      58.835000000000008      47.355000000000004
   346   1      11.480000000000004      57.400000000000006      48.790000000000006
   347   1      12.915000000000006      58.835000000000008      50.225000000000009
   348   1      11.480000000000004      57.400000000000006      51.660000000000004
   349   1      12.915000000000006      58.835000000000008      53.095000000000006
   350   1      11.480000000000004      57.400000000000006      54.530000000000001
   351   1      12.915000000000006      58.835000000000008      55.965000000000003
   352   1      11.480000000000004      57.400000000000006      57.400000000000006
   353   1      12.915000000000006      58.835000000000008      58.835000000000008
   354   1      11.480000000000004      57.400000000000006      60.270000000000003
   355   1      12.915000000000006      58.835000000000008      61.704999999999991
   356   1      11.480000000000004      57.400000000000006      63.139999999999993
   357   1      12.915000000000006      58.835000000000008      64.575000000000003
   358   1      11.480000000000004      57.400000000000006      66.010000000000005