model_files/Fe/Fe_30000/Fe_430/data.Fe_430_bcc_29909 (written by ASE) 

29909 	 atoms 
1  atom types
0.0                      80  xlo xhi
0.0                      80  ylo yhi
0.0                      80  zlo zhi


Atoms 

     1   1      1.4349999999999952       38.74499999999999                   40.18
     2   1      1.4349999999999952                   40.18       38.74499999999999
     3   1      79.999999999999986                   40.18                   40.18
     4   1      1.4349999999999952                   40.18      41.614999999999995
     5   1      1.4349999999999952      41.614999999999995                   40.18
     6   1      2.8699999999999974      35.874999999999993      35.874999999999993
     7   1      4.3049999999999926      34.439999999999991      35.874999999999993
     8   1      4.3049999999999926      35.874999999999993      34.439999999999991
     9   1      2.8699999999999974      35.874999999999993       38.74499999999999
    10   1      4.3049999999999926      34.439999999999991       38.74499999999999
    11   1      4.3049999999999926      35.874999999999993      37.309999999999988
    12   1      2.8699999999999974      35.874999999999993      41.614999999999995
    13   1      4.3049999999999926      34.439999999999991      41.614999999999995
    14   1      4.3049999999999926      35.874999999999993                   40.18
    15   1      2.8699999999999974      35.874999999999993      44.484999999999992
    16   1      4.3049999999999926      34.439999999999991      44.484999999999992
    17   1      4.3049999999999926      35.874999999999993       43.04999999999999
    18   1      4.3049999999999926      35.874999999999993      45.919999999999987
    19   1      2.8699999999999974       38.74499999999999      35.874999999999993
    20   1      4.3049999999999926      37.309999999999988      35.874999999999993
    21   1      4.3049999999999926       38.74499999999999      34.439999999999991
    22   1      2.8699999999999974      37.309999999999988      37.309999999999988
    23   1      2.8699999999999974       38.74499999999999       38.74499999999999
    24   1      4.3049999999999926      37.309999999999988       38.74499999999999
    25   1      4.3049999999999926       38.74499999999999      37.309999999999988
    26   1      2.8699999999999974      37.309999999999988                   40.18
    27   1      2.8699999999999974       38.74499999999999      41.614999999999995
    28   1      4.3049999999999926      37.309999999999988      41.614999999999995
    29   1      4.3049999999999926       38.74499999999999                   40.18
    30   1      2.8699999999999974      37.309999999999988       43.04999999999999
    31   1      2.8699999999999974       38.74499999999999      44.484999999999992
    32   1      4.3049999999999926      37.309999999999988      44.484999999999992
    33   1      4.3049999999999926       38.74499999999999       43.04999999999999
    34   1      4.3049999999999926       38.74499999999999      45.919999999999987
    35   1      2.8699999999999974      41.614999999999995      35.874999999999993
    36   1      4.3049999999999926                   40.18      35.874999999999993
    37   1      4.3049999999999926      41.614999999999995      34.439999999999991
    38   1      2.8699999999999974                   40.18      37.309999999999988
    39   1      2.8699999999999974      41.614999999999995       38.74499999999999
    40   1      4.3049999999999926                   40.18       38.74499999999999
    41   1      4.3049999999999926      41.614999999999995      37.309999999999988
    42   1      2.8699999999999974                   40.18                   40.18
    43   1      2.8699999999999974      41.614999999999995      41.614999999999995
    44   1      4.3049999999999926                   40.18      41.614999999999995
    45   1      4.3049999999999926      41.614999999999995                   40.18
    46   1      2.8699999999999974                   40.18       43.04999999999999
    47   1      2.8699999999999974      41.614999999999995      44.484999999999992
    48   1      4.3049999999999926                   40.18      44.484999999999992
    49   1      4.3049999999999926      41.614999999999995       43.04999999999999
    50   1      4.3049999999999926      41.614999999999995      45.919999999999987
    51   1      2.8699999999999974      44.484999999999992      35.874999999999993
    52   1      4.3049999999999926       43.04999999999999      35.874999999999993
    53   1      4.3049999999999926      44.484999999999992      34.439999999999991
    54   1      2.8699999999999974       43.04999999999999      37.309999999999988
    55   1      2.8699999999999974      44.484999999999992       38.74499999999999
    56   1      4.3049999999999926       43.04999999999999       38.74499999999999
    57   1      4.3049999999999926      44.484999999999992      37.309999999999988
    58   1      2.8699999999999974       43.04999999999999                   40.18
    59   1      2.8699999999999974      44.484999999999992      41.614999999999995
    60   1      4.3049999999999926       43.04999999999999      41.614999999999995
    61   1      4.3049999999999926      44.484999999999992                   40.18
    62   1      2.8699999999999974       43.04999999999999       43.04999999999999
    63   1      2.8699999999999974      44.484999999999992      44.484999999999992
    64   1      4.3049999999999926       43.04999999999999      44.484999999999992
    65   1      4.3049999999999926      44.484999999999992       43.04999999999999
    66   1      4.3049999999999926      44.484999999999992      45.919999999999987
    67   1      4.3049999999999926      45.919999999999987      35.874999999999993
    68   1      4.3049999999999926      45.919999999999987       38.74499999999999
    69   1      4.3049999999999926      45.919999999999987      41.614999999999995
    70   1      4.3049999999999926      45.919999999999987      44.484999999999992
    71   1       7.174999999999998      30.134999999999991      31.569999999999997
    72   1       7.174999999999998      30.134999999999991      34.439999999999991
    73   1       7.174999999999998      30.134999999999991      37.309999999999988
    74   1       7.174999999999998      30.134999999999991                   40.18
    75   1       7.174999999999998      30.134999999999991       43.04999999999999
    76   1       7.174999999999998      30.134999999999991      45.919999999999987
    77   1       7.174999999999998      30.134999999999991      48.789999999999992
    78   1       7.174999999999998      31.569999999999997      30.134999999999991
    79   1      5.7399999999999949      33.004999999999995      33.004999999999995
    80   1       7.174999999999998      31.569999999999997      33.004999999999995
    81   1       7.174999999999998      33.004999999999995      31.569999999999997
    82   1      5.7399999999999949      33.004999999999995      35.874999999999993
    83   1       7.174999999999998      31.569999999999997      35.874999999999993
    84   1       7.174999999999998      33.004999999999995      34.439999999999991
    85   1      5.7399999999999949      33.004999999999995       38.74499999999999
    86   1       7.174999999999998      31.569999999999997       38.74499999999999
    87   1       7.174999999999998      33.004999999999995      37.309999999999988
    88   1      5.7399999999999949      33.004999999999995      41.614999999999995
    89   1       7.174999999999998      31.569999999999997      41.614999999999995
    90   1       7.174999999999998      33.004999999999995                   40.18
    91   1      5.7399999999999949      33.004999999999995      44.484999999999992
    92   1       7.174999999999998      31.569999999999997      44.484999999999992
    93   1       7.174999999999998      33.004999999999995       43.04999999999999
    94   1      5.7399999999999949      33.004999999999995       47.35499999999999
    95   1       7.174999999999998      31.569999999999997       47.35499999999999
    96   1       7.174999999999998      33.004999999999995      45.919999999999987
    97   1       7.174999999999998      31.569999999999997      50.225000000000001
    98   1       7.174999999999998      33.004999999999995      48.789999999999992
    99   1       7.174999999999998      34.439999999999991      30.134999999999991
   100   1      5.7399999999999949      35.874999999999993      33.004999999999995
   101   1       7.174999999999998      34.439999999999991      33.004999999999995
   102   1       7.174999999999998      35.874999999999993      31.569999999999997
   103   1      5.7399999999999949      34.439999999999991      34.439999999999991
   104   1      5.7399999999999949      35.874999999999993      35.874999999999993
   105   1       7.174999999999998      34.439999999999991      35.874999999999993
   106   1       7.174999999999998      35.874999999999993      34.439999999999991
   107   1      5.7399999999999949      34.439999999999991      37.309999999999988
   108   1      5.7399999999999949      35.874999999999993       38.74499999999999
   109   1       7.174999999999998      34.439999999999991       38.74499999999999
   110   1       7.174999999999998      35.874999999999993      37.309999999999988
   111   1      5.7399999999999949      34.439999999999991                   40.18
   112   1      5.7399999999999949      35.874999999999993      41.614999999999995
   113   1       7.174999999999998      34.439999999999991      41.614999999999995
   114   1       7.174999999999998      35.874999999999993                   40.18
   115   1      5.7399999999999949      34.439999999999991       43.04999999999999
   116   1      5.7399999999999949      35.874999999999993      44.484999999999992
   117   1       7.174999999999998      34.439999999999991      44.484999999999992
   118   1       7.174999999999998      35.874999999999993       43.04999999999999
   119   1      5.7399999999999949      34.439999999999991      45.919999999999987
   120   1      5.7399999999999949      35.874999999999993       47.35499999999999
   121   1       7.174999999999998      34.439999999999991       47.35499999999999
   122   1       7.174999999999998      35.874999999999993      45.919999999999987
   123   1       7.174999999999998      34.439999999999991      50.225000000000001
   124   1       7.174999999999998      35.874999999999993      48.789999999999992
   125   1       7.174999999999998      37.309999999999988      30.134999999999991
   126   1      5.7399999999999949       38.74499999999999      33.004999999999995
   127   1       7.174999999999998      37.309999999999988      33.004999999999995
   128   1       7.174999999999998       38.74499999999999      31.569999999999997
   129   1      5.7399999999999949      37.309999999999988      34.439999999999991
   130   1      5.7399999999999949       38.74499999999999      35.874999999999993
   131   1       7.174999999999998      37.309999999999988      35.874999999999993
   132   1       7.174999999999998       38.74499999999999      34.439999999999991
   133   1      5.7399999999999949      37.309999999999988      37.309999999999988
   134   1      5.7399999999999949       38.74499999999999       38.74499999999999
   135   1       7.174999999999998      37.309999999999988       38.74499999999999
   136   1       7.174999999999998       38.74499999999999      37.309999999999988
   137   1      5.7399999999999949      37.309999999999988                   40.18
   138   1      5.7399999999999949       38.74499999999999      41.614999999999995
   139   1       7.174999999999998      37.309999999999988      41.614999999999995
   140   1       7.174999999999998       38.74499999999999                   40.18
   141   1      5.7399999999999949      37.309999999999988       43.04999999999999
   142   1      5.7399999999999949       38.74499999999999      44.484999999999992
   143   1       7.174999999999998      37.309999999999988      44.484999999999992
   144   1       7.174999999999998       38.74499999999999       43.04999999999999
   145   1      5.7399999999999949      37.309999999999988      45.919999999999987
   146   1      5.7399999999999949       38.74499999999999       47.35499999999999
   147   1       7.174999999999998      37.309999999999988       47.35499999999999
   148   1       7.174999999999998       38.74499999999999      45.919999999999987
   149   1       7.174999999999998      37.309999999999988      50.225000000000001
   150   1       7.174999999999998       38.74499999999999      48.789999999999992
   151   1       7.174999999999998                   40.18      30.134999999999991
   152   1      5.7399999999999949      41.614999999999995      33.004999999999995
   153   1       7.174999999999998                   40.18      33.004999999999995
   154   1       7.174999999999998      41.614999999999995      31.569999999999997
   155   1      5.7399999999999949                   40.18      34.439999999999991
   156   1      5.7399999999999949      41.614999999999995      35.874999999999993
   157   1       7.174999999999998                   40.18      35.874999999999993
   158   1       7.174999999999998      41.614999999999995      34.439999999999991
   159   1      5.7399999999999949                   40.18      37.309999999999988
   160   1      5.7399999999999949      41.614999999999995       38.74499999999999
   161   1       7.174999999999998                   40.18       38.74499999999999
   162   1       7.174999999999998      41.614999999999995      37.309999999999988
   163   1      5.7399999999999949                   40.18                   40.18
   164   1      5.7399999999999949      41.614999999999995      41.614999999999995
   165   1       7.174999999999998                   40.18      41.614999999999995
   166   1       7.174999999999998      41.614999999999995                   40.18
   167   1      5.7399999999999949                   40.18       43.04999999999999
   168   1      5.7399999999999949      41.614999999999995      44.484999999999992
   169   1       7.174999999999998                   40.18      44.484999999999992
   170   1       7.174999999999998      41.614999999999995       43.04999999999999
   171   1      5.7399999999999949                   40.18      45.919999999999987
   172   1      5.7399999999999949      41.614999999999995       47.35499999999999
   173   1       7.174999999999998                   40.18       47.35499999999999
   174   1       7.174999999999998      41.614999999999995      45.919999999999987
   175   1       7.174999999999998                   40.18      50.225000000000001
   176   1       7.174999999999998      41.614999999999995      48.789999999999992
   177   1       7.174999999999998       43.04999999999999      30.134999999999991
   178   1      5.7399999999999949      44.484999999999992      33.004999999999995
   179   1       7.174999999999998       43.04999999999999      33.004999999999995
   180   1       7.174999999999998      44.484999999999992      31.569999999999997
   181   1      5.7399999999999949       43.04999999999999      34.439999999999991
   182   1      5.7399999999999949      44.484999999999992      35.874999999999993
   183   1       7.174999999999998       43.04999999999999      35.874999999999993
   184   1       7.174999999999998      44.484999999999992      34.439999999999991
   185   1      5.7399999999999949       43.04999999999999      37.309999999999988
   186   1      5.7399999999999949      44.484999999999992       38.74499999999999
   187   1       7.174999999999998       43.04999999999999       38.74499999999999
   188   1       7.174999999999998      44.484999999999992      37.309999999999988
   189   1      5.7399999999999949       43.04999999999999                   40.18
   190   1      5.7399999999999949      44.484999999999992      41.614999999999995
   191   1       7.174999999999998       43.04999999999999      41.614999999999995
   192   1       7.174999999999998      44.484999999999992                   40.18
   193   1      5.7399999999999949       43.04999999999999       43.04999999999999
   194   1      5.7399999999999949      44.484999999999992      44.484999999999992
   195   1       7.174999999999998       43.04999999999999      44.484999999999992
   196   1       7.174999999999998      44.484999999999992       43.04999999999999
   197   1      5.7399999999999949       43.04999999999999      45.919999999999987
   198   1      5.7399999999999949      44.484999999999992       47.35499999999999
   199   1       7.174999999999998       43.04999999999999       47.35499999999999
   200   1       7.174999999999998      44.484999999999992      45.919999999999987
   201   1       7.174999999999998       43.04999999999999      50.225000000000001
   202   1       7.174999999999998      44.484999999999992      48.789999999999992
   203   1       7.174999999999998      45.919999999999987      30.134999999999991
   204   1      5.7399999999999949       47.35499999999999      33.004999999999995
   205   1       7.174999999999998      45.919999999999987      33.004999999999995
   206   1       7.174999999999998       47.35499999999999      31.569999999999997
   207   1      5.7399999999999949      45.919999999999987      34.439999999999991
   208   1      5.7399999999999949       47.35499999999999      35.874999999999993
   209   1       7.174999999999998      45.919999999999987      35.874999999999993
   210   1       7.174999999999998       47.35499999999999      34.439999999999991
   211   1      5.7399999999999949      45.919999999999987      37.309999999999988
   212   1      5.7399999999999949       47.35499999999999       38.74499999999999
   213   1       7.174999999999998      45.919999999999987       38.74499999999999
   214   1       7.174999999999998       47.35499999999999      37.309999999999988
   215   1      5.7399999999999949      45.919999999999987                   40.18
   216   1      5.7399999999999949       47.35499999999999      41.614999999999995
   217   1       7.174999999999998      45.919999999999987      41.614999999999995
   218   1       7.174999999999998       47.35499999999999                   40.18
   219   1      5.7399999999999949      45.919999999999987       43.04999999999999
   220   1      5.7399999999999949       47.35499999999999      44.484999999999992
   221   1       7.174999999999998      45.919999999999987      44.484999999999992
   222   1       7.174999999999998       47.35499999999999       43.04999999999999
   223   1      5.7399999999999949      45.919999999999987      45.919999999999987
   224   1      5.7399999999999949       47.35499999999999       47.35499999999999
   225   1       7.174999999999998      45.919999999999987       47.35499999999999
   226   1       7.174999999999998       47.35499999999999      45.919999999999987
   227   1       7.174999999999998      45.919999999999987      50.225000000000001
   228   1       7.174999999999998       47.35499999999999      48.789999999999992
   229   1       7.174999999999998      48.789999999999992      30.134999999999991
   230   1       7.174999999999998      48.789999999999992      33.004999999999995
   231   1       7.174999999999998      50.225000000000001      31.569999999999997
   232   1       7.174999999999998      48.789999999999992      35.874999999999993
   233   1       7.174999999999998      50.225000000000001      34.439999999999991
   234   1       7.174999999999998      48.789999999999992       38.74499999999999
   235   1       7.174999999999998      50.225000000000001      37.309999999999988
   236   1       7.174999999999998      48.789999999999992      41.614999999999995
   237   1       7.174999999999998      50.225000000000001                   40.18
   238   1       7.174999999999998      48.789999999999992      44.484999999999992
   239   1       7.174999999999998      50.225000000000001       43.04999999999999
   240   1       7.174999999999998      48.789999999999992       47.35499999999999
   241   1       7.174999999999998      50.225000000000001      45.919999999999987
   242   1       7.174999999999998      48.789999999999992      50.225000000000001
   243   1       7.174999999999998      50.225000000000001      48.789999999999992
   244   1      10.044999999999995      27.264999999999993      28.699999999999992
   245   1      10.044999999999995      27.264999999999993      31.569999999999997
   246   1      10.044999999999995      27.264999999999993      34.439999999999991
   247   1      10.044999999999995      27.264999999999993      37.309999999999988
   248   1      10.044999999999995      27.264999999999993                   40.18
   249   1      10.044999999999995      27.264999999999993       43.04999999999999
   250   1      10.044999999999995      27.264999999999993      45.919999999999987
   251   1      10.044999999999995      27.264999999999993      48.789999999999992
   252   1      10.044999999999995      27.264999999999993      51.659999999999997
   253   1      10.044999999999995      28.699999999999992      27.264999999999993
   254   1      8.6099999999999923      28.699999999999992      28.699999999999992
   255   1      8.6099999999999923      30.134999999999991      30.134999999999991
   256   1      10.044999999999995      28.699999999999992      30.134999999999991
   257   1      10.044999999999995      30.134999999999991      28.699999999999992
   258   1      8.6099999999999923      28.699999999999992      31.569999999999997
   259   1      8.6099999999999923      30.134999999999991      33.004999999999995
   260   1      10.044999999999995      28.699999999999992      33.004999999999995
   261   1      10.044999999999995      30.134999999999991      31.569999999999997
   262   1      8.6099999999999923      28.699999999999992      34.439999999999991
   263   1      8.6099999999999923      30.134999999999991      35.874999999999993
   264   1      10.044999999999995      28.699999999999992      35.874999999999993
   265   1      10.044999999999995      30.134999999999991      34.439999999999991
   266   1      8.6099999999999923      28.699999999999992      37.309999999999988
   267   1      8.6099999999999923      30.134999999999991       38.74499999999999
   268   1      10.044999999999995      28.699999999999992       38.74499999999999
   269   1      10.044999999999995      30.134999999999991      37.309999999999988
   270   1      8.6099999999999923      28.699999999999992                   40.18
   271   1      8.6099999999999923      30.134999999999991      41.614999999999995
   272   1      10.044999999999995      28.699999999999992      41.614999999999995
   273   1      10.044999999999995      30.134999999999991                   40.18
   274   1      8.6099999999999923      28.699999999999992       43.04999999999999
   275   1      8.6099999999999923      30.134999999999991      44.484999999999992
   276   1      10.044999999999995      28.699999999999992      44.484999999999992
   277   1      10.044999999999995      30.134999999999991       43.04999999999999
   278   1      8.6099999999999923      28.699999999999992      45.919999999999987
   279   1      8.6099999999999923      30.134999999999991       47.35499999999999
   280   1      10.044999999999995      28.699999999999992       47.35499999999999
   281   1      10.044999999999995      30.134999999999991      45.919999999999987
   282   1      8.6099999999999923      28.699999999999992      48.789999999999992
   283   1      8.6099999999999923      30.134999999999991      50.225000000000001
   284   1      10.044999999999995      28.699999999999992      50.225000000000001
   285   1      10.044999999999995      30.134999999999991      48.789999999999992
   286   1      8.6099999999999923      28.699999999999992      51.659999999999997
   287   1      10.044999999999995      28.699999999999992      53.094999999999999
   288   1      10.044999999999995      30.134999999999991      51.659999999999997
   289   1      10.044999999999995      31.569999999999997      27.264999999999993
   290   1      8.6099999999999923      31.569999999999997      28.699999999999992
   291   1      8.6099999999999923      33.004999999999995      30.134999999999991
   292   1      10.044999999999995      31.569999999999997      30.134999999999991
   293   1      10.044999999999995      33.004999999999995      28.699999999999992
   294   1      8.6099999999999923      31.569999999999997      31.569999999999997
   295   1      8.6099999999999923      33.004999999999995      33.004999999999995
   296   1      10.044999999999995      31.569999999999997      33.004999999999995
   297   1      10.044999999999995      33.004999999999995      31.569999999999997
   298   1      8.6099999999999923      31.569999999999997      34.439999999999991
   299   1      8.6099999999999923      33.004999999999995      35.874999999999993
   300   1      10.044999999999995      31.569999999999997      35.874999999999993
   301   1      10.044999999999995      33.004999999999995      34.439999999999991
   302   1      8.6099999999999923      31.569999999999997      37.309999999999988
   303   1      8.6099999999999923      33.004999999999995       38.74499999999999
   304   1      10.044999999999995      31.569999999999997       38.74499999999999
   305   1      10.044999999999995      33.004999999999995      37.309999999999988
   306   1      8.6099999999999923      31.569999999999997                   40.18
   307   1      8.6099999999999923      33.004999999999995      41.614999999999995
   308   1      10.044999999999995      31.569999999999997      41.614999999999995
   309   1      10.044999999999995      33.004999999999995                   40.18
   310   1      8.6099999999999923      31.569999999999997       43.04999999999999
   311   1      8.6099999999999923      33.004999999999995      44.484999999999992
   312   1      10.044999999999995      31.569999999999997      44.484999999999992
   313   1      10.044999999999995      33.004999999999995       43.04999999999999
   314   1      8.6099999999999923      31.569999999999997      45.919999999999987
   315   1      8.6099999999999923      33.004999999999995       47.35499999999999
   316   1      10.044999999999995      31.569999999999997       47.35499999999999
   317   1      10.044999999999995      33.004999999999995      45.919999999999987
   318   1      8.6099999999999923      31.569999999999997      48.789999999999992
   319   1      8.6099999999999923      33.004999999999995      50.225000000000001
   320   1      10.044999999999995      31.569999999999997      50.225000000000001
   321   1      10.044999999999995      33.004999999999995      48.789999999999992
   322   1      8.6099999999999923      31.569999999999997      51.659999999999997
   323   1      10.044999999999995      31.569999999999997      53.094999999999999
   324   1      10.044999999999995      33.004999999999995      51.659999999999997
   325   1      10.044999999999995      34.439999999999991      27.264999999999993
   326   1      8.6099999999999923      34.439999999999991      28.699999999999992
   327   1      8.6099999999999923      35.874999999999993      30.134999999999991
   328   1      10.044999999999995      34.439999999999991      30.134999999999991
   329   1      10.044999999999995      35.874999999999993      28.699999999999992
   330   1      8.6099999999999923      34.439999999999991      31.569999999999997
   331   1      8.6099999999999923      35.874999999999993      33.004999999999995
   332   1      10.044999999999995      34.439999999999991      33.004999999999995
   333   1      10.044999999999995      35.874999999999993      31.569999999999997
   334   1      8.6099999999999923      34.439999999999991      34.439999999999991
   335   1      8.6099999999999923      35.874999999999993      35.874999999999993
   336   1      10.044999999999995      34.439999999999991      35.874999999999993
   337   1      10.044999999999995      35.874999999999993      34.439999999999991
   338   1      8.6099999999999923      34.439999999999991      37.309999999999988
   339   1      8.6099999999999923      35.874999999999993       38.74499999999999
   340   1      10.044999999999995      34.439999999999991       38.74499999999999
   341   1      10.044999999999995      35.874999999999993      37.309999999999988
   342   1      8.6099999999999923      34.439999999999991                   40.18
   343   1      8.6099999999999923      35.874999999999993      41.614999999999995
   344   1      10.044999999999995      34.439999999999991      41.614999999999995
   345   1      10.044999999999995      35.874999999999993                   40.18
   346   1      8.6099999999999923      34.439999999999991       43.04999999999999
   347   1      8.6099999999999923      35.874999999999993      44.484999999999992
   348   1      10.044999999999995      34.439999999999991      44.484999999999992
   349   1      10.044999999999995      35.874999999999993       43.04999999999999
   350   1      8.6099999999999923      34.439999999999991      45.919999999999987
   351   1      8.6099999999999923      35.874999999999993       47.35499999999999
   352   1      10.044999999999995      34.439999999999991       47.35499999999999
   353   1      10.044999999999995      35.874999999999993      45.919999999999987
   354   1      8.6099999999999923      34.439999999999991      48.789999999999992
   355   1      8.6099999999999923      35.874999999999993      50.225000000000001
   356   1      10.044999999999995      34.439999999999991      50.225000000000001
   357   1      10.044999999999995      35.874999999999993      48.789999999999992
   358   1      8.6099999999999923      34.439999999999991      51.659999999999997