model_files/PtAu/PtAu_30000/PtAu_531/PtAu_531_fcc_29859_temp.data (written by ASE) 

29859 	 atoms 
2  atom types
0.0                     111  xlo xhi
0.0                     111  ylo yhi
0.0                     111  zlo zhi


Atoms 

     1   1                       0      52.559000000000005      54.580500000000001
     2   1                       0      54.580500000000001      52.559000000000005
     3   1                       0      54.580500000000001      56.602000000000004
     4   1                       0      56.602000000000004      54.580500000000001
     5   1      4.0429999999999993      46.494500000000002      52.559000000000005
     6   1      4.0429999999999993      48.516000000000005      50.537500000000001
     7   1      4.0429999999999993      46.494500000000002      56.602000000000004
     8   1      4.0429999999999993      48.516000000000005      54.580500000000001
     9   1      4.0429999999999993      48.516000000000005                 58.6235
    10   1      4.0429999999999993      50.537500000000001      48.516000000000005
    11   1      4.0429999999999993      52.559000000000005      46.494500000000002
    12   1      2.0214999999999961      50.537500000000001      50.537500000000001
    13   1      2.0214999999999961      52.559000000000005      52.559000000000005
    14   1      4.0429999999999993      50.537500000000001      52.559000000000005
    15   1      4.0429999999999993      52.559000000000005      50.537500000000001
    16   1      2.0214999999999961      50.537500000000001      54.580500000000001
    17   1      2.0214999999999961      52.559000000000005      56.602000000000004
    18   1      4.0429999999999993      50.537500000000001      56.602000000000004
    19   1      4.0429999999999993      52.559000000000005      54.580500000000001
    20   1      2.0214999999999961      50.537500000000001                 58.6235
    21   1      4.0429999999999993      50.537500000000001      60.645000000000003
    22   1      4.0429999999999993      52.559000000000005                 58.6235
    23   1      4.0429999999999993      52.559000000000005      62.666499999999999
    24   1      4.0429999999999993      54.580500000000001      48.516000000000005
    25   1      4.0429999999999993      56.602000000000004      46.494500000000002
    26   1      2.0214999999999961      54.580500000000001      50.537500000000001
    27   1      2.0214999999999961      56.602000000000004      52.559000000000005
    28   1      4.0429999999999993      54.580500000000001      52.559000000000005
    29   1      4.0429999999999993      56.602000000000004      50.537500000000001
    30   1      2.0214999999999961      54.580500000000001      54.580500000000001
    31   1      2.0214999999999961      56.602000000000004      56.602000000000004
    32   1      4.0429999999999993      54.580500000000001      56.602000000000004
    33   1      4.0429999999999993      56.602000000000004      54.580500000000001
    34   1      2.0214999999999961      54.580500000000001                 58.6235
    35   1      4.0429999999999993      54.580500000000001      60.645000000000003
    36   1      4.0429999999999993      56.602000000000004                 58.6235
    37   1      4.0429999999999993      56.602000000000004      62.666499999999999
    38   1      4.0429999999999993                 58.6235      48.516000000000005
    39   1      2.0214999999999961                 58.6235      50.537500000000001
    40   1      4.0429999999999993                 58.6235      52.559000000000005
    41   1      4.0429999999999993      60.645000000000003      50.537500000000001
    42   1      2.0214999999999961                 58.6235      54.580500000000001
    43   1      4.0429999999999993                 58.6235      56.602000000000004
    44   1      4.0429999999999993      60.645000000000003      54.580500000000001
    45   1      2.0214999999999961                 58.6235                 58.6235
    46   1      4.0429999999999993                 58.6235      60.645000000000003
    47   1      4.0429999999999993      60.645000000000003                 58.6235
    48   1      4.0429999999999993      62.666499999999999      52.559000000000005
    49   1      4.0429999999999993      62.666499999999999      56.602000000000004
    50   1      8.0859999999999985                   40.43      50.537500000000001
    51   1      8.0859999999999985                   40.43      54.580500000000001
    52   1      8.0859999999999985                   40.43                 58.6235
    53   1      8.0859999999999985      42.451499999999996      44.472999999999999
    54   1      8.0859999999999985      44.472999999999999      42.451499999999996
    55   1      6.0644999999999953      44.472999999999999      48.516000000000005
    56   1      8.0859999999999985      42.451499999999996      48.516000000000005
    57   1      8.0859999999999985      44.472999999999999      46.494500000000002
    58   1      6.0644999999999953      44.472999999999999      52.559000000000005
    59   1      8.0859999999999985      42.451499999999996      52.559000000000005
    60   1      8.0859999999999985      44.472999999999999      50.537500000000001
    61   1      6.0644999999999953      42.451499999999996      54.580500000000001
    62   1      6.0644999999999953      44.472999999999999      56.602000000000004
    63   1      8.0859999999999985      42.451499999999996      56.602000000000004
    64   1      8.0859999999999985      44.472999999999999      54.580500000000001
    65   1      6.0644999999999953      44.472999999999999      60.645000000000003
    66   1      8.0859999999999985      42.451499999999996      60.645000000000003
    67   1      8.0859999999999985      44.472999999999999                 58.6235
    68   1      8.0859999999999985      42.451499999999996      64.688000000000002
    69   1      8.0859999999999985      44.472999999999999      62.666499999999999
    70   1      8.0859999999999985      44.472999999999999      66.709500000000006
    71   1      6.0644999999999953      48.516000000000005      44.472999999999999
    72   1      8.0859999999999985      46.494500000000002      44.472999999999999
    73   1      8.0859999999999985      48.516000000000005      42.451499999999996
    74   1      6.0644999999999953      46.494500000000002      46.494500000000002
    75   1      6.0644999999999953      48.516000000000005      48.516000000000005
    76   1      8.0859999999999985      46.494500000000002      48.516000000000005
    77   1      8.0859999999999985      48.516000000000005      46.494500000000002
    78   1      6.0644999999999953      46.494500000000002      50.537500000000001
    79   1      6.0644999999999953      48.516000000000005      52.559000000000005
    80   1      8.0859999999999985      46.494500000000002      52.559000000000005
    81   1      8.0859999999999985      48.516000000000005      50.537500000000001
    82   1      6.0644999999999953      46.494500000000002      54.580500000000001
    83   1      6.0644999999999953      48.516000000000005      56.602000000000004
    84   1      8.0859999999999985      46.494500000000002      56.602000000000004
    85   1      8.0859999999999985      48.516000000000005      54.580500000000001
    86   1      6.0644999999999953      46.494500000000002                 58.6235
    87   1      6.0644999999999953      48.516000000000005      60.645000000000003
    88   1      8.0859999999999985      46.494500000000002      60.645000000000003
    89   1      8.0859999999999985      48.516000000000005                 58.6235
    90   1      6.0644999999999953      46.494500000000002      62.666499999999999
    91   1      6.0644999999999953      48.516000000000005      64.688000000000002
    92   1      8.0859999999999985      46.494500000000002      64.688000000000002
    93   1      8.0859999999999985      48.516000000000005      62.666499999999999
    94   1      8.0859999999999985      48.516000000000005      66.709500000000006
    95   1      8.0859999999999985      50.537500000000001                   40.43
    96   1      6.0644999999999953      52.559000000000005      44.472999999999999
    97   1      8.0859999999999985      50.537500000000001      44.472999999999999
    98   1      8.0859999999999985      52.559000000000005      42.451499999999996
    99   1      6.0644999999999953      50.537500000000001      46.494500000000002
   100   1      6.0644999999999953      52.559000000000005      48.516000000000005
   101   1      8.0859999999999985      50.537500000000001      48.516000000000005
   102   1      8.0859999999999985      52.559000000000005      46.494500000000002
   103   1      6.0644999999999953      50.537500000000001      50.537500000000001
   104   1      6.0644999999999953      52.559000000000005      52.559000000000005
   105   1      8.0859999999999985      50.537500000000001      52.559000000000005
   106   1      8.0859999999999985      52.559000000000005      50.537500000000001
   107   1      6.0644999999999953      50.537500000000001      54.580500000000001
   108   1      6.0644999999999953      52.559000000000005      56.602000000000004
   109   1      8.0859999999999985      50.537500000000001      56.602000000000004
   110   1      8.0859999999999985      52.559000000000005      54.580500000000001
   111   1      6.0644999999999953      50.537500000000001                 58.6235
   112   1      6.0644999999999953      52.559000000000005      60.645000000000003
   113   1      8.0859999999999985      50.537500000000001      60.645000000000003
   114   1      8.0859999999999985      52.559000000000005                 58.6235
   115   1      6.0644999999999953      50.537500000000001      62.666499999999999
   116   1      6.0644999999999953      52.559000000000005      64.688000000000002
   117   1      8.0859999999999985      50.537500000000001      64.688000000000002
   118   1      8.0859999999999985      52.559000000000005      62.666499999999999
   119   1      8.0859999999999985      50.537500000000001      68.731000000000009
   120   1      8.0859999999999985      52.559000000000005      66.709500000000006
   121   1      8.0859999999999985      54.580500000000001                   40.43
   122   1      6.0644999999999953      54.580500000000001      42.451499999999996
   123   1      6.0644999999999953      56.602000000000004      44.472999999999999
   124   1      8.0859999999999985      54.580500000000001      44.472999999999999
   125   1      8.0859999999999985      56.602000000000004      42.451499999999996
   126   1      6.0644999999999953      54.580500000000001      46.494500000000002
   127   1      6.0644999999999953      56.602000000000004      48.516000000000005
   128   1      8.0859999999999985      54.580500000000001      48.516000000000005
   129   1      8.0859999999999985      56.602000000000004      46.494500000000002
   130   1      6.0644999999999953      54.580500000000001      50.537500000000001
   131   1      6.0644999999999953      56.602000000000004      52.559000000000005
   132   1      8.0859999999999985      54.580500000000001      52.559000000000005
   133   1      8.0859999999999985      56.602000000000004      50.537500000000001
   134   1      6.0644999999999953      54.580500000000001      54.580500000000001
   135   1      6.0644999999999953      56.602000000000004      56.602000000000004
   136   1      8.0859999999999985      54.580500000000001      56.602000000000004
   137   1      8.0859999999999985      56.602000000000004      54.580500000000001
   138   1      6.0644999999999953      54.580500000000001                 58.6235
   139   1      6.0644999999999953      56.602000000000004      60.645000000000003
   140   1      8.0859999999999985      54.580500000000001      60.645000000000003
   141   1      8.0859999999999985      56.602000000000004                 58.6235
   142   1      6.0644999999999953      54.580500000000001      62.666499999999999
   143   1      6.0644999999999953      56.602000000000004      64.688000000000002
   144   1      8.0859999999999985      54.580500000000001      64.688000000000002
   145   1      8.0859999999999985      56.602000000000004      62.666499999999999
   146   1      6.0644999999999953      54.580500000000001      66.709500000000006
   147   1      8.0859999999999985      54.580500000000001      68.731000000000009
   148   1      8.0859999999999985      56.602000000000004      66.709500000000006
   149   1      8.0859999999999985                 58.6235                   40.43
   150   1      6.0644999999999953      60.645000000000003      44.472999999999999
   151   1      8.0859999999999985                 58.6235      44.472999999999999
   152   1      8.0859999999999985      60.645000000000003      42.451499999999996
   153   1      6.0644999999999953                 58.6235      46.494500000000002
   154   1      6.0644999999999953      60.645000000000003      48.516000000000005
   155   1      8.0859999999999985                 58.6235      48.516000000000005
   156   1      8.0859999999999985      60.645000000000003      46.494500000000002
   157   1      6.0644999999999953                 58.6235      50.537500000000001
   158   1      6.0644999999999953      60.645000000000003      52.559000000000005
   159   1      8.0859999999999985                 58.6235      52.559000000000005
   160   1      8.0859999999999985      60.645000000000003      50.537500000000001
   161   1      6.0644999999999953                 58.6235      54.580500000000001
   162   1      6.0644999999999953      60.645000000000003      56.602000000000004
   163   1      8.0859999999999985                 58.6235      56.602000000000004
   164   1      8.0859999999999985      60.645000000000003      54.580500000000001
   165   1      6.0644999999999953                 58.6235                 58.6235
   166   1      6.0644999999999953      60.645000000000003      60.645000000000003
   167   1      8.0859999999999985                 58.6235      60.645000000000003
   168   1      8.0859999999999985      60.645000000000003                 58.6235
   169   1      6.0644999999999953                 58.6235      62.666499999999999
   170   1      6.0644999999999953      60.645000000000003      64.688000000000002
   171   1      8.0859999999999985                 58.6235      64.688000000000002
   172   1      8.0859999999999985      60.645000000000003      62.666499999999999
   173   1      8.0859999999999985                 58.6235      68.731000000000009
   174   1      8.0859999999999985      60.645000000000003      66.709500000000006
   175   1      8.0859999999999985      62.666499999999999      44.472999999999999
   176   1      8.0859999999999985      64.688000000000002      42.451499999999996
   177   1      6.0644999999999953      62.666499999999999      46.494500000000002
   178   1      6.0644999999999953      64.688000000000002      48.516000000000005
   179   1      8.0859999999999985      62.666499999999999      48.516000000000005
   180   1      8.0859999999999985      64.688000000000002      46.494500000000002
   181   1      6.0644999999999953      62.666499999999999      50.537500000000001
   182   1      6.0644999999999953      64.688000000000002      52.559000000000005
   183   1      8.0859999999999985      62.666499999999999      52.559000000000005
   184   1      8.0859999999999985      64.688000000000002      50.537500000000001
   185   1      6.0644999999999953      62.666499999999999      54.580500000000001
   186   1      6.0644999999999953      64.688000000000002      56.602000000000004
   187   1      8.0859999999999985      62.666499999999999      56.602000000000004
   188   1      8.0859999999999985      64.688000000000002      54.580500000000001
   189   1      6.0644999999999953      62.666499999999999                 58.6235
   190   1      6.0644999999999953      64.688000000000002      60.645000000000003
   191   1      8.0859999999999985      62.666499999999999      60.645000000000003
   192   1      8.0859999999999985      64.688000000000002                 58.6235
   193   1      6.0644999999999953      62.666499999999999      62.666499999999999
   194   1      8.0859999999999985      62.666499999999999      64.688000000000002
   195   1      8.0859999999999985      64.688000000000002      62.666499999999999
   196   1      8.0859999999999985      64.688000000000002      66.709500000000006
   197   1      8.0859999999999985      66.709500000000006      44.472999999999999
   198   1      8.0859999999999985      66.709500000000006      48.516000000000005
   199   1      8.0859999999999985      66.709500000000006      52.559000000000005
   200   1      8.0859999999999985      68.731000000000009      50.537500000000001
   201   1      6.0644999999999953      66.709500000000006      54.580500000000001
   202   1      8.0859999999999985      66.709500000000006      56.602000000000004
   203   1      8.0859999999999985      68.731000000000009      54.580500000000001
   204   1      8.0859999999999985      66.709500000000006      60.645000000000003
   205   1      8.0859999999999985      68.731000000000009                 58.6235
   206   1      8.0859999999999985      66.709500000000006      64.688000000000002
   207   1      12.128999999999998      32.344000000000001      54.580500000000001
   208   1      12.128999999999998                  36.387      42.451499999999996
   209   1      12.128999999999998      34.365499999999997      48.516000000000005
   210   1      12.128999999999998                  36.387      46.494500000000002
   211   1      10.107500000000002                  36.387      52.559000000000005
   212   1      12.128999999999998      34.365499999999997      52.559000000000005
   213   1      12.128999999999998                  36.387      50.537500000000001
   214   1      10.107500000000002                  36.387      56.602000000000004
   215   1      12.128999999999998      34.365499999999997      56.602000000000004
   216   1      12.128999999999998                  36.387      54.580500000000001
   217   1      12.128999999999998      34.365499999999997      60.645000000000003
   218   1      12.128999999999998                  36.387                 58.6235
   219   1      12.128999999999998                  36.387      62.666499999999999
   220   1      12.128999999999998                  36.387      66.709500000000006
   221   1      10.107500000000002                   40.43                   40.43
   222   1      12.128999999999998      38.408499999999997                   40.43
   223   1      12.128999999999998                   40.43      38.408499999999997
   224   1      10.107500000000002                   40.43      44.472999999999999
   225   1      12.128999999999998      38.408499999999997      44.472999999999999
   226   1      12.128999999999998                   40.43      42.451499999999996
   227   1      10.107500000000002      38.408499999999997      46.494500000000002
   228   1      10.107500000000002                   40.43      48.516000000000005
   229   1      12.128999999999998      38.408499999999997      48.516000000000005
   230   1      12.128999999999998                   40.43      46.494500000000002
   231   1      10.107500000000002      38.408499999999997      50.537500000000001
   232   1      10.107500000000002                   40.43      52.559000000000005
   233   1      12.128999999999998      38.408499999999997      52.559000000000005
   234   1      12.128999999999998                   40.43      50.537500000000001
   235   1      10.107500000000002      38.408499999999997      54.580500000000001
   236   1      10.107500000000002                   40.43      56.602000000000004
   237   1      12.128999999999998      38.408499999999997      56.602000000000004
   238   1      12.128999999999998                   40.43      54.580500000000001
   239   1      10.107500000000002      38.408499999999997                 58.6235
   240   1      10.107500000000002                   40.43      60.645000000000003
   241   1      12.128999999999998      38.408499999999997      60.645000000000003
   242   1      12.128999999999998                   40.43                 58.6235
   243   1      10.107500000000002      38.408499999999997      62.666499999999999
   244   1      10.107500000000002                   40.43      64.688000000000002
   245   1      12.128999999999998      38.408499999999997      64.688000000000002
   246   1      12.128999999999998                   40.43      62.666499999999999
   247   1      10.107500000000002                   40.43      68.731000000000009
   248   1      12.128999999999998      38.408499999999997      68.731000000000009
   249   1      12.128999999999998                   40.43      66.709500000000006
   250   1      12.128999999999998                   40.43      70.752499999999998
   251   1      12.128999999999998      42.451499999999996                  36.387
   252   1      10.107500000000002      44.472999999999999                   40.43
   253   1      12.128999999999998      42.451499999999996                   40.43
   254   1      12.128999999999998      44.472999999999999      38.408499999999997
   255   1      10.107500000000002      42.451499999999996      42.451499999999996
   256   1      10.107500000000002      44.472999999999999      44.472999999999999
   257   1      12.128999999999998      42.451499999999996      44.472999999999999
   258   1      12.128999999999998      44.472999999999999      42.451499999999996
   259   1      10.107500000000002      42.451499999999996      46.494500000000002
   260   1      10.107500000000002      44.472999999999999      48.516000000000005
   261   1      12.128999999999998      42.451499999999996      48.516000000000005
   262   1      12.128999999999998      44.472999999999999      46.494500000000002
   263   1      10.107500000000002      42.451499999999996      50.537500000000001
   264   1      10.107500000000002      44.472999999999999      52.559000000000005
   265   1      12.128999999999998      42.451499999999996      52.559000000000005
   266   1      12.128999999999998      44.472999999999999      50.537500000000001
   267   1      10.107500000000002      42.451499999999996      54.580500000000001
   268   1      10.107500000000002      44.472999999999999      56.602000000000004
   269   1      12.128999999999998      42.451499999999996      56.602000000000004
   270   1      12.128999999999998      44.472999999999999      54.580500000000001
   271   1      10.107500000000002      42.451499999999996                 58.6235
   272   1      10.107500000000002      44.472999999999999      60.645000000000003
   273   1      12.128999999999998      42.451499999999996      60.645000000000003
   274   1      12.128999999999998      44.472999999999999                 58.6235
   275   1      10.107500000000002      42.451499999999996      62.666499999999999
   276   1      10.107500000000002      44.472999999999999      64.688000000000002
   277   1      12.128999999999998      42.451499999999996      64.688000000000002
   278   1      12.128999999999998      44.472999999999999      62.666499999999999
   279   1      10.107500000000002      42.451499999999996      66.709500000000006
   280   1      10.107500000000002      44.472999999999999      68.731000000000009
   281   1      12.128999999999998      42.451499999999996      68.731000000000009
   282   1      12.128999999999998      44.472999999999999      66.709500000000006
   283   1      12.128999999999998      42.451499999999996      72.774000000000001
   284   1      12.128999999999998      44.472999999999999      70.752499999999998
   285   1      12.128999999999998      46.494500000000002                  36.387
   286   1      12.128999999999998      48.516000000000005      34.365499999999997
   287   1      10.107500000000002      46.494500000000002      38.408499999999997
   288   1      10.107500000000002      48.516000000000005                   40.43
   289   1      12.128999999999998      46.494500000000002                   40.43
   290   1      12.128999999999998      48.516000000000005      38.408499999999997
   291   1      10.107500000000002      46.494500000000002      42.451499999999996
   292   1      10.107500000000002      48.516000000000005      44.472999999999999
   293   1      12.128999999999998      46.494500000000002      44.472999999999999
   294   1      12.128999999999998      48.516000000000005      42.451499999999996
   295   1      10.107500000000002      46.494500000000002      46.494500000000002
   296   1      10.107500000000002      48.516000000000005      48.516000000000005
   297   1      12.128999999999998      46.494500000000002      48.516000000000005
   298   1      12.128999999999998      48.516000000000005      46.494500000000002
   299   1      10.107500000000002      46.494500000000002      50.537500000000001
   300   1      10.107500000000002      48.516000000000005      52.559000000000005
   301   1      12.128999999999998      46.494500000000002      52.559000000000005
   302   1      12.128999999999998      48.516000000000005      50.537500000000001
   303   1      10.107500000000002      46.494500000000002      54.580500000000001
   304   1      10.107500000000002      48.516000000000005      56.602000000000004
   305   1      12.128999999999998      46.494500000000002      56.602000000000004
   306   1      12.128999999999998      48.516000000000005      54.580500000000001
   307   1      10.107500000000002      46.494500000000002                 58.6235
   308   1      10.107500000000002      48.516000000000005      60.645000000000003
   309   1      12.128999999999998      46.494500000000002      60.645000000000003
   310   1      12.128999999999998      48.516000000000005                 58.6235
   311   1      10.107500000000002      46.494500000000002      62.666499999999999
   312   1      10.107500000000002      48.516000000000005      64.688000000000002
   313   1      12.128999999999998      46.494500000000002      64.688000000000002
   314   1      12.128999999999998      48.516000000000005      62.666499999999999
   315   1      10.107500000000002      46.494500000000002      66.709500000000006
   316   1      10.107500000000002      48.516000000000005      68.731000000000009
   317   1      12.128999999999998      46.494500000000002      68.731000000000009
   318   1      12.128999999999998      48.516000000000005      66.709500000000006
   319   1      10.107500000000002      46.494500000000002      70.752499999999998
   320   1      12.128999999999998      46.494500000000002      72.774000000000001
   321   1      12.128999999999998      48.516000000000005      70.752499999999998
   322   1      12.128999999999998      48.516000000000005      74.795500000000004
   323   1      10.107500000000002      52.559000000000005                  36.387
   324   1      12.128999999999998      50.537500000000001                  36.387
   325   1      12.128999999999998      52.559000000000005      34.365499999999997
   326   1      10.107500000000002      50.537500000000001      38.408499999999997
   327   1      10.107500000000002      52.559000000000005                   40.43
   328   1      12.128999999999998      50.537500000000001                   40.43
   329   1      12.128999999999998      52.559000000000005      38.408499999999997
   330   1      10.107500000000002      50.537500000000001      42.451499999999996
   331   1      10.107500000000002      52.559000000000005      44.472999999999999
   332   1      12.128999999999998      50.537500000000001      44.472999999999999
   333   1      12.128999999999998      52.559000000000005      42.451499999999996
   334   1      10.107500000000002      50.537500000000001      46.494500000000002
   335   1      10.107500000000002      52.559000000000005      48.516000000000005
   336   1      12.128999999999998      50.537500000000001      48.516000000000005
   337   1      12.128999999999998      52.559000000000005      46.494500000000002
   338   1      10.107500000000002      50.537500000000001      50.537500000000001
   339   1      10.107500000000002      52.559000000000005      52.559000000000005
   340   1      12.128999999999998      50.537500000000001      52.559000000000005
   341   1      12.128999999999998      52.559000000000005      50.537500000000001
   342   1      10.107500000000002      50.537500000000001      54.580500000000001
   343   1      10.107500000000002      52.559000000000005      56.602000000000004
   344   1      12.128999999999998      50.537500000000001      56.602000000000004
   345   1      12.128999999999998      52.559000000000005      54.580500000000001
   346   1      10.107500000000002      50.537500000000001                 58.6235
   347   1      10.107500000000002      52.559000000000005      60.645000000000003
   348   1      12.128999999999998      50.537500000000001      60.645000000000003
   349   1      12.128999999999998      52.559000000000005                 58.6235
   350   1      10.107500000000002      50.537500000000001      62.666499999999999
   351   1      10.107500000000002      52.559000000000005      64.688000000000002
   352   1      12.128999999999998      50.537500000000001      64.688000000000002
   353   1      12.128999999999998      52.559000000000005      62.666499999999999
   354   1      10.107500000000002      50.537500000000001      66.709500000000006
   355   1      10.107500000000002      52.559000000000005      68.731000000000009
   356   1      12.128999999999998      50.537500000000001      68.731000000000009
   357   1      12.128999999999998      52.559000000000005      66.709500000000006
   358   1      10.107500000000002      50.537500000000001      70.752499999999998