model_files/PdCo/PdCo_30000/PdCo_110/PdCo_110_fcc_31263_temp.data (written by ASE) 

31263 	 atoms 
2  atom types
0.0                     112  xlo xhi
0.0                     112  ylo yhi
0.0                     112  zlo zhi


Atoms 

     1   1                       0                  54.375                  54.375
     2   1                   1.875                    52.5                  54.375
     3   1                   1.875                  54.375                    52.5
     4   1                       0                  54.375                  58.125
     5   1                   1.875                    52.5                  58.125
     6   1                   1.875                  54.375      56.249999999999993
     7   1                   1.875                  54.375                      60
     8   1                       0                  58.125                  54.375
     9   1                   1.875      56.249999999999993                  54.375
    10   1                   1.875                  58.125                    52.5
    11   1                       0      56.249999999999993      56.249999999999993
    12   1                       0                  58.125                  58.125
    13   1                   1.875      56.249999999999993                  58.125
    14   1                   1.875                  58.125      56.249999999999993
    15   1                   1.875                  58.125                      60
    16   1                   1.875                      60                  54.375
    17   1                   1.875                      60                  58.125
    18   1                    3.75                  50.625                  50.625
    19   1      5.6249999999999991      48.749999999999993                  50.625
    20   1      5.6249999999999991                  50.625      48.749999999999993
    21   1                    3.75                  50.625                  54.375
    22   1      5.6249999999999991      48.749999999999993                  54.375
    23   1      5.6249999999999991                  50.625                    52.5
    24   1                    3.75                  50.625                  58.125
    25   1      5.6249999999999991      48.749999999999993                  58.125
    26   1      5.6249999999999991                  50.625      56.249999999999993
    27   1                    3.75                  50.625      61.874999999999993
    28   1      5.6249999999999991      48.749999999999993      61.874999999999993
    29   1      5.6249999999999991                  50.625                      60
    30   1      5.6249999999999991                  50.625      63.749999999999993
    31   1                    3.75                  54.375                  50.625
    32   1      5.6249999999999991                    52.5                  50.625
    33   1      5.6249999999999991                  54.375      48.749999999999993
    34   1                    3.75                    52.5                    52.5
    35   1                    3.75                  54.375                  54.375
    36   1      5.6249999999999991                    52.5                  54.375
    37   1      5.6249999999999991                  54.375                    52.5
    38   1                    3.75                    52.5      56.249999999999993
    39   1                    3.75                  54.375                  58.125
    40   1      5.6249999999999991                    52.5                  58.125
    41   1      5.6249999999999991                  54.375      56.249999999999993
    42   1                    3.75                    52.5                      60
    43   1                    3.75                  54.375      61.874999999999993
    44   1      5.6249999999999991                    52.5      61.874999999999993
    45   1      5.6249999999999991                  54.375                      60
    46   1      5.6249999999999991                  54.375      63.749999999999993
    47   1                    3.75                  58.125                  50.625
    48   1      5.6249999999999991      56.249999999999993                  50.625
    49   1      5.6249999999999991                  58.125      48.749999999999993
    50   1                    3.75      56.249999999999993                    52.5
    51   1                    3.75                  58.125                  54.375
    52   1      5.6249999999999991      56.249999999999993                  54.375
    53   1      5.6249999999999991                  58.125                    52.5
    54   1                    3.75      56.249999999999993      56.249999999999993
    55   1                    3.75                  58.125                  58.125
    56   1      5.6249999999999991      56.249999999999993                  58.125
    57   1      5.6249999999999991                  58.125      56.249999999999993
    58   1                    3.75      56.249999999999993                      60
    59   1                    3.75                  58.125      61.874999999999993
    60   1      5.6249999999999991      56.249999999999993      61.874999999999993
    61   1      5.6249999999999991                  58.125                      60
    62   1      5.6249999999999991                  58.125      63.749999999999993
    63   1                    3.75      61.874999999999993                  50.625
    64   1      5.6249999999999991                      60                  50.625
    65   1      5.6249999999999991      61.874999999999993      48.749999999999993
    66   1                    3.75                      60                    52.5
    67   1                    3.75      61.874999999999993                  54.375
    68   1      5.6249999999999991                      60                  54.375
    69   1      5.6249999999999991      61.874999999999993                    52.5
    70   1                    3.75                      60      56.249999999999993
    71   1                    3.75      61.874999999999993                  58.125
    72   1      5.6249999999999991                      60                  58.125
    73   1      5.6249999999999991      61.874999999999993      56.249999999999993
    74   1                    3.75                      60                      60
    75   1                    3.75      61.874999999999993      61.874999999999993
    76   1      5.6249999999999991                      60      61.874999999999993
    77   1      5.6249999999999991      61.874999999999993                      60
    78   1      5.6249999999999991      61.874999999999993      63.749999999999993
    79   1      5.6249999999999991      63.749999999999993                  50.625
    80   1      5.6249999999999991      63.749999999999993                  54.375
    81   1      5.6249999999999991      63.749999999999993                  58.125
    82   1      5.6249999999999991      63.749999999999993      61.874999999999993
    83   1                     7.5                  46.875                  46.875
    84   1                   9.375      44.999999999999993                  46.875
    85   1                   9.375                  46.875      44.999999999999993
    86   1                     7.5                  46.875                  50.625
    87   1                   9.375      44.999999999999993                  50.625
    88   1                   9.375                  46.875      48.749999999999993
    89   1                     7.5                  46.875                  54.375
    90   1                   9.375      44.999999999999993                  54.375
    91   1                   9.375                  46.875                    52.5
    92   1                     7.5                  46.875                  58.125
    93   1                   9.375      44.999999999999993                  58.125
    94   1                   9.375                  46.875      56.249999999999993
    95   1                     7.5                  46.875      61.874999999999993
    96   1                   9.375      44.999999999999993      61.874999999999993
    97   1                   9.375                  46.875                      60
    98   1                     7.5                  46.875                  65.625
    99   1                   9.375      44.999999999999993                  65.625
   100   1                   9.375                  46.875      63.749999999999993
   101   1                   9.375                  46.875                    67.5
   102   1                     7.5                  50.625                  46.875
   103   1                   9.375      48.749999999999993                  46.875
   104   1                   9.375                  50.625      44.999999999999993
   105   1                     7.5      48.749999999999993      48.749999999999993
   106   1                     7.5                  50.625                  50.625
   107   1                   9.375      48.749999999999993                  50.625
   108   1                   9.375                  50.625      48.749999999999993
   109   1                     7.5      48.749999999999993                    52.5
   110   1                     7.5                  50.625                  54.375
   111   1                   9.375      48.749999999999993                  54.375
   112   1                   9.375                  50.625                    52.5
   113   1                     7.5      48.749999999999993      56.249999999999993
   114   1                     7.5                  50.625                  58.125
   115   1                   9.375      48.749999999999993                  58.125
   116   1                   9.375                  50.625      56.249999999999993
   117   1                     7.5      48.749999999999993                      60
   118   1                     7.5                  50.625      61.874999999999993
   119   1                   9.375      48.749999999999993      61.874999999999993
   120   1                   9.375                  50.625                      60
   121   1                     7.5      48.749999999999993      63.749999999999993
   122   1                     7.5                  50.625                  65.625
   123   1                   9.375      48.749999999999993                  65.625
   124   1                   9.375                  50.625      63.749999999999993
   125   1                   9.375                  50.625                    67.5
   126   1                     7.5                  54.375                  46.875
   127   1                   9.375                    52.5                  46.875
   128   1                   9.375                  54.375      44.999999999999993
   129   1                     7.5                    52.5      48.749999999999993
   130   1                     7.5                  54.375                  50.625
   131   1                   9.375                    52.5                  50.625
   132   1                   9.375                  54.375      48.749999999999993
   133   1                     7.5                    52.5                    52.5
   134   1                     7.5                  54.375                  54.375
   135   1                   9.375                    52.5                  54.375
   136   1                   9.375                  54.375                    52.5
   137   1                     7.5                    52.5      56.249999999999993
   138   1                     7.5                  54.375                  58.125
   139   1                   9.375                    52.5                  58.125
   140   1                   9.375                  54.375      56.249999999999993
   141   1                     7.5                    52.5                      60
   142   1                     7.5                  54.375      61.874999999999993
   143   1                   9.375                    52.5      61.874999999999993
   144   1                   9.375                  54.375                      60
   145   1                     7.5                    52.5      63.749999999999993
   146   1                     7.5                  54.375                  65.625
   147   1                   9.375                    52.5                  65.625
   148   1                   9.375                  54.375      63.749999999999993
   149   1                   9.375                  54.375                    67.5
   150   1                     7.5                  58.125                  46.875
   151   1                   9.375      56.249999999999993                  46.875
   152   1                   9.375                  58.125      44.999999999999993
   153   1                     7.5      56.249999999999993      48.749999999999993
   154   1                     7.5                  58.125                  50.625
   155   1                   9.375      56.249999999999993                  50.625
   156   1                   9.375                  58.125      48.749999999999993
   157   1                     7.5      56.249999999999993                    52.5
   158   1                     7.5                  58.125                  54.375
   159   1                   9.375      56.249999999999993                  54.375
   160   1                   9.375                  58.125                    52.5
   161   1                     7.5      56.249999999999993      56.249999999999993
   162   1                     7.5                  58.125                  58.125
   163   1                   9.375      56.249999999999993                  58.125
   164   1                   9.375                  58.125      56.249999999999993
   165   1                     7.5      56.249999999999993                      60
   166   1                     7.5                  58.125      61.874999999999993
   167   1                   9.375      56.249999999999993      61.874999999999993
   168   1                   9.375                  58.125                      60
   169   1                     7.5      56.249999999999993      63.749999999999993
   170   1                     7.5                  58.125                  65.625
   171   1                   9.375      56.249999999999993                  65.625
   172   1                   9.375                  58.125      63.749999999999993
   173   1                   9.375                  58.125                    67.5
   174   1                     7.5      61.874999999999993                  46.875
   175   1                   9.375                      60                  46.875
   176   1                   9.375      61.874999999999993      44.999999999999993
   177   1                     7.5                      60      48.749999999999993
   178   1                     7.5      61.874999999999993                  50.625
   179   1                   9.375                      60                  50.625
   180   1                   9.375      61.874999999999993      48.749999999999993
   181   1                     7.5                      60                    52.5
   182   1                     7.5      61.874999999999993                  54.375
   183   1                   9.375                      60                  54.375
   184   1                   9.375      61.874999999999993                    52.5
   185   1                     7.5                      60      56.249999999999993
   186   1                     7.5      61.874999999999993                  58.125
   187   1                   9.375                      60                  58.125
   188   1                   9.375      61.874999999999993      56.249999999999993
   189   1                     7.5                      60                      60
   190   1                     7.5      61.874999999999993      61.874999999999993
   191   1                   9.375                      60      61.874999999999993
   192   1                   9.375      61.874999999999993                      60
   193   1                     7.5                      60      63.749999999999993
   194   1                     7.5      61.874999999999993                  65.625
   195   1                   9.375                      60                  65.625
   196   1                   9.375      61.874999999999993      63.749999999999993
   197   1                   9.375      61.874999999999993                    67.5
   198   1                     7.5                  65.625                  46.875
   199   1                   9.375      63.749999999999993                  46.875
   200   1                   9.375                  65.625      44.999999999999993
   201   1                     7.5      63.749999999999993      48.749999999999993
   202   1                     7.5                  65.625                  50.625
   203   1                   9.375      63.749999999999993                  50.625
   204   1                   9.375                  65.625      48.749999999999993
   205   1                     7.5      63.749999999999993                    52.5
   206   1                     7.5                  65.625                  54.375
   207   1                   9.375      63.749999999999993                  54.375
   208   1                   9.375                  65.625                    52.5
   209   1                     7.5      63.749999999999993      56.249999999999993
   210   1                     7.5                  65.625                  58.125
   211   1                   9.375      63.749999999999993                  58.125
   212   1                   9.375                  65.625      56.249999999999993
   213   1                     7.5      63.749999999999993                      60
   214   1                     7.5                  65.625      61.874999999999993
   215   1                   9.375      63.749999999999993      61.874999999999993
   216   1                   9.375                  65.625                      60
   217   1                     7.5      63.749999999999993      63.749999999999993
   218   1                     7.5                  65.625                  65.625
   219   1                   9.375      63.749999999999993                  65.625
   220   1                   9.375                  65.625      63.749999999999993
   221   1                   9.375                  65.625                    67.5
   222   1                   9.375                    67.5                  46.875
   223   1                   9.375                    67.5                  50.625
   224   1                   9.375                    67.5                  54.375
   225   1                   9.375                    67.5                  58.125
   226   1                   9.375                    67.5      61.874999999999993
   227   1                   9.375                    67.5                  65.625
   228   1      11.249999999999998                  43.125                  43.125
   229   1                  13.125                   41.25                  43.125
   230   1                  13.125                  43.125                   41.25
   231   1      11.249999999999998                  43.125                  46.875
   232   1                  13.125                   41.25                  46.875
   233   1                  13.125                  43.125      44.999999999999993
   234   1      11.249999999999998                  43.125                  50.625
   235   1                  13.125                   41.25                  50.625
   236   1                  13.125                  43.125      48.749999999999993
   237   1      11.249999999999998                  43.125                  54.375
   238   1                  13.125                   41.25                  54.375
   239   1                  13.125                  43.125                    52.5
   240   1      11.249999999999998                  43.125                  58.125
   241   1                  13.125                   41.25                  58.125
   242   1                  13.125                  43.125      56.249999999999993
   243   1      11.249999999999998                  43.125      61.874999999999993
   244   1                  13.125                   41.25      61.874999999999993
   245   1                  13.125                  43.125                      60
   246   1      11.249999999999998                  43.125                  65.625
   247   1                  13.125                   41.25                  65.625
   248   1                  13.125                  43.125      63.749999999999993
   249   1      11.249999999999998                  43.125                  69.375
   250   1                  13.125                   41.25                  69.375
   251   1                  13.125                  43.125                    67.5
   252   1                  13.125                  43.125                   71.25
   253   1      11.249999999999998                  46.875                  43.125
   254   1                  13.125      44.999999999999993                  43.125
   255   1                  13.125                  46.875                   41.25
   256   1      11.249999999999998      44.999999999999993      44.999999999999993
   257   1      11.249999999999998                  46.875                  46.875
   258   1                  13.125      44.999999999999993                  46.875
   259   1                  13.125                  46.875      44.999999999999993
   260   1      11.249999999999998      44.999999999999993      48.749999999999993
   261   1      11.249999999999998                  46.875                  50.625
   262   1                  13.125      44.999999999999993                  50.625
   263   1                  13.125                  46.875      48.749999999999993
   264   1      11.249999999999998      44.999999999999993                    52.5
   265   1      11.249999999999998                  46.875                  54.375
   266   1                  13.125      44.999999999999993                  54.375
   267   1                  13.125                  46.875                    52.5
   268   1      11.249999999999998      44.999999999999993      56.249999999999993
   269   1      11.249999999999998                  46.875                  58.125
   270   1                  13.125      44.999999999999993                  58.125
   271   1                  13.125                  46.875      56.249999999999993
   272   1      11.249999999999998      44.999999999999993                      60
   273   1      11.249999999999998                  46.875      61.874999999999993
   274   1                  13.125      44.999999999999993      61.874999999999993
   275   1                  13.125                  46.875                      60
   276   1      11.249999999999998      44.999999999999993      63.749999999999993
   277   1      11.249999999999998                  46.875                  65.625
   278   1                  13.125      44.999999999999993                  65.625
   279   1                  13.125                  46.875      63.749999999999993
   280   1      11.249999999999998      44.999999999999993                    67.5
   281   1      11.249999999999998                  46.875                  69.375
   282   1                  13.125      44.999999999999993                  69.375
   283   1                  13.125                  46.875                    67.5
   284   1                  13.125                  46.875                   71.25
   285   1      11.249999999999998                  50.625                  43.125
   286   1                  13.125      48.749999999999993                  43.125
   287   1                  13.125                  50.625                   41.25
   288   1      11.249999999999998      48.749999999999993      44.999999999999993
   289   1      11.249999999999998                  50.625                  46.875
   290   1                  13.125      48.749999999999993                  46.875
   291   1                  13.125                  50.625      44.999999999999993
   292   1      11.249999999999998      48.749999999999993      48.749999999999993
   293   1      11.249999999999998                  50.625                  50.625
   294   1                  13.125      48.749999999999993                  50.625
   295   1                  13.125                  50.625      48.749999999999993
   296   1      11.249999999999998      48.749999999999993                    52.5
   297   1      11.249999999999998                  50.625                  54.375
   298   1                  13.125      48.749999999999993                  54.375
   299   1                  13.125                  50.625                    52.5
   300   1      11.249999999999998      48.749999999999993      56.249999999999993
   301   1      11.249999999999998                  50.625                  58.125
   302   1                  13.125      48.749999999999993                  58.125
   303   1                  13.125                  50.625      56.249999999999993
   304   1      11.249999999999998      48.749999999999993                      60
   305   1      11.249999999999998                  50.625      61.874999999999993
   306   1                  13.125      48.749999999999993      61.874999999999993
   307   1                  13.125                  50.625                      60
   308   1      11.249999999999998      48.749999999999993      63.749999999999993
   309   1      11.249999999999998                  50.625                  65.625
   310   1                  13.125      48.749999999999993                  65.625
   311   1                  13.125                  50.625      63.749999999999993
   312   1      11.249999999999998      48.749999999999993                    67.5
   313   1      11.249999999999998                  50.625                  69.375
   314   1                  13.125      48.749999999999993                  69.375
   315   1                  13.125                  50.625                    67.5
   316   1                  13.125                  50.625                   71.25
   317   1      11.249999999999998                  54.375                  43.125
   318   1                  13.125                    52.5                  43.125
   319   1                  13.125                  54.375                   41.25
   320   1      11.249999999999998                    52.5      44.999999999999993
   321   1      11.249999999999998                  54.375                  46.875
   322   1                  13.125                    52.5                  46.875
   323   1                  13.125                  54.375      44.999999999999993
   324   1      11.249999999999998                    52.5      48.749999999999993
   325   1      11.249999999999998                  54.375                  50.625
   326   1                  13.125                    52.5                  50.625
   327   1                  13.125                  54.375      48.749999999999993
   328   1      11.249999999999998                    52.5                    52.5
   329   1      11.249999999999998                  54.375                  54.375
   330   1                  13.125                    52.5                  54.375
   331   1                  13.125                  54.375                    52.5
   332   1      11.249999999999998                    52.5      56.249999999999993
   333   1      11.249999999999998                  54.375                  58.125
   334   1                  13.125                    52.5                  58.125
   335   1                  13.125                  54.375      56.249999999999993
   336   1      11.249999999999998                    52.5                      60
   337   1      11.249999999999998                  54.375      61.874999999999993
   338   1                  13.125                    52.5      61.874999999999993
   339   1                  13.125                  54.375                      60
   340   1      11.249999999999998                    52.5      63.749999999999993
   341   1      11.249999999999998                  54.375                  65.625
   342   1                  13.125                    52.5                  65.625
   343   1                  13.125                  54.375      63.749999999999993
   344   1      11.249999999999998                    52.5                    67.5
   345   1      11.249999999999998                  54.375                  69.375
   346   1                  13.125                    52.5                  69.375
   347   1                  13.125                  54.375                    67.5
   348   1                  13.125                  54.375                   71.25
   349   1      11.249999999999998                  58.125                  43.125
   350   1                  13.125      56.249999999999993                  43.125
   351   1                  13.125                  58.125                   41.25
   352   1      11.249999999999998      56.249999999999993      44.999999999999993
   353   1      11.249999999999998                  58.125                  46.875
   354   1                  13.125      56.249999999999993                  46.875
   355   1                  13.125                  58.125      44.999999999999993
   356   1      11.249999999999998      56.249999999999993      48.749999999999993
   357   1      11.249999999999998                  58.125                  50.625
   358   1                  13.125      56.249999999999993                  50.625