model_files/CuFeNi/CuFeNi_30000/CuFeNi_542/CuFeNi_542_fcc_29823_temp.data (written by ASE) 

29823 	 atoms 
3  atom types
0.0                     115  xlo xhi
0.0                     115  ylo yhi
0.0                     115  zlo zhi


Atoms 

     1   1      1.8999999999999986      55.099999999999994                      57
     2   1      1.8999999999999986                      57      55.099999999999994
     3   1                       0                      57                      57
     4   1      1.8999999999999986                      57      58.899999999999984
     5   1      1.8999999999999986      58.899999999999984                      57
     6   1      3.8000000000000047      51.299999999999997      55.099999999999994
     7   1      5.7000000000000028      49.399999999999991      55.099999999999994
     8   1      5.7000000000000028      51.299999999999997      53.199999999999996
     9   1      3.8000000000000047      51.299999999999997      58.899999999999984
    10   1      5.7000000000000028      49.399999999999991      58.899999999999984
    11   1      5.7000000000000028      51.299999999999997                      57
    12   1      5.7000000000000028      51.299999999999997      60.799999999999997
    13   1      3.8000000000000047      55.099999999999994      51.299999999999997
    14   1      5.7000000000000028      53.199999999999996      51.299999999999997
    15   1      5.7000000000000028      55.099999999999994      49.399999999999991
    16   1      3.8000000000000047      53.199999999999996      53.199999999999996
    17   1      3.8000000000000047      55.099999999999994      55.099999999999994
    18   1      5.7000000000000028      53.199999999999996      55.099999999999994
    19   1      5.7000000000000028      55.099999999999994      53.199999999999996
    20   1      3.8000000000000047      53.199999999999996                      57
    21   1      3.8000000000000047      55.099999999999994      58.899999999999984
    22   1      5.7000000000000028      53.199999999999996      58.899999999999984
    23   1      5.7000000000000028      55.099999999999994                      57
    24   1      3.8000000000000047      53.199999999999996      60.799999999999997
    25   1      3.8000000000000047      55.099999999999994      62.700000000000003
    26   1      5.7000000000000028      53.199999999999996      62.700000000000003
    27   1      5.7000000000000028      55.099999999999994      60.799999999999997
    28   1      5.7000000000000028      55.099999999999994      64.599999999999994
    29   1      3.8000000000000047      58.899999999999984      51.299999999999997
    30   1      5.7000000000000028                      57      51.299999999999997
    31   1      5.7000000000000028      58.899999999999984      49.399999999999991
    32   1      3.8000000000000047                      57      53.199999999999996
    33   1      3.8000000000000047      58.899999999999984      55.099999999999994
    34   1      5.7000000000000028                      57      55.099999999999994
    35   1      5.7000000000000028      58.899999999999984      53.199999999999996
    36   1      3.8000000000000047                      57                      57
    37   1      3.8000000000000047      58.899999999999984      58.899999999999984
    38   1      5.7000000000000028                      57      58.899999999999984
    39   1      5.7000000000000028      58.899999999999984                      57
    40   1      3.8000000000000047                      57      60.799999999999997
    41   1      3.8000000000000047      58.899999999999984      62.700000000000003
    42   1      5.7000000000000028                      57      62.700000000000003
    43   1      5.7000000000000028      58.899999999999984      60.799999999999997
    44   1      5.7000000000000028      58.899999999999984      64.599999999999994
    45   1      5.7000000000000028      60.799999999999997      51.299999999999997
    46   1      3.8000000000000047      60.799999999999997      53.199999999999996
    47   1      3.8000000000000047      62.700000000000003      55.099999999999994
    48   1      5.7000000000000028      60.799999999999997      55.099999999999994
    49   1      5.7000000000000028      62.700000000000003      53.199999999999996
    50   1      3.8000000000000047      60.799999999999997                      57
    51   1      3.8000000000000047      62.700000000000003      58.899999999999984
    52   1      5.7000000000000028      60.799999999999997      58.899999999999984
    53   1      5.7000000000000028      62.700000000000003                      57
    54   1      3.8000000000000047      60.799999999999997      60.799999999999997
    55   1      5.7000000000000028      60.799999999999997      62.700000000000003
    56   1      5.7000000000000028      62.700000000000003      60.799999999999997
    57   1      5.7000000000000028      64.599999999999994      55.099999999999994
    58   1      5.7000000000000028      64.599999999999994      58.899999999999984
    59   1                     9.5      43.699999999999996                      57
    60   1                     9.5      47.499999999999993      49.399999999999991
    61   1      7.6000000000000014      47.499999999999993      55.099999999999994
    62   1                     9.5      45.599999999999994      55.099999999999994
    63   1                     9.5      47.499999999999993      53.199999999999996
    64   1      7.6000000000000014      45.599999999999994                      57
    65   1      7.6000000000000014      47.499999999999993      58.899999999999984
    66   1                     9.5      45.599999999999994      58.899999999999984
    67   1                     9.5      47.499999999999993                      57
    68   1                     9.5      47.499999999999993      60.799999999999997
    69   1                     9.5      47.499999999999993      64.599999999999994
    70   1                     9.5      49.399999999999991      47.499999999999993
    71   1      7.6000000000000014      49.399999999999991      49.399999999999991
    72   1      7.6000000000000014      51.299999999999997      51.299999999999997
    73   1                     9.5      49.399999999999991      51.299999999999997
    74   1                     9.5      51.299999999999997      49.399999999999991
    75   1      7.6000000000000014      49.399999999999991      53.199999999999996
    76   1      7.6000000000000014      51.299999999999997      55.099999999999994
    77   1                     9.5      49.399999999999991      55.099999999999994
    78   1                     9.5      51.299999999999997      53.199999999999996
    79   1      7.6000000000000014      49.399999999999991                      57
    80   1      7.6000000000000014      51.299999999999997      58.899999999999984
    81   1                     9.5      49.399999999999991      58.899999999999984
    82   1                     9.5      51.299999999999997                      57
    83   1      7.6000000000000014      49.399999999999991      60.799999999999997
    84   1      7.6000000000000014      51.299999999999997      62.700000000000003
    85   1                     9.5      49.399999999999991      62.700000000000003
    86   1                     9.5      51.299999999999997      60.799999999999997
    87   1      7.6000000000000014      49.399999999999991      64.599999999999994
    88   1                     9.5      49.399999999999991                    66.5
    89   1                     9.5      51.299999999999997      64.599999999999994
    90   1      7.6000000000000014      55.099999999999994      47.499999999999993
    91   1                     9.5      53.199999999999996      47.499999999999993
    92   1                     9.5      55.099999999999994      45.599999999999994
    93   1      7.6000000000000014      53.199999999999996      49.399999999999991
    94   1      7.6000000000000014      55.099999999999994      51.299999999999997
    95   1                     9.5      53.199999999999996      51.299999999999997
    96   1                     9.5      55.099999999999994      49.399999999999991
    97   1      7.6000000000000014      53.199999999999996      53.199999999999996
    98   1      7.6000000000000014      55.099999999999994      55.099999999999994
    99   1                     9.5      53.199999999999996      55.099999999999994
   100   1                     9.5      55.099999999999994      53.199999999999996
   101   1      7.6000000000000014      53.199999999999996                      57
   102   1      7.6000000000000014      55.099999999999994      58.899999999999984
   103   1                     9.5      53.199999999999996      58.899999999999984
   104   1                     9.5      55.099999999999994                      57
   105   1      7.6000000000000014      53.199999999999996      60.799999999999997
   106   1      7.6000000000000014      55.099999999999994      62.700000000000003
   107   1                     9.5      53.199999999999996      62.700000000000003
   108   1                     9.5      55.099999999999994      60.799999999999997
   109   1      7.6000000000000014      53.199999999999996      64.599999999999994
   110   1      7.6000000000000014      55.099999999999994                    66.5
   111   1                     9.5      53.199999999999996                    66.5
   112   1                     9.5      55.099999999999994      64.599999999999994
   113   1                     9.5      55.099999999999994      68.399999999999991
   114   1                     9.5                      57      43.699999999999996
   115   1      7.6000000000000014                      57      45.599999999999994
   116   1      7.6000000000000014      58.899999999999984      47.499999999999993
   117   1                     9.5                      57      47.499999999999993
   118   1                     9.5      58.899999999999984      45.599999999999994
   119   1      7.6000000000000014                      57      49.399999999999991
   120   1      7.6000000000000014      58.899999999999984      51.299999999999997
   121   1                     9.5                      57      51.299999999999997
   122   1                     9.5      58.899999999999984      49.399999999999991
   123   1      7.6000000000000014                      57      53.199999999999996
   124   1      7.6000000000000014      58.899999999999984      55.099999999999994
   125   1                     9.5                      57      55.099999999999994
   126   1                     9.5      58.899999999999984      53.199999999999996
   127   1      7.6000000000000014                      57                      57
   128   1      7.6000000000000014      58.899999999999984      58.899999999999984
   129   1                     9.5                      57      58.899999999999984
   130   1                     9.5      58.899999999999984                      57
   131   1      7.6000000000000014                      57      60.799999999999997
   132   1      7.6000000000000014      58.899999999999984      62.700000000000003
   133   1                     9.5                      57      62.700000000000003
   134   1                     9.5      58.899999999999984      60.799999999999997
   135   1      7.6000000000000014                      57      64.599999999999994
   136   1      7.6000000000000014      58.899999999999984                    66.5
   137   1                     9.5                      57                    66.5
   138   1                     9.5      58.899999999999984      64.599999999999994
   139   1      7.6000000000000014                      57      68.399999999999991
   140   1                     9.5                      57      70.299999999999997
   141   1                     9.5      58.899999999999984      68.399999999999991
   142   1                     9.5      60.799999999999997      47.499999999999993
   143   1      7.6000000000000014      60.799999999999997      49.399999999999991
   144   1      7.6000000000000014      62.700000000000003      51.299999999999997
   145   1                     9.5      60.799999999999997      51.299999999999997
   146   1                     9.5      62.700000000000003      49.399999999999991
   147   1      7.6000000000000014      60.799999999999997      53.199999999999996
   148   1      7.6000000000000014      62.700000000000003      55.099999999999994
   149   1                     9.5      60.799999999999997      55.099999999999994
   150   1                     9.5      62.700000000000003      53.199999999999996
   151   1      7.6000000000000014      60.799999999999997                      57
   152   1      7.6000000000000014      62.700000000000003      58.899999999999984
   153   1                     9.5      60.799999999999997      58.899999999999984
   154   1                     9.5      62.700000000000003                      57
   155   1      7.6000000000000014      60.799999999999997      60.799999999999997
   156   1      7.6000000000000014      62.700000000000003      62.700000000000003
   157   1                     9.5      60.799999999999997      62.700000000000003
   158   1                     9.5      62.700000000000003      60.799999999999997
   159   1      7.6000000000000014      60.799999999999997      64.599999999999994
   160   1                     9.5      60.799999999999997                    66.5
   161   1                     9.5      62.700000000000003      64.599999999999994
   162   1                     9.5      64.599999999999994      47.499999999999993
   163   1      7.6000000000000014      64.599999999999994      49.399999999999991
   164   1                     9.5      64.599999999999994      51.299999999999997
   165   1                     9.5                    66.5      49.399999999999991
   166   1      7.6000000000000014      64.599999999999994      53.199999999999996
   167   1      7.6000000000000014                    66.5      55.099999999999994
   168   1                     9.5      64.599999999999994      55.099999999999994
   169   1                     9.5                    66.5      53.199999999999996
   170   1      7.6000000000000014      64.599999999999994                      57
   171   1      7.6000000000000014                    66.5      58.899999999999984
   172   1                     9.5      64.599999999999994      58.899999999999984
   173   1                     9.5                    66.5                      57
   174   1      7.6000000000000014      64.599999999999994      60.799999999999997
   175   1                     9.5      64.599999999999994      62.700000000000003
   176   1                     9.5                    66.5      60.799999999999997
   177   1      7.6000000000000014      64.599999999999994      64.599999999999994
   178   1                     9.5      64.599999999999994                    66.5
   179   1                     9.5                    66.5      64.599999999999994
   180   1                     9.5      68.399999999999991      55.099999999999994
   181   1      7.6000000000000014      68.399999999999991                      57
   182   1                     9.5      68.399999999999991      58.899999999999984
   183   1                     9.5      70.299999999999997                      57
   184   1      13.300000000000004      39.899999999999991                      57
   185   1      11.399999999999999      43.699999999999996      51.299999999999997
   186   1      13.300000000000004      41.799999999999997      51.299999999999997
   187   1      13.300000000000004      43.699999999999996      49.399999999999991
   188   1      11.399999999999999      43.699999999999996      55.099999999999994
   189   1      13.300000000000004      41.799999999999997      55.099999999999994
   190   1      13.300000000000004      43.699999999999996      53.199999999999996
   191   1      11.399999999999999      41.799999999999997                      57
   192   1      11.399999999999999      43.699999999999996      58.899999999999984
   193   1      13.300000000000004      41.799999999999997      58.899999999999984
   194   1      13.300000000000004      43.699999999999996                      57
   195   1      11.399999999999999      43.699999999999996      62.700000000000003
   196   1      13.300000000000004      41.799999999999997      62.700000000000003
   197   1      13.300000000000004      43.699999999999996      60.799999999999997
   198   1      13.300000000000004      43.699999999999996      64.599999999999994
   199   1      11.399999999999999      47.499999999999993      47.499999999999993
   200   1      13.300000000000004      45.599999999999994      47.499999999999993
   201   1      13.300000000000004      47.499999999999993      45.599999999999994
   202   1      11.399999999999999      45.599999999999994      49.399999999999991
   203   1      11.399999999999999      47.499999999999993      51.299999999999997
   204   1      13.300000000000004      45.599999999999994      51.299999999999997
   205   1      13.300000000000004      47.499999999999993      49.399999999999991
   206   1      11.399999999999999      45.599999999999994      53.199999999999996
   207   1      11.399999999999999      47.499999999999993      55.099999999999994
   208   1      13.300000000000004      45.599999999999994      55.099999999999994
   209   1      13.300000000000004      47.499999999999993      53.199999999999996
   210   1      11.399999999999999      45.599999999999994                      57
   211   1      11.399999999999999      47.499999999999993      58.899999999999984
   212   1      13.300000000000004      45.599999999999994      58.899999999999984
   213   1      13.300000000000004      47.499999999999993                      57
   214   1      11.399999999999999      45.599999999999994      60.799999999999997
   215   1      11.399999999999999      47.499999999999993      62.700000000000003
   216   1      13.300000000000004      45.599999999999994      62.700000000000003
   217   1      13.300000000000004      47.499999999999993      60.799999999999997
   218   1      11.399999999999999      45.599999999999994      64.599999999999994
   219   1      11.399999999999999      47.499999999999993                    66.5
   220   1      13.300000000000004      45.599999999999994                    66.5
   221   1      13.300000000000004      47.499999999999993      64.599999999999994
   222   1      13.300000000000004      47.499999999999993      68.399999999999991
   223   1      11.399999999999999      51.299999999999997      43.699999999999996
   224   1      13.300000000000004      49.399999999999991      43.699999999999996
   225   1      13.300000000000004      51.299999999999997      41.799999999999997
   226   1      11.399999999999999      49.399999999999991      45.599999999999994
   227   1      11.399999999999999      51.299999999999997      47.499999999999993
   228   1      13.300000000000004      49.399999999999991      47.499999999999993
   229   1      13.300000000000004      51.299999999999997      45.599999999999994
   230   1      11.399999999999999      49.399999999999991      49.399999999999991
   231   1      11.399999999999999      51.299999999999997      51.299999999999997
   232   1      13.300000000000004      49.399999999999991      51.299999999999997
   233   1      13.300000000000004      51.299999999999997      49.399999999999991
   234   1      11.399999999999999      49.399999999999991      53.199999999999996
   235   1      11.399999999999999      51.299999999999997      55.099999999999994
   236   1      13.300000000000004      49.399999999999991      55.099999999999994
   237   1      13.300000000000004      51.299999999999997      53.199999999999996
   238   1      11.399999999999999      49.399999999999991                      57
   239   1      11.399999999999999      51.299999999999997      58.899999999999984
   240   1      13.300000000000004      49.399999999999991      58.899999999999984
   241   1      13.300000000000004      51.299999999999997                      57
   242   1      11.399999999999999      49.399999999999991      60.799999999999997
   243   1      11.399999999999999      51.299999999999997      62.700000000000003
   244   1      13.300000000000004      49.399999999999991      62.700000000000003
   245   1      13.300000000000004      51.299999999999997      60.799999999999997
   246   1      11.399999999999999      49.399999999999991      64.599999999999994
   247   1      11.399999999999999      51.299999999999997                    66.5
   248   1      13.300000000000004      49.399999999999991                    66.5
   249   1      13.300000000000004      51.299999999999997      64.599999999999994
   250   1      11.399999999999999      49.399999999999991      68.399999999999991
   251   1      11.399999999999999      51.299999999999997      70.299999999999997
   252   1      13.300000000000004      49.399999999999991      70.299999999999997
   253   1      13.300000000000004      51.299999999999997      68.399999999999991
   254   1      13.300000000000004      51.299999999999997      72.199999999999989
   255   1      11.399999999999999      55.099999999999994      43.699999999999996
   256   1      13.300000000000004      53.199999999999996      43.699999999999996
   257   1      13.300000000000004      55.099999999999994      41.799999999999997
   258   1      11.399999999999999      53.199999999999996      45.599999999999994
   259   1      11.399999999999999      55.099999999999994      47.499999999999993
   260   1      13.300000000000004      53.199999999999996      47.499999999999993
   261   1      13.300000000000004      55.099999999999994      45.599999999999994
   262   1      11.399999999999999      53.199999999999996      49.399999999999991
   263   1      11.399999999999999      55.099999999999994      51.299999999999997
   264   1      13.300000000000004      53.199999999999996      51.299999999999997
   265   1      13.300000000000004      55.099999999999994      49.399999999999991
   266   1      11.399999999999999      53.199999999999996      53.199999999999996
   267   1      11.399999999999999      55.099999999999994      55.099999999999994
   268   1      13.300000000000004      53.199999999999996      55.099999999999994
   269   1      13.300000000000004      55.099999999999994      53.199999999999996
   270   1      11.399999999999999      53.199999999999996                      57
   271   1      11.399999999999999      55.099999999999994      58.899999999999984
   272   1      13.300000000000004      53.199999999999996      58.899999999999984
   273   1      13.300000000000004      55.099999999999994                      57
   274   1      11.399999999999999      53.199999999999996      60.799999999999997
   275   1      11.399999999999999      55.099999999999994      62.700000000000003
   276   1      13.300000000000004      53.199999999999996      62.700000000000003
   277   1      13.300000000000004      55.099999999999994      60.799999999999997
   278   1      11.399999999999999      53.199999999999996      64.599999999999994
   279   1      11.399999999999999      55.099999999999994                    66.5
   280   1      13.300000000000004      53.199999999999996                    66.5
   281   1      13.300000000000004      55.099999999999994      64.599999999999994
   282   1      11.399999999999999      53.199999999999996      68.399999999999991
   283   1      11.399999999999999      55.099999999999994      70.299999999999997
   284   1      13.300000000000004      53.199999999999996      70.299999999999997
   285   1      13.300000000000004      55.099999999999994      68.399999999999991
   286   1      13.300000000000004      55.099999999999994      72.199999999999989
   287   1      13.300000000000004                      57      39.899999999999991
   288   1      11.399999999999999                      57      41.799999999999997
   289   1      11.399999999999999      58.899999999999984      43.699999999999996
   290   1      13.300000000000004                      57      43.699999999999996
   291   1      13.300000000000004      58.899999999999984      41.799999999999997
   292   1      11.399999999999999                      57      45.599999999999994
   293   1      11.399999999999999      58.899999999999984      47.499999999999993
   294   1      13.300000000000004                      57      47.499999999999993
   295   1      13.300000000000004      58.899999999999984      45.599999999999994
   296   1      11.399999999999999                      57      49.399999999999991
   297   1      11.399999999999999      58.899999999999984      51.299999999999997
   298   1      13.300000000000004                      57      51.299999999999997
   299   1      13.300000000000004      58.899999999999984      49.399999999999991
   300   1      11.399999999999999                      57      53.199999999999996
   301   1      11.399999999999999      58.899999999999984      55.099999999999994
   302   1      13.300000000000004                      57      55.099999999999994
   303   1      13.300000000000004      58.899999999999984      53.199999999999996
   304   1      11.399999999999999                      57                      57
   305   1      11.399999999999999      58.899999999999984      58.899999999999984
   306   1      13.300000000000004                      57      58.899999999999984
   307   1      13.300000000000004      58.899999999999984                      57
   308   1      11.399999999999999                      57      60.799999999999997
   309   1      11.399999999999999      58.899999999999984      62.700000000000003
   310   1      13.300000000000004                      57      62.700000000000003
   311   1      13.300000000000004      58.899999999999984      60.799999999999997
   312   1      11.399999999999999                      57      64.599999999999994
   313   1      11.399999999999999      58.899999999999984                    66.5
   314   1      13.300000000000004                      57                    66.5
   315   1      13.300000000000004      58.899999999999984      64.599999999999994
   316   1      11.399999999999999                      57      68.399999999999991
   317   1      11.399999999999999      58.899999999999984      70.299999999999997
   318   1      13.300000000000004                      57      70.299999999999997
   319   1      13.300000000000004      58.899999999999984      68.399999999999991
   320   1      11.399999999999999                      57      72.199999999999989
   321   1      13.300000000000004                      57      74.099999999999994
   322   1      13.300000000000004      58.899999999999984      72.199999999999989
   323   1      11.399999999999999      62.700000000000003      43.699999999999996
   324   1      13.300000000000004      60.799999999999997      43.699999999999996
   325   1      13.300000000000004      62.700000000000003      41.799999999999997
   326   1      11.399999999999999      60.799999999999997      45.599999999999994
   327   1      11.399999999999999      62.700000000000003      47.499999999999993
   328   1      13.300000000000004      60.799999999999997      47.499999999999993
   329   1      13.300000000000004      62.700000000000003      45.599999999999994
   330   1      11.399999999999999      60.799999999999997      49.399999999999991
   331   1      11.399999999999999      62.700000000000003      51.299999999999997
   332   1      13.300000000000004      60.799999999999997      51.299999999999997
   333   1      13.300000000000004      62.700000000000003      49.399999999999991
   334   1      11.399999999999999      60.799999999999997      53.199999999999996
   335   1      11.399999999999999      62.700000000000003      55.099999999999994
   336   1      13.300000000000004      60.799999999999997      55.099999999999994
   337   1      13.300000000000004      62.700000000000003      53.199999999999996
   338   1      11.399999999999999      60.799999999999997                      57
   339   1      11.399999999999999      62.700000000000003      58.899999999999984
   340   1      13.300000000000004      60.799999999999997      58.899999999999984
   341   1      13.300000000000004      62.700000000000003                      57
   342   1      11.399999999999999      60.799999999999997      60.799999999999997
   343   1      11.399999999999999      62.700000000000003      62.700000000000003
   344   1      13.300000000000004      60.799999999999997      62.700000000000003
   345   1      13.300000000000004      62.700000000000003      60.799999999999997
   346   1      11.399999999999999      60.799999999999997      64.599999999999994
   347   1      11.399999999999999      62.700000000000003                    66.5
   348   1      13.300000000000004      60.799999999999997                    66.5
   349   1      13.300000000000004      62.700000000000003      64.599999999999994
   350   1      11.399999999999999      60.799999999999997      68.399999999999991
   351   1      11.399999999999999      62.700000000000003      70.299999999999997
   352   1      13.300000000000004      60.799999999999997      70.299999999999997
   353   1      13.300000000000004      62.700000000000003      68.399999999999991
   354   1      13.300000000000004      62.700000000000003      72.199999999999989
   355   1      13.300000000000004      64.599999999999994      43.699999999999996
   356   1      11.399999999999999      64.599999999999994      45.599999999999994
   357   1      11.399999999999999                    66.5      47.499999999999993
   358   1      13.300000000000004      64.599999999999994      47.499999999999993