model_files/Fe/Fe_30000/Fe_531/data.Fe_531_bcc_29859 (written by ASE) 

29859 	 atoms 
1  atom types
0.0                      79  xlo xhi
0.0                      79  ylo yhi
0.0                      79  zlo zhi


Atoms 

     1   1  1.4210854715202004e-14      37.310000000000009      38.745000000000005
     2   1  1.4210854715202004e-14      38.745000000000005      37.310000000000009
     3   1  1.4210854715202004e-14      38.745000000000005      40.180000000000007
     4   1  1.4210854715202004e-14      40.180000000000007      38.745000000000005
     5   1      2.8700000000000112       33.00500000000001      37.310000000000009
     6   1      2.8700000000000112      34.440000000000012      35.875000000000007
     7   1      2.8700000000000112       33.00500000000001      40.180000000000007
     8   1      2.8700000000000112      34.440000000000012      38.745000000000005
     9   1      2.8700000000000112      34.440000000000012      41.615000000000009
    10   1      2.8700000000000112      35.875000000000007      34.440000000000012
    11   1      2.8700000000000112      37.310000000000009       33.00500000000001
    12   1      1.4350000000000092      35.875000000000007      35.875000000000007
    13   1      1.4350000000000092      37.310000000000009      37.310000000000009
    14   1      2.8700000000000112      35.875000000000007      37.310000000000009
    15   1      2.8700000000000112      37.310000000000009      35.875000000000007
    16   1      1.4350000000000092      35.875000000000007      38.745000000000005
    17   1      1.4350000000000092      37.310000000000009      40.180000000000007
    18   1      2.8700000000000112      35.875000000000007      40.180000000000007
    19   1      2.8700000000000112      37.310000000000009      38.745000000000005
    20   1      1.4350000000000092      35.875000000000007      41.615000000000009
    21   1      2.8700000000000112      35.875000000000007      43.050000000000011
    22   1      2.8700000000000112      37.310000000000009      41.615000000000009
    23   1      2.8700000000000112      37.310000000000009      44.485000000000007
    24   1      2.8700000000000112      38.745000000000005      34.440000000000012
    25   1      2.8700000000000112      40.180000000000007       33.00500000000001
    26   1      1.4350000000000092      38.745000000000005      35.875000000000007
    27   1      1.4350000000000092      40.180000000000007      37.310000000000009
    28   1      2.8700000000000112      38.745000000000005      37.310000000000009
    29   1      2.8700000000000112      40.180000000000007      35.875000000000007
    30   1      1.4350000000000092      38.745000000000005      38.745000000000005
    31   1      1.4350000000000092      40.180000000000007      40.180000000000007
    32   1      2.8700000000000112      38.745000000000005      40.180000000000007
    33   1      2.8700000000000112      40.180000000000007      38.745000000000005
    34   1      1.4350000000000092      38.745000000000005      41.615000000000009
    35   1      2.8700000000000112      38.745000000000005      43.050000000000011
    36   1      2.8700000000000112      40.180000000000007      41.615000000000009
    37   1      2.8700000000000112      40.180000000000007      44.485000000000007
    38   1      2.8700000000000112      41.615000000000009      34.440000000000012
    39   1      1.4350000000000092      41.615000000000009      35.875000000000007
    40   1      2.8700000000000112      41.615000000000009      37.310000000000009
    41   1      2.8700000000000112      43.050000000000011      35.875000000000007
    42   1      1.4350000000000092      41.615000000000009      38.745000000000005
    43   1      2.8700000000000112      41.615000000000009      40.180000000000007
    44   1      2.8700000000000112      43.050000000000011      38.745000000000005
    45   1      1.4350000000000092      41.615000000000009      41.615000000000009
    46   1      2.8700000000000112      41.615000000000009      43.050000000000011
    47   1      2.8700000000000112      43.050000000000011      41.615000000000009
    48   1      2.8700000000000112      44.485000000000007      37.310000000000009
    49   1      2.8700000000000112      44.485000000000007      40.180000000000007
    50   1      5.7400000000000091      28.700000000000003      35.875000000000007
    51   1      5.7400000000000091      28.700000000000003      38.745000000000005
    52   1      5.7400000000000091      28.700000000000003      41.615000000000009
    53   1      5.7400000000000091      30.135000000000005      31.570000000000007
    54   1      5.7400000000000091      31.570000000000007      30.135000000000005
    55   1      4.3050000000000139      31.570000000000007      34.440000000000012
    56   1      5.7400000000000091      30.135000000000005      34.440000000000012
    57   1      5.7400000000000091      31.570000000000007       33.00500000000001
    58   1      4.3050000000000139      31.570000000000007      37.310000000000009
    59   1      5.7400000000000091      30.135000000000005      37.310000000000009
    60   1      5.7400000000000091      31.570000000000007      35.875000000000007
    61   1      4.3050000000000139      30.135000000000005      38.745000000000005
    62   1      4.3050000000000139      31.570000000000007      40.180000000000007
    63   1      5.7400000000000091      30.135000000000005      40.180000000000007
    64   1      5.7400000000000091      31.570000000000007      38.745000000000005
    65   1      4.3050000000000139      31.570000000000007      43.050000000000011
    66   1      5.7400000000000091      30.135000000000005      43.050000000000011
    67   1      5.7400000000000091      31.570000000000007      41.615000000000009
    68   1      5.7400000000000091      30.135000000000005      45.920000000000009
    69   1      5.7400000000000091      31.570000000000007      44.485000000000007
    70   1      5.7400000000000091      31.570000000000007      47.354999999999997
    71   1      4.3050000000000139      34.440000000000012      31.570000000000007
    72   1      5.7400000000000091       33.00500000000001      31.570000000000007
    73   1      5.7400000000000091      34.440000000000012      30.135000000000005
    74   1      4.3050000000000139       33.00500000000001       33.00500000000001
    75   1      4.3050000000000139      34.440000000000012      34.440000000000012
    76   1      5.7400000000000091       33.00500000000001      34.440000000000012
    77   1      5.7400000000000091      34.440000000000012       33.00500000000001
    78   1      4.3050000000000139       33.00500000000001      35.875000000000007
    79   1      4.3050000000000139      34.440000000000012      37.310000000000009
    80   1      5.7400000000000091       33.00500000000001      37.310000000000009
    81   1      5.7400000000000091      34.440000000000012      35.875000000000007
    82   1      4.3050000000000139       33.00500000000001      38.745000000000005
    83   1      4.3050000000000139      34.440000000000012      40.180000000000007
    84   1      5.7400000000000091       33.00500000000001      40.180000000000007
    85   1      5.7400000000000091      34.440000000000012      38.745000000000005
    86   1      4.3050000000000139       33.00500000000001      41.615000000000009
    87   1      4.3050000000000139      34.440000000000012      43.050000000000011
    88   1      5.7400000000000091       33.00500000000001      43.050000000000011
    89   1      5.7400000000000091      34.440000000000012      41.615000000000009
    90   1      4.3050000000000139       33.00500000000001      44.485000000000007
    91   1      4.3050000000000139      34.440000000000012      45.920000000000009
    92   1      5.7400000000000091       33.00500000000001      45.920000000000009
    93   1      5.7400000000000091      34.440000000000012      44.485000000000007
    94   1      5.7400000000000091      34.440000000000012      47.354999999999997
    95   1      5.7400000000000091      35.875000000000007      28.700000000000003
    96   1      4.3050000000000139      37.310000000000009      31.570000000000007
    97   1      5.7400000000000091      35.875000000000007      31.570000000000007
    98   1      5.7400000000000091      37.310000000000009      30.135000000000005
    99   1      4.3050000000000139      35.875000000000007       33.00500000000001
   100   1      4.3050000000000139      37.310000000000009      34.440000000000012
   101   1      5.7400000000000091      35.875000000000007      34.440000000000012
   102   1      5.7400000000000091      37.310000000000009       33.00500000000001
   103   1      4.3050000000000139      35.875000000000007      35.875000000000007
   104   1      4.3050000000000139      37.310000000000009      37.310000000000009
   105   1      5.7400000000000091      35.875000000000007      37.310000000000009
   106   1      5.7400000000000091      37.310000000000009      35.875000000000007
   107   1      4.3050000000000139      35.875000000000007      38.745000000000005
   108   1      4.3050000000000139      37.310000000000009      40.180000000000007
   109   1      5.7400000000000091      35.875000000000007      40.180000000000007
   110   1      5.7400000000000091      37.310000000000009      38.745000000000005
   111   1      4.3050000000000139      35.875000000000007      41.615000000000009
   112   1      4.3050000000000139      37.310000000000009      43.050000000000011
   113   1      5.7400000000000091      35.875000000000007      43.050000000000011
   114   1      5.7400000000000091      37.310000000000009      41.615000000000009
   115   1      4.3050000000000139      35.875000000000007      44.485000000000007
   116   1      4.3050000000000139      37.310000000000009      45.920000000000009
   117   1      5.7400000000000091      35.875000000000007      45.920000000000009
   118   1      5.7400000000000091      37.310000000000009      44.485000000000007
   119   1      5.7400000000000091      35.875000000000007      48.789999999999999
   120   1      5.7400000000000091      37.310000000000009      47.354999999999997
   121   1      5.7400000000000091      38.745000000000005      28.700000000000003
   122   1      4.3050000000000139      38.745000000000005      30.135000000000005
   123   1      4.3050000000000139      40.180000000000007      31.570000000000007
   124   1      5.7400000000000091      38.745000000000005      31.570000000000007
   125   1      5.7400000000000091      40.180000000000007      30.135000000000005
   126   1      4.3050000000000139      38.745000000000005       33.00500000000001
   127   1      4.3050000000000139      40.180000000000007      34.440000000000012
   128   1      5.7400000000000091      38.745000000000005      34.440000000000012
   129   1      5.7400000000000091      40.180000000000007       33.00500000000001
   130   1      4.3050000000000139      38.745000000000005      35.875000000000007
   131   1      4.3050000000000139      40.180000000000007      37.310000000000009
   132   1      5.7400000000000091      38.745000000000005      37.310000000000009
   133   1      5.7400000000000091      40.180000000000007      35.875000000000007
   134   1      4.3050000000000139      38.745000000000005      38.745000000000005
   135   1      4.3050000000000139      40.180000000000007      40.180000000000007
   136   1      5.7400000000000091      38.745000000000005      40.180000000000007
   137   1      5.7400000000000091      40.180000000000007      38.745000000000005
   138   1      4.3050000000000139      38.745000000000005      41.615000000000009
   139   1      4.3050000000000139      40.180000000000007      43.050000000000011
   140   1      5.7400000000000091      38.745000000000005      43.050000000000011
   141   1      5.7400000000000091      40.180000000000007      41.615000000000009
   142   1      4.3050000000000139      38.745000000000005      44.485000000000007
   143   1      4.3050000000000139      40.180000000000007      45.920000000000009
   144   1      5.7400000000000091      38.745000000000005      45.920000000000009
   145   1      5.7400000000000091      40.180000000000007      44.485000000000007
   146   1      4.3050000000000139      38.745000000000005      47.354999999999997
   147   1      5.7400000000000091      38.745000000000005      48.789999999999999
   148   1      5.7400000000000091      40.180000000000007      47.354999999999997
   149   1      5.7400000000000091      41.615000000000009      28.700000000000003
   150   1      4.3050000000000139      43.050000000000011      31.570000000000007
   151   1      5.7400000000000091      41.615000000000009      31.570000000000007
   152   1      5.7400000000000091      43.050000000000011      30.135000000000005
   153   1      4.3050000000000139      41.615000000000009       33.00500000000001
   154   1      4.3050000000000139      43.050000000000011      34.440000000000012
   155   1      5.7400000000000091      41.615000000000009      34.440000000000012
   156   1      5.7400000000000091      43.050000000000011       33.00500000000001
   157   1      4.3050000000000139      41.615000000000009      35.875000000000007
   158   1      4.3050000000000139      43.050000000000011      37.310000000000009
   159   1      5.7400000000000091      41.615000000000009      37.310000000000009
   160   1      5.7400000000000091      43.050000000000011      35.875000000000007
   161   1      4.3050000000000139      41.615000000000009      38.745000000000005
   162   1      4.3050000000000139      43.050000000000011      40.180000000000007
   163   1      5.7400000000000091      41.615000000000009      40.180000000000007
   164   1      5.7400000000000091      43.050000000000011      38.745000000000005
   165   1      4.3050000000000139      41.615000000000009      41.615000000000009
   166   1      4.3050000000000139      43.050000000000011      43.050000000000011
   167   1      5.7400000000000091      41.615000000000009      43.050000000000011
   168   1      5.7400000000000091      43.050000000000011      41.615000000000009
   169   1      4.3050000000000139      41.615000000000009      44.485000000000007
   170   1      4.3050000000000139      43.050000000000011      45.920000000000009
   171   1      5.7400000000000091      41.615000000000009      45.920000000000009
   172   1      5.7400000000000091      43.050000000000011      44.485000000000007
   173   1      5.7400000000000091      41.615000000000009      48.789999999999999
   174   1      5.7400000000000091      43.050000000000011      47.354999999999997
   175   1      5.7400000000000091      44.485000000000007      31.570000000000007
   176   1      5.7400000000000091      45.920000000000009      30.135000000000005
   177   1      4.3050000000000139      44.485000000000007       33.00500000000001
   178   1      4.3050000000000139      45.920000000000009      34.440000000000012
   179   1      5.7400000000000091      44.485000000000007      34.440000000000012
   180   1      5.7400000000000091      45.920000000000009       33.00500000000001
   181   1      4.3050000000000139      44.485000000000007      35.875000000000007
   182   1      4.3050000000000139      45.920000000000009      37.310000000000009
   183   1      5.7400000000000091      44.485000000000007      37.310000000000009
   184   1      5.7400000000000091      45.920000000000009      35.875000000000007
   185   1      4.3050000000000139      44.485000000000007      38.745000000000005
   186   1      4.3050000000000139      45.920000000000009      40.180000000000007
   187   1      5.7400000000000091      44.485000000000007      40.180000000000007
   188   1      5.7400000000000091      45.920000000000009      38.745000000000005
   189   1      4.3050000000000139      44.485000000000007      41.615000000000009
   190   1      4.3050000000000139      45.920000000000009      43.050000000000011
   191   1      5.7400000000000091      44.485000000000007      43.050000000000011
   192   1      5.7400000000000091      45.920000000000009      41.615000000000009
   193   1      4.3050000000000139      44.485000000000007      44.485000000000007
   194   1      5.7400000000000091      44.485000000000007      45.920000000000009
   195   1      5.7400000000000091      45.920000000000009      44.485000000000007
   196   1      5.7400000000000091      45.920000000000009      47.354999999999997
   197   1      5.7400000000000091      47.354999999999997      31.570000000000007
   198   1      5.7400000000000091      47.354999999999997      34.440000000000012
   199   1      5.7400000000000091      47.354999999999997      37.310000000000009
   200   1      5.7400000000000091      48.789999999999999      35.875000000000007
   201   1      4.3050000000000139      47.354999999999997      38.745000000000005
   202   1      5.7400000000000091      47.354999999999997      40.180000000000007
   203   1      5.7400000000000091      48.789999999999999      38.745000000000005
   204   1      5.7400000000000091      47.354999999999997      43.050000000000011
   205   1      5.7400000000000091      48.789999999999999      41.615000000000009
   206   1      5.7400000000000091      47.354999999999997      45.920000000000009
   207   1      8.6100000000000136      22.960000000000008      38.745000000000005
   208   1      8.6100000000000136      25.830000000000009      30.135000000000005
   209   1      8.6100000000000136       24.39500000000001      34.440000000000012
   210   1      8.6100000000000136      25.830000000000009       33.00500000000001
   211   1      7.1750000000000105      25.830000000000009      37.310000000000009
   212   1      8.6100000000000136       24.39500000000001      37.310000000000009
   213   1      8.6100000000000136      25.830000000000009      35.875000000000007
   214   1      7.1750000000000105      25.830000000000009      40.180000000000007
   215   1      8.6100000000000136       24.39500000000001      40.180000000000007
   216   1      8.6100000000000136      25.830000000000009      38.745000000000005
   217   1      8.6100000000000136       24.39500000000001      43.050000000000011
   218   1      8.6100000000000136      25.830000000000009      41.615000000000009
   219   1      8.6100000000000136      25.830000000000009      44.485000000000007
   220   1      8.6100000000000136      25.830000000000009      47.354999999999997
   221   1      7.1750000000000105      28.700000000000003      28.700000000000003
   222   1      8.6100000000000136      27.265000000000004      28.700000000000003
   223   1      8.6100000000000136      28.700000000000003      27.265000000000004
   224   1      7.1750000000000105      28.700000000000003      31.570000000000007
   225   1      8.6100000000000136      27.265000000000004      31.570000000000007
   226   1      8.6100000000000136      28.700000000000003      30.135000000000005
   227   1      7.1750000000000105      27.265000000000004       33.00500000000001
   228   1      7.1750000000000105      28.700000000000003      34.440000000000012
   229   1      8.6100000000000136      27.265000000000004      34.440000000000012
   230   1      8.6100000000000136      28.700000000000003       33.00500000000001
   231   1      7.1750000000000105      27.265000000000004      35.875000000000007
   232   1      7.1750000000000105      28.700000000000003      37.310000000000009
   233   1      8.6100000000000136      27.265000000000004      37.310000000000009
   234   1      8.6100000000000136      28.700000000000003      35.875000000000007
   235   1      7.1750000000000105      27.265000000000004      38.745000000000005
   236   1      7.1750000000000105      28.700000000000003      40.180000000000007
   237   1      8.6100000000000136      27.265000000000004      40.180000000000007
   238   1      8.6100000000000136      28.700000000000003      38.745000000000005
   239   1      7.1750000000000105      27.265000000000004      41.615000000000009
   240   1      7.1750000000000105      28.700000000000003      43.050000000000011
   241   1      8.6100000000000136      27.265000000000004      43.050000000000011
   242   1      8.6100000000000136      28.700000000000003      41.615000000000009
   243   1      7.1750000000000105      27.265000000000004      44.485000000000007
   244   1      7.1750000000000105      28.700000000000003      45.920000000000009
   245   1      8.6100000000000136      27.265000000000004      45.920000000000009
   246   1      8.6100000000000136      28.700000000000003      44.485000000000007
   247   1      7.1750000000000105      28.700000000000003      48.789999999999999
   248   1      8.6100000000000136      27.265000000000004      48.789999999999999
   249   1      8.6100000000000136      28.700000000000003      47.354999999999997
   250   1      8.6100000000000136      28.700000000000003      50.225000000000001
   251   1      8.6100000000000136      30.135000000000005      25.830000000000009
   252   1      7.1750000000000105      31.570000000000007      28.700000000000003
   253   1      8.6100000000000136      30.135000000000005      28.700000000000003
   254   1      8.6100000000000136      31.570000000000007      27.265000000000004
   255   1      7.1750000000000105      30.135000000000005      30.135000000000005
   256   1      7.1750000000000105      31.570000000000007      31.570000000000007
   257   1      8.6100000000000136      30.135000000000005      31.570000000000007
   258   1      8.6100000000000136      31.570000000000007      30.135000000000005
   259   1      7.1750000000000105      30.135000000000005       33.00500000000001
   260   1      7.1750000000000105      31.570000000000007      34.440000000000012
   261   1      8.6100000000000136      30.135000000000005      34.440000000000012
   262   1      8.6100000000000136      31.570000000000007       33.00500000000001
   263   1      7.1750000000000105      30.135000000000005      35.875000000000007
   264   1      7.1750000000000105      31.570000000000007      37.310000000000009
   265   1      8.6100000000000136      30.135000000000005      37.310000000000009
   266   1      8.6100000000000136      31.570000000000007      35.875000000000007
   267   1      7.1750000000000105      30.135000000000005      38.745000000000005
   268   1      7.1750000000000105      31.570000000000007      40.180000000000007
   269   1      8.6100000000000136      30.135000000000005      40.180000000000007
   270   1      8.6100000000000136      31.570000000000007      38.745000000000005
   271   1      7.1750000000000105      30.135000000000005      41.615000000000009
   272   1      7.1750000000000105      31.570000000000007      43.050000000000011
   273   1      8.6100000000000136      30.135000000000005      43.050000000000011
   274   1      8.6100000000000136      31.570000000000007      41.615000000000009
   275   1      7.1750000000000105      30.135000000000005      44.485000000000007
   276   1      7.1750000000000105      31.570000000000007      45.920000000000009
   277   1      8.6100000000000136      30.135000000000005      45.920000000000009
   278   1      8.6100000000000136      31.570000000000007      44.485000000000007
   279   1      7.1750000000000105      30.135000000000005      47.354999999999997
   280   1      7.1750000000000105      31.570000000000007      48.789999999999999
   281   1      8.6100000000000136      30.135000000000005      48.789999999999999
   282   1      8.6100000000000136      31.570000000000007      47.354999999999997
   283   1      8.6100000000000136      30.135000000000005      51.660000000000004
   284   1      8.6100000000000136      31.570000000000007      50.225000000000001
   285   1      8.6100000000000136       33.00500000000001      25.830000000000009
   286   1      8.6100000000000136      34.440000000000012       24.39500000000001
   287   1      7.1750000000000105       33.00500000000001      27.265000000000004
   288   1      7.1750000000000105      34.440000000000012      28.700000000000003
   289   1      8.6100000000000136       33.00500000000001      28.700000000000003
   290   1      8.6100000000000136      34.440000000000012      27.265000000000004
   291   1      7.1750000000000105       33.00500000000001      30.135000000000005
   292   1      7.1750000000000105      34.440000000000012      31.570000000000007
   293   1      8.6100000000000136       33.00500000000001      31.570000000000007
   294   1      8.6100000000000136      34.440000000000012      30.135000000000005
   295   1      7.1750000000000105       33.00500000000001       33.00500000000001
   296   1      7.1750000000000105      34.440000000000012      34.440000000000012
   297   1      8.6100000000000136       33.00500000000001      34.440000000000012
   298   1      8.6100000000000136      34.440000000000012       33.00500000000001
   299   1      7.1750000000000105       33.00500000000001      35.875000000000007
   300   1      7.1750000000000105      34.440000000000012      37.310000000000009
   301   1      8.6100000000000136       33.00500000000001      37.310000000000009
   302   1      8.6100000000000136      34.440000000000012      35.875000000000007
   303   1      7.1750000000000105       33.00500000000001      38.745000000000005
   304   1      7.1750000000000105      34.440000000000012      40.180000000000007
   305   1      8.6100000000000136       33.00500000000001      40.180000000000007
   306   1      8.6100000000000136      34.440000000000012      38.745000000000005
   307   1      7.1750000000000105       33.00500000000001      41.615000000000009
   308   1      7.1750000000000105      34.440000000000012      43.050000000000011
   309   1      8.6100000000000136       33.00500000000001      43.050000000000011
   310   1      8.6100000000000136      34.440000000000012      41.615000000000009
   311   1      7.1750000000000105       33.00500000000001      44.485000000000007
   312   1      7.1750000000000105      34.440000000000012      45.920000000000009
   313   1      8.6100000000000136       33.00500000000001      45.920000000000009
   314   1      8.6100000000000136      34.440000000000012      44.485000000000007
   315   1      7.1750000000000105       33.00500000000001      47.354999999999997
   316   1      7.1750000000000105      34.440000000000012      48.789999999999999
   317   1      8.6100000000000136       33.00500000000001      48.789999999999999
   318   1      8.6100000000000136      34.440000000000012      47.354999999999997
   319   1      7.1750000000000105       33.00500000000001      50.225000000000001
   320   1      8.6100000000000136       33.00500000000001      51.660000000000004
   321   1      8.6100000000000136      34.440000000000012      50.225000000000001
   322   1      8.6100000000000136      34.440000000000012      53.095000000000006
   323   1      7.1750000000000105      37.310000000000009      25.830000000000009
   324   1      8.6100000000000136      35.875000000000007      25.830000000000009
   325   1      8.6100000000000136      37.310000000000009       24.39500000000001
   326   1      7.1750000000000105      35.875000000000007      27.265000000000004
   327   1      7.1750000000000105      37.310000000000009      28.700000000000003
   328   1      8.6100000000000136      35.875000000000007      28.700000000000003
   329   1      8.6100000000000136      37.310000000000009      27.265000000000004
   330   1      7.1750000000000105      35.875000000000007      30.135000000000005
   331   1      7.1750000000000105      37.310000000000009      31.570000000000007
   332   1      8.6100000000000136      35.875000000000007      31.570000000000007
   333   1      8.6100000000000136      37.310000000000009      30.135000000000005
   334   1      7.1750000000000105      35.875000000000007       33.00500000000001
   335   1      7.1750000000000105      37.310000000000009      34.440000000000012
   336   1      8.6100000000000136      35.875000000000007      34.440000000000012
   337   1      8.6100000000000136      37.310000000000009       33.00500000000001
   338   1      7.1750000000000105      35.875000000000007      35.875000000000007
   339   1      7.1750000000000105      37.310000000000009      37.310000000000009
   340   1      8.6100000000000136      35.875000000000007      37.310000000000009
   341   1      8.6100000000000136      37.310000000000009      35.875000000000007
   342   1      7.1750000000000105      35.875000000000007      38.745000000000005
   343   1      7.1750000000000105      37.310000000000009      40.180000000000007
   344   1      8.6100000000000136      35.875000000000007      40.180000000000007
   345   1      8.6100000000000136      37.310000000000009      38.745000000000005
   346   1      7.1750000000000105      35.875000000000007      41.615000000000009
   347   1      7.1750000000000105      37.310000000000009      43.050000000000011
   348   1      8.6100000000000136      35.875000000000007      43.050000000000011
   349   1      8.6100000000000136      37.310000000000009      41.615000000000009
   350   1      7.1750000000000105      35.875000000000007      44.485000000000007
   351   1      7.1750000000000105      37.310000000000009      45.920000000000009
   352   1      8.6100000000000136      35.875000000000007      45.920000000000009
   353   1      8.6100000000000136      37.310000000000009      44.485000000000007
   354   1      7.1750000000000105      35.875000000000007      47.354999999999997
   355   1      7.1750000000000105      37.310000000000009      48.789999999999999
   356   1      8.6100000000000136      35.875000000000007      48.789999999999999
   357   1      8.6100000000000136      37.310000000000009      47.354999999999997
   358   1      7.1750000000000105      35.875000000000007      50.225000000000001