model_files/Ni/Ni_30000/Ni_543/data.Ni_543_fcc_30079 (written by ASE) 

30079 	 atoms 
1  atom types
0.0                     111  xlo xhi
0.0                     111  ylo yhi
0.0                     111  zlo zhi


Atoms 

     1   1  7.1054273576010019e-15      52.800000000000004      54.560000000000009
     2   1  7.1054273576010019e-15      54.560000000000009      52.800000000000004
     3   1  7.1054273576010019e-15      54.560000000000009      56.320000000000007
     4   1  7.1054273576010019e-15      56.320000000000007      54.560000000000009
     5   1      3.5200000000000102      49.280000000000008      54.560000000000009
     6   1       1.760000000000012      52.800000000000004      52.800000000000004
     7   1      3.5200000000000102      51.040000000000006      52.800000000000004
     8   1      3.5200000000000102      52.800000000000004      51.040000000000006
     9   1       1.760000000000012      51.040000000000006      54.560000000000009
    10   1       1.760000000000012      52.800000000000004      56.320000000000007
    11   1      3.5200000000000102      51.040000000000006      56.320000000000007
    12   1      3.5200000000000102      52.800000000000004      54.560000000000009
    13   1      3.5200000000000102      52.800000000000004      58.080000000000013
    14   1      3.5200000000000102      54.560000000000009      49.280000000000008
    15   1       1.760000000000012      54.560000000000009      51.040000000000006
    16   1       1.760000000000012      56.320000000000007      52.800000000000004
    17   1      3.5200000000000102      54.560000000000009      52.800000000000004
    18   1      3.5200000000000102      56.320000000000007      51.040000000000006
    19   1       1.760000000000012      54.560000000000009      54.560000000000009
    20   1       1.760000000000012      56.320000000000007      56.320000000000007
    21   1      3.5200000000000102      54.560000000000009      56.320000000000007
    22   1      3.5200000000000102      56.320000000000007      54.560000000000009
    23   1       1.760000000000012      54.560000000000009      58.080000000000013
    24   1      3.5200000000000102      54.560000000000009      59.840000000000003
    25   1      3.5200000000000102      56.320000000000007      58.080000000000013
    26   1      3.5200000000000102      58.080000000000013      52.800000000000004
    27   1       1.760000000000012      58.080000000000013      54.560000000000009
    28   1      3.5200000000000102      58.080000000000013      56.320000000000007
    29   1      3.5200000000000102      59.840000000000003      54.560000000000009
    30   1      7.0400000000000125      45.760000000000005      54.560000000000009
    31   1      5.2800000000000082      49.280000000000008      52.800000000000004
    32   1      7.0400000000000125       47.52000000000001      52.800000000000004
    33   1      7.0400000000000125      49.280000000000008      51.040000000000006
    34   1      5.2800000000000082       47.52000000000001      54.560000000000009
    35   1      5.2800000000000082      49.280000000000008      56.320000000000007
    36   1      7.0400000000000125       47.52000000000001      56.320000000000007
    37   1      7.0400000000000125      49.280000000000008      54.560000000000009
    38   1      7.0400000000000125      49.280000000000008      58.080000000000013
    39   1      5.2800000000000082      52.800000000000004      49.280000000000008
    40   1      7.0400000000000125      51.040000000000006      49.280000000000008
    41   1      7.0400000000000125      52.800000000000004       47.52000000000001
    42   1      5.2800000000000082      51.040000000000006      51.040000000000006
    43   1      5.2800000000000082      52.800000000000004      52.800000000000004
    44   1      7.0400000000000125      51.040000000000006      52.800000000000004
    45   1      7.0400000000000125      52.800000000000004      51.040000000000006
    46   1      5.2800000000000082      51.040000000000006      54.560000000000009
    47   1      5.2800000000000082      52.800000000000004      56.320000000000007
    48   1      7.0400000000000125      51.040000000000006      56.320000000000007
    49   1      7.0400000000000125      52.800000000000004      54.560000000000009
    50   1      5.2800000000000082      51.040000000000006      58.080000000000013
    51   1      5.2800000000000082      52.800000000000004      59.840000000000003
    52   1      7.0400000000000125      51.040000000000006      59.840000000000003
    53   1      7.0400000000000125      52.800000000000004      58.080000000000013
    54   1      7.0400000000000125      52.800000000000004      61.600000000000009
    55   1      7.0400000000000125      54.560000000000009      45.760000000000005
    56   1      5.2800000000000082      54.560000000000009       47.52000000000001
    57   1      5.2800000000000082      56.320000000000007      49.280000000000008
    58   1      7.0400000000000125      54.560000000000009      49.280000000000008
    59   1      7.0400000000000125      56.320000000000007       47.52000000000001
    60   1      5.2800000000000082      54.560000000000009      51.040000000000006
    61   1      5.2800000000000082      56.320000000000007      52.800000000000004
    62   1      7.0400000000000125      54.560000000000009      52.800000000000004
    63   1      7.0400000000000125      56.320000000000007      51.040000000000006
    64   1      5.2800000000000082      54.560000000000009      54.560000000000009
    65   1      5.2800000000000082      56.320000000000007      56.320000000000007
    66   1      7.0400000000000125      54.560000000000009      56.320000000000007
    67   1      7.0400000000000125      56.320000000000007      54.560000000000009
    68   1      5.2800000000000082      54.560000000000009      58.080000000000013
    69   1      5.2800000000000082      56.320000000000007      59.840000000000003
    70   1      7.0400000000000125      54.560000000000009      59.840000000000003
    71   1      7.0400000000000125      56.320000000000007      58.080000000000013
    72   1      5.2800000000000082      54.560000000000009      61.600000000000009
    73   1      7.0400000000000125      54.560000000000009      63.360000000000021
    74   1      7.0400000000000125      56.320000000000007      61.600000000000009
    75   1      7.0400000000000125      58.080000000000013      49.280000000000008
    76   1      5.2800000000000082      58.080000000000013      51.040000000000006
    77   1      5.2800000000000082      59.840000000000003      52.800000000000004
    78   1      7.0400000000000125      58.080000000000013      52.800000000000004
    79   1      7.0400000000000125      59.840000000000003      51.040000000000006
    80   1      5.2800000000000082      58.080000000000013      54.560000000000009
    81   1      5.2800000000000082      59.840000000000003      56.320000000000007
    82   1      7.0400000000000125      58.080000000000013      56.320000000000007
    83   1      7.0400000000000125      59.840000000000003      54.560000000000009
    84   1      5.2800000000000082      58.080000000000013      58.080000000000013
    85   1      7.0400000000000125      58.080000000000013      59.840000000000003
    86   1      7.0400000000000125      59.840000000000003      58.080000000000013
    87   1      7.0400000000000125      61.600000000000009      52.800000000000004
    88   1      5.2800000000000082      61.600000000000009      54.560000000000009
    89   1      7.0400000000000125      61.600000000000009      56.320000000000007
    90   1      7.0400000000000125      63.360000000000021      54.560000000000009
    91   1      10.560000000000009      42.240000000000009      51.040000000000006
    92   1      10.560000000000009      42.240000000000009      54.560000000000009
    93   1      10.560000000000009      42.240000000000009      58.080000000000013
    94   1      8.8000000000000114      45.760000000000005      49.280000000000008
    95   1      10.560000000000009      44.000000000000007      49.280000000000008
    96   1      10.560000000000009      45.760000000000005       47.52000000000001
    97   1      8.8000000000000114      45.760000000000005      52.800000000000004
    98   1      10.560000000000009      44.000000000000007      52.800000000000004
    99   1      10.560000000000009      45.760000000000005      51.040000000000006
   100   1      8.8000000000000114      44.000000000000007      54.560000000000009
   101   1      8.8000000000000114      45.760000000000005      56.320000000000007
   102   1      10.560000000000009      44.000000000000007      56.320000000000007
   103   1      10.560000000000009      45.760000000000005      54.560000000000009
   104   1      8.8000000000000114      45.760000000000005      59.840000000000003
   105   1      10.560000000000009      44.000000000000007      59.840000000000003
   106   1      10.560000000000009      45.760000000000005      58.080000000000013
   107   1      10.560000000000009      45.760000000000005      61.600000000000009
   108   1      8.8000000000000114      49.280000000000008      45.760000000000005
   109   1      10.560000000000009       47.52000000000001      45.760000000000005
   110   1      10.560000000000009      49.280000000000008      44.000000000000007
   111   1      8.8000000000000114       47.52000000000001       47.52000000000001
   112   1      8.8000000000000114      49.280000000000008      49.280000000000008
   113   1      10.560000000000009       47.52000000000001      49.280000000000008
   114   1      10.560000000000009      49.280000000000008       47.52000000000001
   115   1      8.8000000000000114       47.52000000000001      51.040000000000006
   116   1      8.8000000000000114      49.280000000000008      52.800000000000004
   117   1      10.560000000000009       47.52000000000001      52.800000000000004
   118   1      10.560000000000009      49.280000000000008      51.040000000000006
   119   1      8.8000000000000114       47.52000000000001      54.560000000000009
   120   1      8.8000000000000114      49.280000000000008      56.320000000000007
   121   1      10.560000000000009       47.52000000000001      56.320000000000007
   122   1      10.560000000000009      49.280000000000008      54.560000000000009
   123   1      8.8000000000000114       47.52000000000001      58.080000000000013
   124   1      8.8000000000000114      49.280000000000008      59.840000000000003
   125   1      10.560000000000009       47.52000000000001      59.840000000000003
   126   1      10.560000000000009      49.280000000000008      58.080000000000013
   127   1      8.8000000000000114       47.52000000000001      61.600000000000009
   128   1      8.8000000000000114      49.280000000000008      63.360000000000021
   129   1      10.560000000000009       47.52000000000001      63.360000000000021
   130   1      10.560000000000009      49.280000000000008      61.600000000000009
   131   1      10.560000000000009      49.280000000000008      65.120000000000005
   132   1      10.560000000000009      51.040000000000006      42.240000000000009
   133   1      8.8000000000000114      52.800000000000004      45.760000000000005
   134   1      10.560000000000009      51.040000000000006      45.760000000000005
   135   1      10.560000000000009      52.800000000000004      44.000000000000007
   136   1      8.8000000000000114      51.040000000000006       47.52000000000001
   137   1      8.8000000000000114      52.800000000000004      49.280000000000008
   138   1      10.560000000000009      51.040000000000006      49.280000000000008
   139   1      10.560000000000009      52.800000000000004       47.52000000000001
   140   1      8.8000000000000114      51.040000000000006      51.040000000000006
   141   1      8.8000000000000114      52.800000000000004      52.800000000000004
   142   1      10.560000000000009      51.040000000000006      52.800000000000004
   143   1      10.560000000000009      52.800000000000004      51.040000000000006
   144   1      8.8000000000000114      51.040000000000006      54.560000000000009
   145   1      8.8000000000000114      52.800000000000004      56.320000000000007
   146   1      10.560000000000009      51.040000000000006      56.320000000000007
   147   1      10.560000000000009      52.800000000000004      54.560000000000009
   148   1      8.8000000000000114      51.040000000000006      58.080000000000013
   149   1      8.8000000000000114      52.800000000000004      59.840000000000003
   150   1      10.560000000000009      51.040000000000006      59.840000000000003
   151   1      10.560000000000009      52.800000000000004      58.080000000000013
   152   1      8.8000000000000114      51.040000000000006      61.600000000000009
   153   1      8.8000000000000114      52.800000000000004      63.360000000000021
   154   1      10.560000000000009      51.040000000000006      63.360000000000021
   155   1      10.560000000000009      52.800000000000004      61.600000000000009
   156   1      10.560000000000009      51.040000000000006       66.88000000000001
   157   1      10.560000000000009      52.800000000000004      65.120000000000005
   158   1      10.560000000000009      54.560000000000009      42.240000000000009
   159   1      8.8000000000000114      54.560000000000009      44.000000000000007
   160   1      8.8000000000000114      56.320000000000007      45.760000000000005
   161   1      10.560000000000009      54.560000000000009      45.760000000000005
   162   1      10.560000000000009      56.320000000000007      44.000000000000007
   163   1      8.8000000000000114      54.560000000000009       47.52000000000001
   164   1      8.8000000000000114      56.320000000000007      49.280000000000008
   165   1      10.560000000000009      54.560000000000009      49.280000000000008
   166   1      10.560000000000009      56.320000000000007       47.52000000000001
   167   1      8.8000000000000114      54.560000000000009      51.040000000000006
   168   1      8.8000000000000114      56.320000000000007      52.800000000000004
   169   1      10.560000000000009      54.560000000000009      52.800000000000004
   170   1      10.560000000000009      56.320000000000007      51.040000000000006
   171   1      8.8000000000000114      54.560000000000009      54.560000000000009
   172   1      8.8000000000000114      56.320000000000007      56.320000000000007
   173   1      10.560000000000009      54.560000000000009      56.320000000000007
   174   1      10.560000000000009      56.320000000000007      54.560000000000009
   175   1      8.8000000000000114      54.560000000000009      58.080000000000013
   176   1      8.8000000000000114      56.320000000000007      59.840000000000003
   177   1      10.560000000000009      54.560000000000009      59.840000000000003
   178   1      10.560000000000009      56.320000000000007      58.080000000000013
   179   1      8.8000000000000114      54.560000000000009      61.600000000000009
   180   1      8.8000000000000114      56.320000000000007      63.360000000000021
   181   1      10.560000000000009      54.560000000000009      63.360000000000021
   182   1      10.560000000000009      56.320000000000007      61.600000000000009
   183   1      8.8000000000000114      54.560000000000009      65.120000000000005
   184   1      10.560000000000009      54.560000000000009       66.88000000000001
   185   1      10.560000000000009      56.320000000000007      65.120000000000005
   186   1      10.560000000000009      58.080000000000013      42.240000000000009
   187   1      8.8000000000000114      59.840000000000003      45.760000000000005
   188   1      10.560000000000009      58.080000000000013      45.760000000000005
   189   1      10.560000000000009      59.840000000000003      44.000000000000007
   190   1      8.8000000000000114      58.080000000000013       47.52000000000001
   191   1      8.8000000000000114      59.840000000000003      49.280000000000008
   192   1      10.560000000000009      58.080000000000013      49.280000000000008
   193   1      10.560000000000009      59.840000000000003       47.52000000000001
   194   1      8.8000000000000114      58.080000000000013      51.040000000000006
   195   1      8.8000000000000114      59.840000000000003      52.800000000000004
   196   1      10.560000000000009      58.080000000000013      52.800000000000004
   197   1      10.560000000000009      59.840000000000003      51.040000000000006
   198   1      8.8000000000000114      58.080000000000013      54.560000000000009
   199   1      8.8000000000000114      59.840000000000003      56.320000000000007
   200   1      10.560000000000009      58.080000000000013      56.320000000000007
   201   1      10.560000000000009      59.840000000000003      54.560000000000009
   202   1      8.8000000000000114      58.080000000000013      58.080000000000013
   203   1      8.8000000000000114      59.840000000000003      59.840000000000003
   204   1      10.560000000000009      58.080000000000013      59.840000000000003
   205   1      10.560000000000009      59.840000000000003      58.080000000000013
   206   1      8.8000000000000114      58.080000000000013      61.600000000000009
   207   1      8.8000000000000114      59.840000000000003      63.360000000000021
   208   1      10.560000000000009      58.080000000000013      63.360000000000021
   209   1      10.560000000000009      59.840000000000003      61.600000000000009
   210   1      10.560000000000009      58.080000000000013       66.88000000000001
   211   1      10.560000000000009      59.840000000000003      65.120000000000005
   212   1      10.560000000000009      61.600000000000009      45.760000000000005
   213   1      8.8000000000000114      61.600000000000009       47.52000000000001
   214   1      8.8000000000000114      63.360000000000021      49.280000000000008
   215   1      10.560000000000009      61.600000000000009      49.280000000000008
   216   1      10.560000000000009      63.360000000000021       47.52000000000001
   217   1      8.8000000000000114      61.600000000000009      51.040000000000006
   218   1      8.8000000000000114      63.360000000000021      52.800000000000004
   219   1      10.560000000000009      61.600000000000009      52.800000000000004
   220   1      10.560000000000009      63.360000000000021      51.040000000000006
   221   1      8.8000000000000114      61.600000000000009      54.560000000000009
   222   1      8.8000000000000114      63.360000000000021      56.320000000000007
   223   1      10.560000000000009      61.600000000000009      56.320000000000007
   224   1      10.560000000000009      63.360000000000021      54.560000000000009
   225   1      8.8000000000000114      61.600000000000009      58.080000000000013
   226   1      8.8000000000000114      63.360000000000021      59.840000000000003
   227   1      10.560000000000009      61.600000000000009      59.840000000000003
   228   1      10.560000000000009      63.360000000000021      58.080000000000013
   229   1      8.8000000000000114      61.600000000000009      61.600000000000009
   230   1      10.560000000000009      61.600000000000009      63.360000000000021
   231   1      10.560000000000009      63.360000000000021      61.600000000000009
   232   1      10.560000000000009      65.120000000000005      49.280000000000008
   233   1      10.560000000000009      65.120000000000005      52.800000000000004
   234   1      10.560000000000009       66.88000000000001      51.040000000000006
   235   1      8.8000000000000114      65.120000000000005      54.560000000000009
   236   1      10.560000000000009      65.120000000000005      56.320000000000007
   237   1      10.560000000000009       66.88000000000001      54.560000000000009
   238   1      10.560000000000009      65.120000000000005      59.840000000000003
   239   1      10.560000000000009       66.88000000000001      58.080000000000013
   240   1      14.080000000000004       35.20000000000001      54.560000000000009
   241   1      12.320000000000007      38.720000000000006      52.800000000000004
   242   1      14.080000000000004      36.960000000000008      52.800000000000004
   243   1      14.080000000000004      38.720000000000006      51.040000000000006
   244   1      12.320000000000007      38.720000000000006      56.320000000000007
   245   1      14.080000000000004      36.960000000000008      56.320000000000007
   246   1      14.080000000000004      38.720000000000006      54.560000000000009
   247   1      14.080000000000004      38.720000000000006      58.080000000000013
   248   1      12.320000000000007      42.240000000000009      49.280000000000008
   249   1      14.080000000000004      40.480000000000011      49.280000000000008
   250   1      14.080000000000004      42.240000000000009       47.52000000000001
   251   1      12.320000000000007      40.480000000000011      51.040000000000006
   252   1      12.320000000000007      42.240000000000009      52.800000000000004
   253   1      14.080000000000004      40.480000000000011      52.800000000000004
   254   1      14.080000000000004      42.240000000000009      51.040000000000006
   255   1      12.320000000000007      40.480000000000011      54.560000000000009
   256   1      12.320000000000007      42.240000000000009      56.320000000000007
   257   1      14.080000000000004      40.480000000000011      56.320000000000007
   258   1      14.080000000000004      42.240000000000009      54.560000000000009
   259   1      12.320000000000007      40.480000000000011      58.080000000000013
   260   1      12.320000000000007      42.240000000000009      59.840000000000003
   261   1      14.080000000000004      40.480000000000011      59.840000000000003
   262   1      14.080000000000004      42.240000000000009      58.080000000000013
   263   1      14.080000000000004      42.240000000000009      61.600000000000009
   264   1      12.320000000000007      45.760000000000005      45.760000000000005
   265   1      14.080000000000004      44.000000000000007      45.760000000000005
   266   1      14.080000000000004      45.760000000000005      44.000000000000007
   267   1      12.320000000000007      44.000000000000007       47.52000000000001
   268   1      12.320000000000007      45.760000000000005      49.280000000000008
   269   1      14.080000000000004      44.000000000000007      49.280000000000008
   270   1      14.080000000000004      45.760000000000005       47.52000000000001
   271   1      12.320000000000007      44.000000000000007      51.040000000000006
   272   1      12.320000000000007      45.760000000000005      52.800000000000004
   273   1      14.080000000000004      44.000000000000007      52.800000000000004
   274   1      14.080000000000004      45.760000000000005      51.040000000000006
   275   1      12.320000000000007      44.000000000000007      54.560000000000009
   276   1      12.320000000000007      45.760000000000005      56.320000000000007
   277   1      14.080000000000004      44.000000000000007      56.320000000000007
   278   1      14.080000000000004      45.760000000000005      54.560000000000009
   279   1      12.320000000000007      44.000000000000007      58.080000000000013
   280   1      12.320000000000007      45.760000000000005      59.840000000000003
   281   1      14.080000000000004      44.000000000000007      59.840000000000003
   282   1      14.080000000000004      45.760000000000005      58.080000000000013
   283   1      12.320000000000007      44.000000000000007      61.600000000000009
   284   1      12.320000000000007      45.760000000000005      63.360000000000021
   285   1      14.080000000000004      44.000000000000007      63.360000000000021
   286   1      14.080000000000004      45.760000000000005      61.600000000000009
   287   1      14.080000000000004      45.760000000000005      65.120000000000005
   288   1      12.320000000000007      49.280000000000008      42.240000000000009
   289   1      14.080000000000004       47.52000000000001      42.240000000000009
   290   1      14.080000000000004      49.280000000000008      40.480000000000011
   291   1      12.320000000000007       47.52000000000001      44.000000000000007
   292   1      12.320000000000007      49.280000000000008      45.760000000000005
   293   1      14.080000000000004       47.52000000000001      45.760000000000005
   294   1      14.080000000000004      49.280000000000008      44.000000000000007
   295   1      12.320000000000007       47.52000000000001       47.52000000000001
   296   1      12.320000000000007      49.280000000000008      49.280000000000008
   297   1      14.080000000000004       47.52000000000001      49.280000000000008
   298   1      14.080000000000004      49.280000000000008       47.52000000000001
   299   1      12.320000000000007       47.52000000000001      51.040000000000006
   300   1      12.320000000000007      49.280000000000008      52.800000000000004
   301   1      14.080000000000004       47.52000000000001      52.800000000000004
   302   1      14.080000000000004      49.280000000000008      51.040000000000006
   303   1      12.320000000000007       47.52000000000001      54.560000000000009
   304   1      12.320000000000007      49.280000000000008      56.320000000000007
   305   1      14.080000000000004       47.52000000000001      56.320000000000007
   306   1      14.080000000000004      49.280000000000008      54.560000000000009
   307   1      12.320000000000007       47.52000000000001      58.080000000000013
   308   1      12.320000000000007      49.280000000000008      59.840000000000003
   309   1      14.080000000000004       47.52000000000001      59.840000000000003
   310   1      14.080000000000004      49.280000000000008      58.080000000000013
   311   1      12.320000000000007       47.52000000000001      61.600000000000009
   312   1      12.320000000000007      49.280000000000008      63.360000000000021
   313   1      14.080000000000004       47.52000000000001      63.360000000000021
   314   1      14.080000000000004      49.280000000000008      61.600000000000009
   315   1      12.320000000000007       47.52000000000001      65.120000000000005
   316   1      12.320000000000007      49.280000000000008       66.88000000000001
   317   1      14.080000000000004       47.52000000000001       66.88000000000001
   318   1      14.080000000000004      49.280000000000008      65.120000000000005
   319   1      14.080000000000004      49.280000000000008      68.640000000000015
   320   1      12.320000000000007      52.800000000000004      38.720000000000006
   321   1      14.080000000000004      51.040000000000006      38.720000000000006
   322   1      14.080000000000004      52.800000000000004      36.960000000000008
   323   1      12.320000000000007      51.040000000000006      40.480000000000011
   324   1      12.320000000000007      52.800000000000004      42.240000000000009
   325   1      14.080000000000004      51.040000000000006      42.240000000000009
   326   1      14.080000000000004      52.800000000000004      40.480000000000011
   327   1      12.320000000000007      51.040000000000006      44.000000000000007
   328   1      12.320000000000007      52.800000000000004      45.760000000000005
   329   1      14.080000000000004      51.040000000000006      45.760000000000005
   330   1      14.080000000000004      52.800000000000004      44.000000000000007
   331   1      12.320000000000007      51.040000000000006       47.52000000000001
   332   1      12.320000000000007      52.800000000000004      49.280000000000008
   333   1      14.080000000000004      51.040000000000006      49.280000000000008
   334   1      14.080000000000004      52.800000000000004       47.52000000000001
   335   1      12.320000000000007      51.040000000000006      51.040000000000006
   336   1      12.320000000000007      52.800000000000004      52.800000000000004
   337   1      14.080000000000004      51.040000000000006      52.800000000000004
   338   1      14.080000000000004      52.800000000000004      51.040000000000006
   339   1      12.320000000000007      51.040000000000006      54.560000000000009
   340   1      12.320000000000007      52.800000000000004      56.320000000000007
   341   1      14.080000000000004      51.040000000000006      56.320000000000007
   342   1      14.080000000000004      52.800000000000004      54.560000000000009
   343   1      12.320000000000007      51.040000000000006      58.080000000000013
   344   1      12.320000000000007      52.800000000000004      59.840000000000003
   345   1      14.080000000000004      51.040000000000006      59.840000000000003
   346   1      14.080000000000004      52.800000000000004      58.080000000000013
   347   1      12.320000000000007      51.040000000000006      61.600000000000009
   348   1      12.320000000000007      52.800000000000004      63.360000000000021
   349   1      14.080000000000004      51.040000000000006      63.360000000000021
   350   1      14.080000000000004      52.800000000000004      61.600000000000009
   351   1      12.320000000000007      51.040000000000006      65.120000000000005
   352   1      12.320000000000007      52.800000000000004       66.88000000000001
   353   1      14.080000000000004      51.040000000000006       66.88000000000001
   354   1      14.080000000000004      52.800000000000004      65.120000000000005
   355   1      12.320000000000007      51.040000000000006      68.640000000000015
   356   1      12.320000000000007      52.800000000000004       70.40000000000002
   357   1      14.080000000000004      51.040000000000006       70.40000000000002
   358   1      14.080000000000004      52.800000000000004      68.640000000000015