model_files/Fe/Fe_30000/Fe_320/data.Fe_320_bcc_29879 (written by ASE) 

29879 	 atoms 
1  atom types
0.0                      74  xlo xhi
0.0                      74  ylo yhi
0.0                      74  zlo zhi


Atoms 

     1   1      1.4350000000000094       33.00500000000001      34.440000000000005
     2   1      1.4350000000000094       33.00500000000001      37.310000000000002
     3   1      1.4350000000000094       33.00500000000001      40.180000000000007
     4   1      1.4350000000000094      34.440000000000005       33.00500000000001
     5   1  7.1054273576010019e-15      34.440000000000005      34.440000000000005
     6   1  7.1054273576010019e-15      35.875000000000007      35.875000000000007
     7   1      1.4350000000000094      34.440000000000005      35.875000000000007
     8   1      1.4350000000000094      35.875000000000007      34.440000000000005
     9   1  7.1054273576010019e-15      34.440000000000005      37.310000000000002
    10   1  7.1054273576010019e-15      35.875000000000007      38.745000000000005
    11   1      1.4350000000000094      34.440000000000005      38.745000000000005
    12   1      1.4350000000000094      35.875000000000007      37.310000000000002
    13   1  7.1054273576010019e-15      34.440000000000005      40.180000000000007
    14   1      1.4350000000000094      34.440000000000005      41.615000000000009
    15   1      1.4350000000000094      35.875000000000007      40.180000000000007
    16   1      1.4350000000000094      37.310000000000002       33.00500000000001
    17   1  7.1054273576010019e-15      37.310000000000002      34.440000000000005
    18   1  7.1054273576010019e-15      38.745000000000005      35.875000000000007
    19   1      1.4350000000000094      37.310000000000002      35.875000000000007
    20   1      1.4350000000000094      38.745000000000005      34.440000000000005
    21   1  7.1054273576010019e-15      37.310000000000002      37.310000000000002
    22   1  7.1054273576010019e-15      38.745000000000005      38.745000000000005
    23   1      1.4350000000000094      37.310000000000002      38.745000000000005
    24   1      1.4350000000000094      38.745000000000005      37.310000000000002
    25   1  7.1054273576010019e-15      37.310000000000002      40.180000000000007
    26   1      1.4350000000000094      37.310000000000002      41.615000000000009
    27   1      1.4350000000000094      38.745000000000005      40.180000000000007
    28   1      1.4350000000000094      40.180000000000007       33.00500000000001
    29   1  7.1054273576010019e-15      40.180000000000007      34.440000000000005
    30   1      1.4350000000000094      40.180000000000007      35.875000000000007
    31   1      1.4350000000000094      41.615000000000009      34.440000000000005
    32   1  7.1054273576010019e-15      40.180000000000007      37.310000000000002
    33   1      1.4350000000000094      40.180000000000007      38.745000000000005
    34   1      1.4350000000000094      41.615000000000009      37.310000000000002
    35   1  7.1054273576010019e-15      40.180000000000007      40.180000000000007
    36   1      1.4350000000000094      40.180000000000007      41.615000000000009
    37   1      1.4350000000000094      41.615000000000009      40.180000000000007
    38   1      2.8700000000000117      30.135000000000005      30.135000000000005
    39   1      4.3050000000000068      28.700000000000006      30.135000000000005
    40   1      4.3050000000000068      30.135000000000005      28.700000000000006
    41   1      2.8700000000000117      30.135000000000005       33.00500000000001
    42   1      4.3050000000000068      28.700000000000006       33.00500000000001
    43   1      4.3050000000000068      30.135000000000005      31.570000000000011
    44   1      2.8700000000000117      30.135000000000005      35.875000000000007
    45   1      4.3050000000000068      28.700000000000006      35.875000000000007
    46   1      4.3050000000000068      30.135000000000005      34.440000000000005
    47   1      2.8700000000000117      30.135000000000005      38.745000000000005
    48   1      4.3050000000000068      28.700000000000006      38.745000000000005
    49   1      4.3050000000000068      30.135000000000005      37.310000000000002
    50   1      2.8700000000000117      30.135000000000005      41.615000000000009
    51   1      4.3050000000000068      28.700000000000006      41.615000000000009
    52   1      4.3050000000000068      30.135000000000005      40.180000000000007
    53   1      2.8700000000000117      30.135000000000005      44.485000000000014
    54   1      4.3050000000000068      28.700000000000006      44.485000000000014
    55   1      4.3050000000000068      30.135000000000005      43.050000000000011
    56   1      4.3050000000000068      30.135000000000005      45.920000000000009
    57   1      2.8700000000000117       33.00500000000001      30.135000000000005
    58   1      4.3050000000000068      31.570000000000011      30.135000000000005
    59   1      4.3050000000000068       33.00500000000001      28.700000000000006
    60   1      2.8700000000000117      31.570000000000011      31.570000000000011
    61   1      2.8700000000000117       33.00500000000001       33.00500000000001
    62   1      4.3050000000000068      31.570000000000011       33.00500000000001
    63   1      4.3050000000000068       33.00500000000001      31.570000000000011
    64   1      2.8700000000000117      31.570000000000011      34.440000000000005
    65   1      2.8700000000000117       33.00500000000001      35.875000000000007
    66   1      4.3050000000000068      31.570000000000011      35.875000000000007
    67   1      4.3050000000000068       33.00500000000001      34.440000000000005
    68   1      2.8700000000000117      31.570000000000011      37.310000000000002
    69   1      2.8700000000000117       33.00500000000001      38.745000000000005
    70   1      4.3050000000000068      31.570000000000011      38.745000000000005
    71   1      4.3050000000000068       33.00500000000001      37.310000000000002
    72   1      2.8700000000000117      31.570000000000011      40.180000000000007
    73   1      2.8700000000000117       33.00500000000001      41.615000000000009
    74   1      4.3050000000000068      31.570000000000011      41.615000000000009
    75   1      4.3050000000000068       33.00500000000001      40.180000000000007
    76   1      2.8700000000000117      31.570000000000011      43.050000000000011
    77   1      2.8700000000000117       33.00500000000001      44.485000000000014
    78   1      4.3050000000000068      31.570000000000011      44.485000000000014
    79   1      4.3050000000000068       33.00500000000001      43.050000000000011
    80   1      4.3050000000000068       33.00500000000001      45.920000000000009
    81   1      2.8700000000000117      35.875000000000007      30.135000000000005
    82   1      4.3050000000000068      34.440000000000005      30.135000000000005
    83   1      4.3050000000000068      35.875000000000007      28.700000000000006
    84   1      2.8700000000000117      34.440000000000005      31.570000000000011
    85   1      2.8700000000000117      35.875000000000007       33.00500000000001
    86   1      4.3050000000000068      34.440000000000005       33.00500000000001
    87   1      4.3050000000000068      35.875000000000007      31.570000000000011
    88   1      2.8700000000000117      34.440000000000005      34.440000000000005
    89   1      2.8700000000000117      35.875000000000007      35.875000000000007
    90   1      4.3050000000000068      34.440000000000005      35.875000000000007
    91   1      4.3050000000000068      35.875000000000007      34.440000000000005
    92   1      2.8700000000000117      34.440000000000005      37.310000000000002
    93   1      2.8700000000000117      35.875000000000007      38.745000000000005
    94   1      4.3050000000000068      34.440000000000005      38.745000000000005
    95   1      4.3050000000000068      35.875000000000007      37.310000000000002
    96   1      2.8700000000000117      34.440000000000005      40.180000000000007
    97   1      2.8700000000000117      35.875000000000007      41.615000000000009
    98   1      4.3050000000000068      34.440000000000005      41.615000000000009
    99   1      4.3050000000000068      35.875000000000007      40.180000000000007
   100   1      2.8700000000000117      34.440000000000005      43.050000000000011
   101   1      2.8700000000000117      35.875000000000007      44.485000000000014
   102   1      4.3050000000000068      34.440000000000005      44.485000000000014
   103   1      4.3050000000000068      35.875000000000007      43.050000000000011
   104   1      4.3050000000000068      35.875000000000007      45.920000000000009
   105   1      2.8700000000000117      38.745000000000005      30.135000000000005
   106   1      4.3050000000000068      37.310000000000002      30.135000000000005
   107   1      4.3050000000000068      38.745000000000005      28.700000000000006
   108   1      2.8700000000000117      37.310000000000002      31.570000000000011
   109   1      2.8700000000000117      38.745000000000005       33.00500000000001
   110   1      4.3050000000000068      37.310000000000002       33.00500000000001
   111   1      4.3050000000000068      38.745000000000005      31.570000000000011
   112   1      2.8700000000000117      37.310000000000002      34.440000000000005
   113   1      2.8700000000000117      38.745000000000005      35.875000000000007
   114   1      4.3050000000000068      37.310000000000002      35.875000000000007
   115   1      4.3050000000000068      38.745000000000005      34.440000000000005
   116   1      2.8700000000000117      37.310000000000002      37.310000000000002
   117   1      2.8700000000000117      38.745000000000005      38.745000000000005
   118   1      4.3050000000000068      37.310000000000002      38.745000000000005
   119   1      4.3050000000000068      38.745000000000005      37.310000000000002
   120   1      2.8700000000000117      37.310000000000002      40.180000000000007
   121   1      2.8700000000000117      38.745000000000005      41.615000000000009
   122   1      4.3050000000000068      37.310000000000002      41.615000000000009
   123   1      4.3050000000000068      38.745000000000005      40.180000000000007
   124   1      2.8700000000000117      37.310000000000002      43.050000000000011
   125   1      2.8700000000000117      38.745000000000005      44.485000000000014
   126   1      4.3050000000000068      37.310000000000002      44.485000000000014
   127   1      4.3050000000000068      38.745000000000005      43.050000000000011
   128   1      4.3050000000000068      38.745000000000005      45.920000000000009
   129   1      2.8700000000000117      41.615000000000009      30.135000000000005
   130   1      4.3050000000000068      40.180000000000007      30.135000000000005
   131   1      4.3050000000000068      41.615000000000009      28.700000000000006
   132   1      2.8700000000000117      40.180000000000007      31.570000000000011
   133   1      2.8700000000000117      41.615000000000009       33.00500000000001
   134   1      4.3050000000000068      40.180000000000007       33.00500000000001
   135   1      4.3050000000000068      41.615000000000009      31.570000000000011
   136   1      2.8700000000000117      40.180000000000007      34.440000000000005
   137   1      2.8700000000000117      41.615000000000009      35.875000000000007
   138   1      4.3050000000000068      40.180000000000007      35.875000000000007
   139   1      4.3050000000000068      41.615000000000009      34.440000000000005
   140   1      2.8700000000000117      40.180000000000007      37.310000000000002
   141   1      2.8700000000000117      41.615000000000009      38.745000000000005
   142   1      4.3050000000000068      40.180000000000007      38.745000000000005
   143   1      4.3050000000000068      41.615000000000009      37.310000000000002
   144   1      2.8700000000000117      40.180000000000007      40.180000000000007
   145   1      2.8700000000000117      41.615000000000009      41.615000000000009
   146   1      4.3050000000000068      40.180000000000007      41.615000000000009
   147   1      4.3050000000000068      41.615000000000009      40.180000000000007
   148   1      2.8700000000000117      40.180000000000007      43.050000000000011
   149   1      2.8700000000000117      41.615000000000009      44.485000000000014
   150   1      4.3050000000000068      40.180000000000007      44.485000000000014
   151   1      4.3050000000000068      41.615000000000009      43.050000000000011
   152   1      4.3050000000000068      41.615000000000009      45.920000000000009
   153   1      2.8700000000000117      44.485000000000014      30.135000000000005
   154   1      4.3050000000000068      43.050000000000011      30.135000000000005
   155   1      4.3050000000000068      44.485000000000014      28.700000000000006
   156   1      2.8700000000000117      43.050000000000011      31.570000000000011
   157   1      2.8700000000000117      44.485000000000014       33.00500000000001
   158   1      4.3050000000000068      43.050000000000011       33.00500000000001
   159   1      4.3050000000000068      44.485000000000014      31.570000000000011
   160   1      2.8700000000000117      43.050000000000011      34.440000000000005
   161   1      2.8700000000000117      44.485000000000014      35.875000000000007
   162   1      4.3050000000000068      43.050000000000011      35.875000000000007
   163   1      4.3050000000000068      44.485000000000014      34.440000000000005
   164   1      2.8700000000000117      43.050000000000011      37.310000000000002
   165   1      2.8700000000000117      44.485000000000014      38.745000000000005
   166   1      4.3050000000000068      43.050000000000011      38.745000000000005
   167   1      4.3050000000000068      44.485000000000014      37.310000000000002
   168   1      2.8700000000000117      43.050000000000011      40.180000000000007
   169   1      2.8700000000000117      44.485000000000014      41.615000000000009
   170   1      4.3050000000000068      43.050000000000011      41.615000000000009
   171   1      4.3050000000000068      44.485000000000014      40.180000000000007
   172   1      2.8700000000000117      43.050000000000011      43.050000000000011
   173   1      2.8700000000000117      44.485000000000014      44.485000000000014
   174   1      4.3050000000000068      43.050000000000011      44.485000000000014
   175   1      4.3050000000000068      44.485000000000014      43.050000000000011
   176   1      4.3050000000000068      44.485000000000014      45.920000000000009
   177   1      4.3050000000000068      45.920000000000009      30.135000000000005
   178   1      4.3050000000000068      45.920000000000009       33.00500000000001
   179   1      4.3050000000000068      45.920000000000009      35.875000000000007
   180   1      4.3050000000000068      45.920000000000009      38.745000000000005
   181   1      4.3050000000000068      45.920000000000009      41.615000000000009
   182   1      4.3050000000000068      45.920000000000009      44.485000000000014
   183   1      7.1750000000000123      24.395000000000007      25.830000000000009
   184   1      7.1750000000000123      24.395000000000007      28.700000000000006
   185   1      7.1750000000000123      24.395000000000007      31.570000000000011
   186   1      7.1750000000000123      24.395000000000007      34.440000000000005
   187   1      7.1750000000000123      24.395000000000007      37.310000000000002
   188   1      7.1750000000000123      24.395000000000007      40.180000000000007
   189   1      7.1750000000000123      24.395000000000007      43.050000000000011
   190   1      7.1750000000000123      24.395000000000007      45.920000000000009
   191   1      7.1750000000000123      24.395000000000007      48.790000000000006
   192   1      7.1750000000000123      25.830000000000009      24.395000000000007
   193   1      5.7400000000000091      25.830000000000009      25.830000000000009
   194   1      5.7400000000000091      27.265000000000008      27.265000000000008
   195   1      7.1750000000000123      25.830000000000009      27.265000000000008
   196   1      7.1750000000000123      27.265000000000008      25.830000000000009
   197   1      5.7400000000000091      25.830000000000009      28.700000000000006
   198   1      5.7400000000000091      27.265000000000008      30.135000000000005
   199   1      7.1750000000000123      25.830000000000009      30.135000000000005
   200   1      7.1750000000000123      27.265000000000008      28.700000000000006
   201   1      5.7400000000000091      25.830000000000009      31.570000000000011
   202   1      5.7400000000000091      27.265000000000008       33.00500000000001
   203   1      7.1750000000000123      25.830000000000009       33.00500000000001
   204   1      7.1750000000000123      27.265000000000008      31.570000000000011
   205   1      5.7400000000000091      25.830000000000009      34.440000000000005
   206   1      5.7400000000000091      27.265000000000008      35.875000000000007
   207   1      7.1750000000000123      25.830000000000009      35.875000000000007
   208   1      7.1750000000000123      27.265000000000008      34.440000000000005
   209   1      5.7400000000000091      25.830000000000009      37.310000000000002
   210   1      5.7400000000000091      27.265000000000008      38.745000000000005
   211   1      7.1750000000000123      25.830000000000009      38.745000000000005
   212   1      7.1750000000000123      27.265000000000008      37.310000000000002
   213   1      5.7400000000000091      25.830000000000009      40.180000000000007
   214   1      5.7400000000000091      27.265000000000008      41.615000000000009
   215   1      7.1750000000000123      25.830000000000009      41.615000000000009
   216   1      7.1750000000000123      27.265000000000008      40.180000000000007
   217   1      5.7400000000000091      25.830000000000009      43.050000000000011
   218   1      5.7400000000000091      27.265000000000008      44.485000000000014
   219   1      7.1750000000000123      25.830000000000009      44.485000000000014
   220   1      7.1750000000000123      27.265000000000008      43.050000000000011
   221   1      5.7400000000000091      25.830000000000009      45.920000000000009
   222   1      5.7400000000000091      27.265000000000008      47.355000000000004
   223   1      7.1750000000000123      25.830000000000009      47.355000000000004
   224   1      7.1750000000000123      27.265000000000008      45.920000000000009
   225   1      5.7400000000000091      25.830000000000009      48.790000000000006
   226   1      7.1750000000000123      25.830000000000009      50.225000000000009
   227   1      7.1750000000000123      27.265000000000008      48.790000000000006
   228   1      7.1750000000000123      28.700000000000006      24.395000000000007
   229   1      5.7400000000000091      28.700000000000006      25.830000000000009
   230   1      5.7400000000000091      30.135000000000005      27.265000000000008
   231   1      7.1750000000000123      28.700000000000006      27.265000000000008
   232   1      7.1750000000000123      30.135000000000005      25.830000000000009
   233   1      5.7400000000000091      28.700000000000006      28.700000000000006
   234   1      5.7400000000000091      30.135000000000005      30.135000000000005
   235   1      7.1750000000000123      28.700000000000006      30.135000000000005
   236   1      7.1750000000000123      30.135000000000005      28.700000000000006
   237   1      5.7400000000000091      28.700000000000006      31.570000000000011
   238   1      5.7400000000000091      30.135000000000005       33.00500000000001
   239   1      7.1750000000000123      28.700000000000006       33.00500000000001
   240   1      7.1750000000000123      30.135000000000005      31.570000000000011
   241   1      5.7400000000000091      28.700000000000006      34.440000000000005
   242   1      5.7400000000000091      30.135000000000005      35.875000000000007
   243   1      7.1750000000000123      28.700000000000006      35.875000000000007
   244   1      7.1750000000000123      30.135000000000005      34.440000000000005
   245   1      5.7400000000000091      28.700000000000006      37.310000000000002
   246   1      5.7400000000000091      30.135000000000005      38.745000000000005
   247   1      7.1750000000000123      28.700000000000006      38.745000000000005
   248   1      7.1750000000000123      30.135000000000005      37.310000000000002
   249   1      5.7400000000000091      28.700000000000006      40.180000000000007
   250   1      5.7400000000000091      30.135000000000005      41.615000000000009
   251   1      7.1750000000000123      28.700000000000006      41.615000000000009
   252   1      7.1750000000000123      30.135000000000005      40.180000000000007
   253   1      5.7400000000000091      28.700000000000006      43.050000000000011
   254   1      5.7400000000000091      30.135000000000005      44.485000000000014
   255   1      7.1750000000000123      28.700000000000006      44.485000000000014
   256   1      7.1750000000000123      30.135000000000005      43.050000000000011
   257   1      5.7400000000000091      28.700000000000006      45.920000000000009
   258   1      5.7400000000000091      30.135000000000005      47.355000000000004
   259   1      7.1750000000000123      28.700000000000006      47.355000000000004
   260   1      7.1750000000000123      30.135000000000005      45.920000000000009
   261   1      5.7400000000000091      28.700000000000006      48.790000000000006
   262   1      7.1750000000000123      28.700000000000006      50.225000000000009
   263   1      7.1750000000000123      30.135000000000005      48.790000000000006
   264   1      7.1750000000000123      31.570000000000011      24.395000000000007
   265   1      5.7400000000000091      31.570000000000011      25.830000000000009
   266   1      5.7400000000000091       33.00500000000001      27.265000000000008
   267   1      7.1750000000000123      31.570000000000011      27.265000000000008
   268   1      7.1750000000000123       33.00500000000001      25.830000000000009
   269   1      5.7400000000000091      31.570000000000011      28.700000000000006
   270   1      5.7400000000000091       33.00500000000001      30.135000000000005
   271   1      7.1750000000000123      31.570000000000011      30.135000000000005
   272   1      7.1750000000000123       33.00500000000001      28.700000000000006
   273   1      5.7400000000000091      31.570000000000011      31.570000000000011
   274   1      5.7400000000000091       33.00500000000001       33.00500000000001
   275   1      7.1750000000000123      31.570000000000011       33.00500000000001
   276   1      7.1750000000000123       33.00500000000001      31.570000000000011
   277   1      5.7400000000000091      31.570000000000011      34.440000000000005
   278   1      5.7400000000000091       33.00500000000001      35.875000000000007
   279   1      7.1750000000000123      31.570000000000011      35.875000000000007
   280   1      7.1750000000000123       33.00500000000001      34.440000000000005
   281   1      5.7400000000000091      31.570000000000011      37.310000000000002
   282   1      5.7400000000000091       33.00500000000001      38.745000000000005
   283   1      7.1750000000000123      31.570000000000011      38.745000000000005
   284   1      7.1750000000000123       33.00500000000001      37.310000000000002
   285   1      5.7400000000000091      31.570000000000011      40.180000000000007
   286   1      5.7400000000000091       33.00500000000001      41.615000000000009
   287   1      7.1750000000000123      31.570000000000011      41.615000000000009
   288   1      7.1750000000000123       33.00500000000001      40.180000000000007
   289   1      5.7400000000000091      31.570000000000011      43.050000000000011
   290   1      5.7400000000000091       33.00500000000001      44.485000000000014
   291   1      7.1750000000000123      31.570000000000011      44.485000000000014
   292   1      7.1750000000000123       33.00500000000001      43.050000000000011
   293   1      5.7400000000000091      31.570000000000011      45.920000000000009
   294   1      5.7400000000000091       33.00500000000001      47.355000000000004
   295   1      7.1750000000000123      31.570000000000011      47.355000000000004
   296   1      7.1750000000000123       33.00500000000001      45.920000000000009
   297   1      5.7400000000000091      31.570000000000011      48.790000000000006
   298   1      7.1750000000000123      31.570000000000011      50.225000000000009
   299   1      7.1750000000000123       33.00500000000001      48.790000000000006
   300   1      7.1750000000000123      34.440000000000005      24.395000000000007
   301   1      5.7400000000000091      34.440000000000005      25.830000000000009
   302   1      5.7400000000000091      35.875000000000007      27.265000000000008
   303   1      7.1750000000000123      34.440000000000005      27.265000000000008
   304   1      7.1750000000000123      35.875000000000007      25.830000000000009
   305   1      5.7400000000000091      34.440000000000005      28.700000000000006
   306   1      5.7400000000000091      35.875000000000007      30.135000000000005
   307   1      7.1750000000000123      34.440000000000005      30.135000000000005
   308   1      7.1750000000000123      35.875000000000007      28.700000000000006
   309   1      5.7400000000000091      34.440000000000005      31.570000000000011
   310   1      5.7400000000000091      35.875000000000007       33.00500000000001
   311   1      7.1750000000000123      34.440000000000005       33.00500000000001
   312   1      7.1750000000000123      35.875000000000007      31.570000000000011
   313   1      5.7400000000000091      34.440000000000005      34.440000000000005
   314   1      5.7400000000000091      35.875000000000007      35.875000000000007
   315   1      7.1750000000000123      34.440000000000005      35.875000000000007
   316   1      7.1750000000000123      35.875000000000007      34.440000000000005
   317   1      5.7400000000000091      34.440000000000005      37.310000000000002
   318   1      5.7400000000000091      35.875000000000007      38.745000000000005
   319   1      7.1750000000000123      34.440000000000005      38.745000000000005
   320   1      7.1750000000000123      35.875000000000007      37.310000000000002
   321   1      5.7400000000000091      34.440000000000005      40.180000000000007
   322   1      5.7400000000000091      35.875000000000007      41.615000000000009
   323   1      7.1750000000000123      34.440000000000005      41.615000000000009
   324   1      7.1750000000000123      35.875000000000007      40.180000000000007
   325   1      5.7400000000000091      34.440000000000005      43.050000000000011
   326   1      5.7400000000000091      35.875000000000007      44.485000000000014
   327   1      7.1750000000000123      34.440000000000005      44.485000000000014
   328   1      7.1750000000000123      35.875000000000007      43.050000000000011
   329   1      5.7400000000000091      34.440000000000005      45.920000000000009
   330   1      5.7400000000000091      35.875000000000007      47.355000000000004
   331   1      7.1750000000000123      34.440000000000005      47.355000000000004
   332   1      7.1750000000000123      35.875000000000007      45.920000000000009
   333   1      5.7400000000000091      34.440000000000005      48.790000000000006
   334   1      7.1750000000000123      34.440000000000005      50.225000000000009
   335   1      7.1750000000000123      35.875000000000007      48.790000000000006
   336   1      7.1750000000000123      37.310000000000002      24.395000000000007
   337   1      5.7400000000000091      37.310000000000002      25.830000000000009
   338   1      5.7400000000000091      38.745000000000005      27.265000000000008
   339   1      7.1750000000000123      37.310000000000002      27.265000000000008
   340   1      7.1750000000000123      38.745000000000005      25.830000000000009
   341   1      5.7400000000000091      37.310000000000002      28.700000000000006
   342   1      5.7400000000000091      38.745000000000005      30.135000000000005
   343   1      7.1750000000000123      37.310000000000002      30.135000000000005
   344   1      7.1750000000000123      38.745000000000005      28.700000000000006
   345   1      5.7400000000000091      37.310000000000002      31.570000000000011
   346   1      5.7400000000000091      38.745000000000005       33.00500000000001
   347   1      7.1750000000000123      37.310000000000002       33.00500000000001
   348   1      7.1750000000000123      38.745000000000005      31.570000000000011
   349   1      5.7400000000000091      37.310000000000002      34.440000000000005
   350   1      5.7400000000000091      38.745000000000005      35.875000000000007
   351   1      7.1750000000000123      37.310000000000002      35.875000000000007
   352   1      7.1750000000000123      38.745000000000005      34.440000000000005
   353   1      5.7400000000000091      37.310000000000002      37.310000000000002
   354   1      5.7400000000000091      38.745000000000005      38.745000000000005
   355   1      7.1750000000000123      37.310000000000002      38.745000000000005
   356   1      7.1750000000000123      38.745000000000005      37.310000000000002
   357   1      5.7400000000000091      37.310000000000002      40.180000000000007
   358   1      5.7400000000000091      38.745000000000005      41.615000000000009