model_files/PtFe/PtFe_30000/PtFe_321/PtFe_321_fcc_29817_temp.data (written by ASE) 

29817 	 atoms 
2  atom types
0.0                     107  xlo xhi
0.0                     107  ylo yhi
0.0                     107  zlo zhi


Atoms 

     1   1      1.8799999999999955      46.999999999999986      52.639999999999986
     2   1      106.99999999999999      50.759999999999998      50.759999999999998
     3   1      1.8799999999999955      48.879999999999995      50.759999999999998
     4   1      1.8799999999999955      50.759999999999998      48.879999999999995
     5   1      106.99999999999999      50.759999999999998      54.519999999999989
     6   1      1.8799999999999955      48.879999999999995      54.519999999999989
     7   1      1.8799999999999955      50.759999999999998      52.639999999999986
     8   1      1.8799999999999955      50.759999999999998      56.399999999999984
     9   1      1.8799999999999955      52.639999999999986      46.999999999999986
    10   1      106.99999999999999      54.519999999999989      50.759999999999998
    11   1      1.8799999999999955      52.639999999999986      50.759999999999998
    12   1      1.8799999999999955      54.519999999999989      48.879999999999995
    13   1      106.99999999999999      52.639999999999986      52.639999999999986
    14   1      106.99999999999999      54.519999999999989      54.519999999999989
    15   1      1.8799999999999955      52.639999999999986      54.519999999999989
    16   1      1.8799999999999955      54.519999999999989      52.639999999999986
    17   1      1.8799999999999955      52.639999999999986      58.279999999999987
    18   1      1.8799999999999955      54.519999999999989      56.399999999999984
    19   1      1.8799999999999955      56.399999999999984      50.759999999999998
    20   1      1.8799999999999955      56.399999999999984      54.519999999999989
    21   1      1.8799999999999955      58.279999999999987      52.639999999999986
    22   1      5.6399999999999935      43.239999999999988      48.879999999999995
    23   1      5.6399999999999935      43.239999999999988      52.639999999999986
    24   1      5.6399999999999935      43.239999999999988      56.399999999999984
    25   1      3.7599999999999976      46.999999999999986      46.999999999999986
    26   1      5.6399999999999935       45.11999999999999      46.999999999999986
    27   1      5.6399999999999935      46.999999999999986       45.11999999999999
    28   1      3.7599999999999976      46.999999999999986      50.759999999999998
    29   1      5.6399999999999935       45.11999999999999      50.759999999999998
    30   1      5.6399999999999935      46.999999999999986      48.879999999999995
    31   1      3.7599999999999976       45.11999999999999      52.639999999999986
    32   1      3.7599999999999976      46.999999999999986      54.519999999999989
    33   1      5.6399999999999935       45.11999999999999      54.519999999999989
    34   1      5.6399999999999935      46.999999999999986      52.639999999999986
    35   1      3.7599999999999976      46.999999999999986      58.279999999999987
    36   1      5.6399999999999935       45.11999999999999      58.279999999999987
    37   1      5.6399999999999935      46.999999999999986      56.399999999999984
    38   1      5.6399999999999935      46.999999999999986      60.159999999999982
    39   1      5.6399999999999935      48.879999999999995      43.239999999999988
    40   1      3.7599999999999976      50.759999999999998      46.999999999999986
    41   1      5.6399999999999935      48.879999999999995      46.999999999999986
    42   1      5.6399999999999935      50.759999999999998       45.11999999999999
    43   1      3.7599999999999976      48.879999999999995      48.879999999999995
    44   1      3.7599999999999976      50.759999999999998      50.759999999999998
    45   1      5.6399999999999935      48.879999999999995      50.759999999999998
    46   1      5.6399999999999935      50.759999999999998      48.879999999999995
    47   1      3.7599999999999976      48.879999999999995      52.639999999999986
    48   1      3.7599999999999976      50.759999999999998      54.519999999999989
    49   1      5.6399999999999935      48.879999999999995      54.519999999999989
    50   1      5.6399999999999935      50.759999999999998      52.639999999999986
    51   1      3.7599999999999976      48.879999999999995      56.399999999999984
    52   1      3.7599999999999976      50.759999999999998      58.279999999999987
    53   1      5.6399999999999935      48.879999999999995      58.279999999999987
    54   1      5.6399999999999935      50.759999999999998      56.399999999999984
    55   1      5.6399999999999935      48.879999999999995      62.039999999999985
    56   1      5.6399999999999935      50.759999999999998      60.159999999999982
    57   1      5.6399999999999935      52.639999999999986      43.239999999999988
    58   1      3.7599999999999976      52.639999999999986       45.11999999999999
    59   1      3.7599999999999976      54.519999999999989      46.999999999999986
    60   1      5.6399999999999935      52.639999999999986      46.999999999999986
    61   1      5.6399999999999935      54.519999999999989       45.11999999999999
    62   1      3.7599999999999976      52.639999999999986      48.879999999999995
    63   1      3.7599999999999976      54.519999999999989      50.759999999999998
    64   1      5.6399999999999935      52.639999999999986      50.759999999999998
    65   1      5.6399999999999935      54.519999999999989      48.879999999999995
    66   1      3.7599999999999976      52.639999999999986      52.639999999999986
    67   1      3.7599999999999976      54.519999999999989      54.519999999999989
    68   1      5.6399999999999935      52.639999999999986      54.519999999999989
    69   1      5.6399999999999935      54.519999999999989      52.639999999999986
    70   1      3.7599999999999976      52.639999999999986      56.399999999999984
    71   1      3.7599999999999976      54.519999999999989      58.279999999999987
    72   1      5.6399999999999935      52.639999999999986      58.279999999999987
    73   1      5.6399999999999935      54.519999999999989      56.399999999999984
    74   1      3.7599999999999976      52.639999999999986      60.159999999999982
    75   1      5.6399999999999935      52.639999999999986      62.039999999999985
    76   1      5.6399999999999935      54.519999999999989      60.159999999999982
    77   1      5.6399999999999935      56.399999999999984      43.239999999999988
    78   1      3.7599999999999976      58.279999999999987      46.999999999999986
    79   1      5.6399999999999935      56.399999999999984      46.999999999999986
    80   1      5.6399999999999935      58.279999999999987       45.11999999999999
    81   1      3.7599999999999976      56.399999999999984      48.879999999999995
    82   1      3.7599999999999976      58.279999999999987      50.759999999999998
    83   1      5.6399999999999935      56.399999999999984      50.759999999999998
    84   1      5.6399999999999935      58.279999999999987      48.879999999999995
    85   1      3.7599999999999976      56.399999999999984      52.639999999999986
    86   1      3.7599999999999976      58.279999999999987      54.519999999999989
    87   1      5.6399999999999935      56.399999999999984      54.519999999999989
    88   1      5.6399999999999935      58.279999999999987      52.639999999999986
    89   1      3.7599999999999976      56.399999999999984      56.399999999999984
    90   1      3.7599999999999976      58.279999999999987      58.279999999999987
    91   1      5.6399999999999935      56.399999999999984      58.279999999999987
    92   1      5.6399999999999935      58.279999999999987      56.399999999999984
    93   1      5.6399999999999935      56.399999999999984      62.039999999999985
    94   1      5.6399999999999935      58.279999999999987      60.159999999999982
    95   1      5.6399999999999935      60.159999999999982      46.999999999999986
    96   1      5.6399999999999935      60.159999999999982      50.759999999999998
    97   1      5.6399999999999935      62.039999999999985      48.879999999999995
    98   1      3.7599999999999976      60.159999999999982      52.639999999999986
    99   1      5.6399999999999935      60.159999999999982      54.519999999999989
   100   1      5.6399999999999935      62.039999999999985      52.639999999999986
   101   1      5.6399999999999935      60.159999999999982      58.279999999999987
   102   1      5.6399999999999935      62.039999999999985      56.399999999999984
   103   1      9.3999999999999986      35.719999999999992      52.639999999999986
   104   1      9.3999999999999986       39.47999999999999       45.11999999999999
   105   1      7.5199999999999951       39.47999999999999      50.759999999999998
   106   1      9.3999999999999986      37.599999999999994      50.759999999999998
   107   1      9.3999999999999986       39.47999999999999      48.879999999999995
   108   1      7.5199999999999951       39.47999999999999      54.519999999999989
   109   1      9.3999999999999986      37.599999999999994      54.519999999999989
   110   1      9.3999999999999986       39.47999999999999      52.639999999999986
   111   1      9.3999999999999986       39.47999999999999      56.399999999999984
   112   1      9.3999999999999986       39.47999999999999      60.159999999999982
   113   1      7.5199999999999951      43.239999999999988      43.239999999999988
   114   1      9.3999999999999986      41.359999999999992      43.239999999999988
   115   1      9.3999999999999986      43.239999999999988      41.359999999999992
   116   1      7.5199999999999951      43.239999999999988      46.999999999999986
   117   1      9.3999999999999986      41.359999999999992      46.999999999999986
   118   1      9.3999999999999986      43.239999999999988       45.11999999999999
   119   1      7.5199999999999951      41.359999999999992      48.879999999999995
   120   1      7.5199999999999951      43.239999999999988      50.759999999999998
   121   1      9.3999999999999986      41.359999999999992      50.759999999999998
   122   1      9.3999999999999986      43.239999999999988      48.879999999999995
   123   1      7.5199999999999951      41.359999999999992      52.639999999999986
   124   1      7.5199999999999951      43.239999999999988      54.519999999999989
   125   1      9.3999999999999986      41.359999999999992      54.519999999999989
   126   1      9.3999999999999986      43.239999999999988      52.639999999999986
   127   1      7.5199999999999951      41.359999999999992      56.399999999999984
   128   1      7.5199999999999951      43.239999999999988      58.279999999999987
   129   1      9.3999999999999986      41.359999999999992      58.279999999999987
   130   1      9.3999999999999986      43.239999999999988      56.399999999999984
   131   1      7.5199999999999951      43.239999999999988      62.039999999999985
   132   1      9.3999999999999986      41.359999999999992      62.039999999999985
   133   1      9.3999999999999986      43.239999999999988      60.159999999999982
   134   1      9.3999999999999986      43.239999999999988       63.91999999999998
   135   1      9.3999999999999986       45.11999999999999       39.47999999999999
   136   1      7.5199999999999951      46.999999999999986      43.239999999999988
   137   1      9.3999999999999986       45.11999999999999      43.239999999999988
   138   1      9.3999999999999986      46.999999999999986      41.359999999999992
   139   1      7.5199999999999951       45.11999999999999       45.11999999999999
   140   1      7.5199999999999951      46.999999999999986      46.999999999999986
   141   1      9.3999999999999986       45.11999999999999      46.999999999999986
   142   1      9.3999999999999986      46.999999999999986       45.11999999999999
   143   1      7.5199999999999951       45.11999999999999      48.879999999999995
   144   1      7.5199999999999951      46.999999999999986      50.759999999999998
   145   1      9.3999999999999986       45.11999999999999      50.759999999999998
   146   1      9.3999999999999986      46.999999999999986      48.879999999999995
   147   1      7.5199999999999951       45.11999999999999      52.639999999999986
   148   1      7.5199999999999951      46.999999999999986      54.519999999999989
   149   1      9.3999999999999986       45.11999999999999      54.519999999999989
   150   1      9.3999999999999986      46.999999999999986      52.639999999999986
   151   1      7.5199999999999951       45.11999999999999      56.399999999999984
   152   1      7.5199999999999951      46.999999999999986      58.279999999999987
   153   1      9.3999999999999986       45.11999999999999      58.279999999999987
   154   1      9.3999999999999986      46.999999999999986      56.399999999999984
   155   1      7.5199999999999951       45.11999999999999      60.159999999999982
   156   1      7.5199999999999951      46.999999999999986      62.039999999999985
   157   1      9.3999999999999986       45.11999999999999      62.039999999999985
   158   1      9.3999999999999986      46.999999999999986      60.159999999999982
   159   1      9.3999999999999986       45.11999999999999      65.799999999999983
   160   1      9.3999999999999986      46.999999999999986       63.91999999999998
   161   1      7.5199999999999951      50.759999999999998       39.47999999999999
   162   1      9.3999999999999986      48.879999999999995       39.47999999999999
   163   1      9.3999999999999986      50.759999999999998      37.599999999999994
   164   1      7.5199999999999951      48.879999999999995      41.359999999999992
   165   1      7.5199999999999951      50.759999999999998      43.239999999999988
   166   1      9.3999999999999986      48.879999999999995      43.239999999999988
   167   1      9.3999999999999986      50.759999999999998      41.359999999999992
   168   1      7.5199999999999951      48.879999999999995       45.11999999999999
   169   1      7.5199999999999951      50.759999999999998      46.999999999999986
   170   1      9.3999999999999986      48.879999999999995      46.999999999999986
   171   1      9.3999999999999986      50.759999999999998       45.11999999999999
   172   1      7.5199999999999951      48.879999999999995      48.879999999999995
   173   1      7.5199999999999951      50.759999999999998      50.759999999999998
   174   1      9.3999999999999986      48.879999999999995      50.759999999999998
   175   1      9.3999999999999986      50.759999999999998      48.879999999999995
   176   1      7.5199999999999951      48.879999999999995      52.639999999999986
   177   1      7.5199999999999951      50.759999999999998      54.519999999999989
   178   1      9.3999999999999986      48.879999999999995      54.519999999999989
   179   1      9.3999999999999986      50.759999999999998      52.639999999999986
   180   1      7.5199999999999951      48.879999999999995      56.399999999999984
   181   1      7.5199999999999951      50.759999999999998      58.279999999999987
   182   1      9.3999999999999986      48.879999999999995      58.279999999999987
   183   1      9.3999999999999986      50.759999999999998      56.399999999999984
   184   1      7.5199999999999951      48.879999999999995      60.159999999999982
   185   1      7.5199999999999951      50.759999999999998      62.039999999999985
   186   1      9.3999999999999986      48.879999999999995      62.039999999999985
   187   1      9.3999999999999986      50.759999999999998      60.159999999999982
   188   1      7.5199999999999951      48.879999999999995       63.91999999999998
   189   1      7.5199999999999951      50.759999999999998      65.799999999999983
   190   1      9.3999999999999986      48.879999999999995      65.799999999999983
   191   1      9.3999999999999986      50.759999999999998       63.91999999999998
   192   1      9.3999999999999986      50.759999999999998      67.679999999999993
   193   1      9.3999999999999986      52.639999999999986      35.719999999999992
   194   1      7.5199999999999951      54.519999999999989       39.47999999999999
   195   1      9.3999999999999986      52.639999999999986       39.47999999999999
   196   1      9.3999999999999986      54.519999999999989      37.599999999999994
   197   1      7.5199999999999951      52.639999999999986      41.359999999999992
   198   1      7.5199999999999951      54.519999999999989      43.239999999999988
   199   1      9.3999999999999986      52.639999999999986      43.239999999999988
   200   1      9.3999999999999986      54.519999999999989      41.359999999999992
   201   1      7.5199999999999951      52.639999999999986       45.11999999999999
   202   1      7.5199999999999951      54.519999999999989      46.999999999999986
   203   1      9.3999999999999986      52.639999999999986      46.999999999999986
   204   1      9.3999999999999986      54.519999999999989       45.11999999999999
   205   1      7.5199999999999951      52.639999999999986      48.879999999999995
   206   1      7.5199999999999951      54.519999999999989      50.759999999999998
   207   1      9.3999999999999986      52.639999999999986      50.759999999999998
   208   1      9.3999999999999986      54.519999999999989      48.879999999999995
   209   1      7.5199999999999951      52.639999999999986      52.639999999999986
   210   1      7.5199999999999951      54.519999999999989      54.519999999999989
   211   1      9.3999999999999986      52.639999999999986      54.519999999999989
   212   1      9.3999999999999986      54.519999999999989      52.639999999999986
   213   1      7.5199999999999951      52.639999999999986      56.399999999999984
   214   1      7.5199999999999951      54.519999999999989      58.279999999999987
   215   1      9.3999999999999986      52.639999999999986      58.279999999999987
   216   1      9.3999999999999986      54.519999999999989      56.399999999999984
   217   1      7.5199999999999951      52.639999999999986      60.159999999999982
   218   1      7.5199999999999951      54.519999999999989      62.039999999999985
   219   1      9.3999999999999986      52.639999999999986      62.039999999999985
   220   1      9.3999999999999986      54.519999999999989      60.159999999999982
   221   1      7.5199999999999951      52.639999999999986       63.91999999999998
   222   1      7.5199999999999951      54.519999999999989      65.799999999999983
   223   1      9.3999999999999986      52.639999999999986      65.799999999999983
   224   1      9.3999999999999986      54.519999999999989       63.91999999999998
   225   1      9.3999999999999986      52.639999999999986      69.559999999999974
   226   1      9.3999999999999986      54.519999999999989      67.679999999999993
   227   1      9.3999999999999986      56.399999999999984       39.47999999999999
   228   1      7.5199999999999951      56.399999999999984      41.359999999999992
   229   1      7.5199999999999951      58.279999999999987      43.239999999999988
   230   1      9.3999999999999986      56.399999999999984      43.239999999999988
   231   1      9.3999999999999986      58.279999999999987      41.359999999999992
   232   1      7.5199999999999951      56.399999999999984       45.11999999999999
   233   1      7.5199999999999951      58.279999999999987      46.999999999999986
   234   1      9.3999999999999986      56.399999999999984      46.999999999999986
   235   1      9.3999999999999986      58.279999999999987       45.11999999999999
   236   1      7.5199999999999951      56.399999999999984      48.879999999999995
   237   1      7.5199999999999951      58.279999999999987      50.759999999999998
   238   1      9.3999999999999986      56.399999999999984      50.759999999999998
   239   1      9.3999999999999986      58.279999999999987      48.879999999999995
   240   1      7.5199999999999951      56.399999999999984      52.639999999999986
   241   1      7.5199999999999951      58.279999999999987      54.519999999999989
   242   1      9.3999999999999986      56.399999999999984      54.519999999999989
   243   1      9.3999999999999986      58.279999999999987      52.639999999999986
   244   1      7.5199999999999951      56.399999999999984      56.399999999999984
   245   1      7.5199999999999951      58.279999999999987      58.279999999999987
   246   1      9.3999999999999986      56.399999999999984      58.279999999999987
   247   1      9.3999999999999986      58.279999999999987      56.399999999999984
   248   1      7.5199999999999951      56.399999999999984      60.159999999999982
   249   1      7.5199999999999951      58.279999999999987      62.039999999999985
   250   1      9.3999999999999986      56.399999999999984      62.039999999999985
   251   1      9.3999999999999986      58.279999999999987      60.159999999999982
   252   1      7.5199999999999951      56.399999999999984       63.91999999999998
   253   1      9.3999999999999986      56.399999999999984      65.799999999999983
   254   1      9.3999999999999986      58.279999999999987       63.91999999999998
   255   1      9.3999999999999986      60.159999999999982       39.47999999999999
   256   1      7.5199999999999951      62.039999999999985      43.239999999999988
   257   1      9.3999999999999986      60.159999999999982      43.239999999999988
   258   1      9.3999999999999986      62.039999999999985      41.359999999999992
   259   1      7.5199999999999951      60.159999999999982       45.11999999999999
   260   1      7.5199999999999951      62.039999999999985      46.999999999999986
   261   1      9.3999999999999986      60.159999999999982      46.999999999999986
   262   1      9.3999999999999986      62.039999999999985       45.11999999999999
   263   1      7.5199999999999951      60.159999999999982      48.879999999999995
   264   1      7.5199999999999951      62.039999999999985      50.759999999999998
   265   1      9.3999999999999986      60.159999999999982      50.759999999999998
   266   1      9.3999999999999986      62.039999999999985      48.879999999999995
   267   1      7.5199999999999951      60.159999999999982      52.639999999999986
   268   1      7.5199999999999951      62.039999999999985      54.519999999999989
   269   1      9.3999999999999986      60.159999999999982      54.519999999999989
   270   1      9.3999999999999986      62.039999999999985      52.639999999999986
   271   1      7.5199999999999951      60.159999999999982      56.399999999999984
   272   1      7.5199999999999951      62.039999999999985      58.279999999999987
   273   1      9.3999999999999986      60.159999999999982      58.279999999999987
   274   1      9.3999999999999986      62.039999999999985      56.399999999999984
   275   1      7.5199999999999951      60.159999999999982      60.159999999999982
   276   1      7.5199999999999951      62.039999999999985      62.039999999999985
   277   1      9.3999999999999986      60.159999999999982      62.039999999999985
   278   1      9.3999999999999986      62.039999999999985      60.159999999999982
   279   1      9.3999999999999986      60.159999999999982      65.799999999999983
   280   1      9.3999999999999986      62.039999999999985       63.91999999999998
   281   1      9.3999999999999986       63.91999999999998      43.239999999999988
   282   1      9.3999999999999986       63.91999999999998      46.999999999999986
   283   1      9.3999999999999986      65.799999999999983       45.11999999999999
   284   1      7.5199999999999951       63.91999999999998      48.879999999999995
   285   1      7.5199999999999951      65.799999999999983      50.759999999999998
   286   1      9.3999999999999986       63.91999999999998      50.759999999999998
   287   1      9.3999999999999986      65.799999999999983      48.879999999999995
   288   1      7.5199999999999951       63.91999999999998      52.639999999999986
   289   1      7.5199999999999951      65.799999999999983      54.519999999999989
   290   1      9.3999999999999986       63.91999999999998      54.519999999999989
   291   1      9.3999999999999986      65.799999999999983      52.639999999999986
   292   1      7.5199999999999951       63.91999999999998      56.399999999999984
   293   1      9.3999999999999986       63.91999999999998      58.279999999999987
   294   1      9.3999999999999986      65.799999999999983      56.399999999999984
   295   1      9.3999999999999986       63.91999999999998      62.039999999999985
   296   1      9.3999999999999986      65.799999999999983      60.159999999999982
   297   1      9.3999999999999986      67.679999999999993      50.759999999999998
   298   1      9.3999999999999986      67.679999999999993      54.519999999999989
   299   1      9.3999999999999986      69.559999999999974      52.639999999999986
   300   1      13.159999999999988       31.95999999999999      48.879999999999995
   301   1      13.159999999999988       31.95999999999999      52.639999999999986
   302   1      13.159999999999988       31.95999999999999      56.399999999999984
   303   1      13.159999999999988      35.719999999999992      41.359999999999992
   304   1      11.279999999999992      35.719999999999992      46.999999999999986
   305   1      13.159999999999988      33.839999999999982      46.999999999999986
   306   1      13.159999999999988      35.719999999999992       45.11999999999999
   307   1      11.279999999999992      35.719999999999992      50.759999999999998
   308   1      13.159999999999988      33.839999999999982      50.759999999999998
   309   1      13.159999999999988      35.719999999999992      48.879999999999995
   310   1      11.279999999999992      33.839999999999982      52.639999999999986
   311   1      11.279999999999992      35.719999999999992      54.519999999999989
   312   1      13.159999999999988      33.839999999999982      54.519999999999989
   313   1      13.159999999999988      35.719999999999992      52.639999999999986
   314   1      11.279999999999992      35.719999999999992      58.279999999999987
   315   1      13.159999999999988      33.839999999999982      58.279999999999987
   316   1      13.159999999999988      35.719999999999992      56.399999999999984
   317   1      13.159999999999988      35.719999999999992      60.159999999999982
   318   1      13.159999999999988      35.719999999999992       63.91999999999998
   319   1      11.279999999999992       39.47999999999999       39.47999999999999
   320   1      13.159999999999988      37.599999999999994       39.47999999999999
   321   1      13.159999999999988       39.47999999999999      37.599999999999994
   322   1      11.279999999999992       39.47999999999999      43.239999999999988
   323   1      13.159999999999988      37.599999999999994      43.239999999999988
   324   1      13.159999999999988       39.47999999999999      41.359999999999992
   325   1      11.279999999999992      37.599999999999994       45.11999999999999
   326   1      11.279999999999992       39.47999999999999      46.999999999999986
   327   1      13.159999999999988      37.599999999999994      46.999999999999986
   328   1      13.159999999999988       39.47999999999999       45.11999999999999
   329   1      11.279999999999992      37.599999999999994      48.879999999999995
   330   1      11.279999999999992       39.47999999999999      50.759999999999998
   331   1      13.159999999999988      37.599999999999994      50.759999999999998
   332   1      13.159999999999988       39.47999999999999      48.879999999999995
   333   1      11.279999999999992      37.599999999999994      52.639999999999986
   334   1      11.279999999999992       39.47999999999999      54.519999999999989
   335   1      13.159999999999988      37.599999999999994      54.519999999999989
   336   1      13.159999999999988       39.47999999999999      52.639999999999986
   337   1      11.279999999999992      37.599999999999994      56.399999999999984
   338   1      11.279999999999992       39.47999999999999      58.279999999999987
   339   1      13.159999999999988      37.599999999999994      58.279999999999987
   340   1      13.159999999999988       39.47999999999999      56.399999999999984
   341   1      11.279999999999992      37.599999999999994      60.159999999999982
   342   1      11.279999999999992       39.47999999999999      62.039999999999985
   343   1      13.159999999999988      37.599999999999994      62.039999999999985
   344   1      13.159999999999988       39.47999999999999      60.159999999999982
   345   1      11.279999999999992       39.47999999999999      65.799999999999983
   346   1      13.159999999999988      37.599999999999994      65.799999999999983
   347   1      13.159999999999988       39.47999999999999       63.91999999999998
   348   1      13.159999999999988       39.47999999999999      67.679999999999993
   349   1      13.159999999999988      41.359999999999992      35.719999999999992
   350   1      11.279999999999992      43.239999999999988       39.47999999999999
   351   1      13.159999999999988      41.359999999999992       39.47999999999999
   352   1      13.159999999999988      43.239999999999988      37.599999999999994
   353   1      11.279999999999992      41.359999999999992      41.359999999999992
   354   1      11.279999999999992      43.239999999999988      43.239999999999988
   355   1      13.159999999999988      41.359999999999992      43.239999999999988
   356   1      13.159999999999988      43.239999999999988      41.359999999999992
   357   1      11.279999999999992      41.359999999999992       45.11999999999999
   358   1      11.279999999999992      43.239999999999988      46.999999999999986