model_files/Ni/Ni_30000/Ni_211/data.Ni_211_fcc_30069 (written by ASE) 

30069 	 atoms 
1  atom types
0.0                      98  xlo xhi
0.0                      98  ylo yhi
0.0                      98  zlo zhi


Atoms 

     1   1      1.7600000000000051      47.519999999999996      49.279999999999994
     2   1      1.7600000000000051      49.279999999999994      47.519999999999996
     3   1  7.1054273576010011e-15      49.279999999999994      49.279999999999994
     4   1      1.7600000000000051      49.279999999999994      51.039999999999992
     5   1      1.7600000000000051      51.039999999999992      49.279999999999994
     6   1      5.2800000000000011      40.480000000000004      49.279999999999994
     7   1      3.5200000000000027      43.999999999999993      47.519999999999996
     8   1      5.2800000000000011      42.240000000000002      47.519999999999996
     9   1      5.2800000000000011      43.999999999999993      45.759999999999998
    10   1      3.5200000000000027      42.240000000000002      49.279999999999994
    11   1      3.5200000000000027      43.999999999999993      51.039999999999992
    12   1      5.2800000000000011      42.240000000000002      51.039999999999992
    13   1      5.2800000000000011      43.999999999999993      49.279999999999994
    14   1      5.2800000000000011      43.999999999999993      52.800000000000004
    15   1      3.5200000000000027      47.519999999999996      43.999999999999993
    16   1      5.2800000000000011      45.759999999999998      43.999999999999993
    17   1      5.2800000000000011      47.519999999999996      42.240000000000002
    18   1      3.5200000000000027      45.759999999999998      45.759999999999998
    19   1      3.5200000000000027      47.519999999999996      47.519999999999996
    20   1      5.2800000000000011      45.759999999999998      47.519999999999996
    21   1      5.2800000000000011      47.519999999999996      45.759999999999998
    22   1      3.5200000000000027      45.759999999999998      49.279999999999994
    23   1      3.5200000000000027      47.519999999999996      51.039999999999992
    24   1      5.2800000000000011      45.759999999999998      51.039999999999992
    25   1      5.2800000000000011      47.519999999999996      49.279999999999994
    26   1      3.5200000000000027      45.759999999999998      52.800000000000004
    27   1      3.5200000000000027      47.519999999999996      54.560000000000002
    28   1      5.2800000000000011      45.759999999999998      54.560000000000002
    29   1      5.2800000000000011      47.519999999999996      52.800000000000004
    30   1      5.2800000000000011      47.519999999999996                   56.32
    31   1      5.2800000000000011      49.279999999999994      40.480000000000004
    32   1      3.5200000000000027      49.279999999999994      42.240000000000002
    33   1      3.5200000000000027      51.039999999999992      43.999999999999993
    34   1      5.2800000000000011      49.279999999999994      43.999999999999993
    35   1      5.2800000000000011      51.039999999999992      42.240000000000002
    36   1      3.5200000000000027      49.279999999999994      45.759999999999998
    37   1      3.5200000000000027      51.039999999999992      47.519999999999996
    38   1      5.2800000000000011      49.279999999999994      47.519999999999996
    39   1      5.2800000000000011      51.039999999999992      45.759999999999998
    40   1      3.5200000000000027      49.279999999999994      49.279999999999994
    41   1      3.5200000000000027      51.039999999999992      51.039999999999992
    42   1      5.2800000000000011      49.279999999999994      51.039999999999992
    43   1      5.2800000000000011      51.039999999999992      49.279999999999994
    44   1      3.5200000000000027      49.279999999999994      52.800000000000004
    45   1      3.5200000000000027      51.039999999999992      54.560000000000002
    46   1      5.2800000000000011      49.279999999999994      54.560000000000002
    47   1      5.2800000000000011      51.039999999999992      52.800000000000004
    48   1      3.5200000000000027      49.279999999999994                   56.32
    49   1      5.2800000000000011      49.279999999999994      58.079999999999998
    50   1      5.2800000000000011      51.039999999999992                   56.32
    51   1      5.2800000000000011      52.800000000000004      43.999999999999993
    52   1      3.5200000000000027      52.800000000000004      45.759999999999998
    53   1      3.5200000000000027      54.560000000000002      47.519999999999996
    54   1      5.2800000000000011      52.800000000000004      47.519999999999996
    55   1      5.2800000000000011      54.560000000000002      45.759999999999998
    56   1      3.5200000000000027      52.800000000000004      49.279999999999994
    57   1      3.5200000000000027      54.560000000000002      51.039999999999992
    58   1      5.2800000000000011      52.800000000000004      51.039999999999992
    59   1      5.2800000000000011      54.560000000000002      49.279999999999994
    60   1      3.5200000000000027      52.800000000000004      52.800000000000004
    61   1      5.2800000000000011      52.800000000000004      54.560000000000002
    62   1      5.2800000000000011      54.560000000000002      52.800000000000004
    63   1      5.2800000000000011                   56.32      47.519999999999996
    64   1      3.5200000000000027                   56.32      49.279999999999994
    65   1      5.2800000000000011                   56.32      51.039999999999992
    66   1      5.2800000000000011      58.079999999999998      49.279999999999994
    67   1      8.8000000000000043      33.440000000000005      49.279999999999994
    68   1      7.0400000000000054      36.959999999999994      47.519999999999996
    69   1      8.8000000000000043      35.199999999999996      47.519999999999996
    70   1      8.8000000000000043      36.959999999999994      45.759999999999998
    71   1      7.0400000000000054      35.199999999999996      49.279999999999994
    72   1      7.0400000000000054      36.959999999999994      51.039999999999992
    73   1      8.8000000000000043      35.199999999999996      51.039999999999992
    74   1      8.8000000000000043      36.959999999999994      49.279999999999994
    75   1      8.8000000000000043      36.959999999999994      52.800000000000004
    76   1      7.0400000000000054      40.480000000000004      43.999999999999993
    77   1      8.8000000000000043      38.719999999999999      43.999999999999993
    78   1      8.8000000000000043      40.480000000000004      42.240000000000002
    79   1      7.0400000000000054      38.719999999999999      45.759999999999998
    80   1      7.0400000000000054      40.480000000000004      47.519999999999996
    81   1      8.8000000000000043      38.719999999999999      47.519999999999996
    82   1      8.8000000000000043      40.480000000000004      45.759999999999998
    83   1      7.0400000000000054      38.719999999999999      49.279999999999994
    84   1      7.0400000000000054      40.480000000000004      51.039999999999992
    85   1      8.8000000000000043      38.719999999999999      51.039999999999992
    86   1      8.8000000000000043      40.480000000000004      49.279999999999994
    87   1      7.0400000000000054      38.719999999999999      52.800000000000004
    88   1      7.0400000000000054      40.480000000000004      54.560000000000002
    89   1      8.8000000000000043      38.719999999999999      54.560000000000002
    90   1      8.8000000000000043      40.480000000000004      52.800000000000004
    91   1      8.8000000000000043      40.480000000000004                   56.32
    92   1      7.0400000000000054      43.999999999999993      40.480000000000004
    93   1      8.8000000000000043      42.240000000000002      40.480000000000004
    94   1      8.8000000000000043      43.999999999999993      38.719999999999999
    95   1      7.0400000000000054      42.240000000000002      42.240000000000002
    96   1      7.0400000000000054      43.999999999999993      43.999999999999993
    97   1      8.8000000000000043      42.240000000000002      43.999999999999993
    98   1      8.8000000000000043      43.999999999999993      42.240000000000002
    99   1      7.0400000000000054      42.240000000000002      45.759999999999998
   100   1      7.0400000000000054      43.999999999999993      47.519999999999996
   101   1      8.8000000000000043      42.240000000000002      47.519999999999996
   102   1      8.8000000000000043      43.999999999999993      45.759999999999998
   103   1      7.0400000000000054      42.240000000000002      49.279999999999994
   104   1      7.0400000000000054      43.999999999999993      51.039999999999992
   105   1      8.8000000000000043      42.240000000000002      51.039999999999992
   106   1      8.8000000000000043      43.999999999999993      49.279999999999994
   107   1      7.0400000000000054      42.240000000000002      52.800000000000004
   108   1      7.0400000000000054      43.999999999999993      54.560000000000002
   109   1      8.8000000000000043      42.240000000000002      54.560000000000002
   110   1      8.8000000000000043      43.999999999999993      52.800000000000004
   111   1      7.0400000000000054      42.240000000000002                   56.32
   112   1      7.0400000000000054      43.999999999999993      58.079999999999998
   113   1      8.8000000000000043      42.240000000000002      58.079999999999998
   114   1      8.8000000000000043      43.999999999999993                   56.32
   115   1      8.8000000000000043      43.999999999999993      59.839999999999996
   116   1      7.0400000000000054      47.519999999999996      36.959999999999994
   117   1      8.8000000000000043      45.759999999999998      36.959999999999994
   118   1      8.8000000000000043      47.519999999999996      35.199999999999996
   119   1      7.0400000000000054      45.759999999999998      38.719999999999999
   120   1      7.0400000000000054      47.519999999999996      40.480000000000004
   121   1      8.8000000000000043      45.759999999999998      40.480000000000004
   122   1      8.8000000000000043      47.519999999999996      38.719999999999999
   123   1      7.0400000000000054      45.759999999999998      42.240000000000002
   124   1      7.0400000000000054      47.519999999999996      43.999999999999993
   125   1      8.8000000000000043      45.759999999999998      43.999999999999993
   126   1      8.8000000000000043      47.519999999999996      42.240000000000002
   127   1      7.0400000000000054      45.759999999999998      45.759999999999998
   128   1      7.0400000000000054      47.519999999999996      47.519999999999996
   129   1      8.8000000000000043      45.759999999999998      47.519999999999996
   130   1      8.8000000000000043      47.519999999999996      45.759999999999998
   131   1      7.0400000000000054      45.759999999999998      49.279999999999994
   132   1      7.0400000000000054      47.519999999999996      51.039999999999992
   133   1      8.8000000000000043      45.759999999999998      51.039999999999992
   134   1      8.8000000000000043      47.519999999999996      49.279999999999994
   135   1      7.0400000000000054      45.759999999999998      52.800000000000004
   136   1      7.0400000000000054      47.519999999999996      54.560000000000002
   137   1      8.8000000000000043      45.759999999999998      54.560000000000002
   138   1      8.8000000000000043      47.519999999999996      52.800000000000004
   139   1      7.0400000000000054      45.759999999999998                   56.32
   140   1      7.0400000000000054      47.519999999999996      58.079999999999998
   141   1      8.8000000000000043      45.759999999999998      58.079999999999998
   142   1      8.8000000000000043      47.519999999999996                   56.32
   143   1      7.0400000000000054      45.759999999999998      59.839999999999996
   144   1      7.0400000000000054      47.519999999999996      61.600000000000001
   145   1      8.8000000000000043      45.759999999999998      61.600000000000001
   146   1      8.8000000000000043      47.519999999999996      59.839999999999996
   147   1      8.8000000000000043      47.519999999999996      63.359999999999999
   148   1      8.8000000000000043      49.279999999999994      33.440000000000005
   149   1      7.0400000000000054      49.279999999999994      35.199999999999996
   150   1      7.0400000000000054      51.039999999999992      36.959999999999994
   151   1      8.8000000000000043      49.279999999999994      36.959999999999994
   152   1      8.8000000000000043      51.039999999999992      35.199999999999996
   153   1      7.0400000000000054      49.279999999999994      38.719999999999999
   154   1      7.0400000000000054      51.039999999999992      40.480000000000004
   155   1      8.8000000000000043      49.279999999999994      40.480000000000004
   156   1      8.8000000000000043      51.039999999999992      38.719999999999999
   157   1      7.0400000000000054      49.279999999999994      42.240000000000002
   158   1      7.0400000000000054      51.039999999999992      43.999999999999993
   159   1      8.8000000000000043      49.279999999999994      43.999999999999993
   160   1      8.8000000000000043      51.039999999999992      42.240000000000002
   161   1      7.0400000000000054      49.279999999999994      45.759999999999998
   162   1      7.0400000000000054      51.039999999999992      47.519999999999996
   163   1      8.8000000000000043      49.279999999999994      47.519999999999996
   164   1      8.8000000000000043      51.039999999999992      45.759999999999998
   165   1      7.0400000000000054      49.279999999999994      49.279999999999994
   166   1      7.0400000000000054      51.039999999999992      51.039999999999992
   167   1      8.8000000000000043      49.279999999999994      51.039999999999992
   168   1      8.8000000000000043      51.039999999999992      49.279999999999994
   169   1      7.0400000000000054      49.279999999999994      52.800000000000004
   170   1      7.0400000000000054      51.039999999999992      54.560000000000002
   171   1      8.8000000000000043      49.279999999999994      54.560000000000002
   172   1      8.8000000000000043      51.039999999999992      52.800000000000004
   173   1      7.0400000000000054      49.279999999999994                   56.32
   174   1      7.0400000000000054      51.039999999999992      58.079999999999998
   175   1      8.8000000000000043      49.279999999999994      58.079999999999998
   176   1      8.8000000000000043      51.039999999999992                   56.32
   177   1      7.0400000000000054      49.279999999999994      59.839999999999996
   178   1      7.0400000000000054      51.039999999999992      61.600000000000001
   179   1      8.8000000000000043      49.279999999999994      61.600000000000001
   180   1      8.8000000000000043      51.039999999999992      59.839999999999996
   181   1      7.0400000000000054      49.279999999999994      63.359999999999999
   182   1      8.8000000000000043      49.279999999999994      65.120000000000005
   183   1      8.8000000000000043      51.039999999999992      63.359999999999999
   184   1      8.8000000000000043      52.800000000000004      36.959999999999994
   185   1      7.0400000000000054      52.800000000000004      38.719999999999999
   186   1      7.0400000000000054      54.560000000000002      40.480000000000004
   187   1      8.8000000000000043      52.800000000000004      40.480000000000004
   188   1      8.8000000000000043      54.560000000000002      38.719999999999999
   189   1      7.0400000000000054      52.800000000000004      42.240000000000002
   190   1      7.0400000000000054      54.560000000000002      43.999999999999993
   191   1      8.8000000000000043      52.800000000000004      43.999999999999993
   192   1      8.8000000000000043      54.560000000000002      42.240000000000002
   193   1      7.0400000000000054      52.800000000000004      45.759999999999998
   194   1      7.0400000000000054      54.560000000000002      47.519999999999996
   195   1      8.8000000000000043      52.800000000000004      47.519999999999996
   196   1      8.8000000000000043      54.560000000000002      45.759999999999998
   197   1      7.0400000000000054      52.800000000000004      49.279999999999994
   198   1      7.0400000000000054      54.560000000000002      51.039999999999992
   199   1      8.8000000000000043      52.800000000000004      51.039999999999992
   200   1      8.8000000000000043      54.560000000000002      49.279999999999994
   201   1      7.0400000000000054      52.800000000000004      52.800000000000004
   202   1      7.0400000000000054      54.560000000000002      54.560000000000002
   203   1      8.8000000000000043      52.800000000000004      54.560000000000002
   204   1      8.8000000000000043      54.560000000000002      52.800000000000004
   205   1      7.0400000000000054      52.800000000000004                   56.32
   206   1      7.0400000000000054      54.560000000000002      58.079999999999998
   207   1      8.8000000000000043      52.800000000000004      58.079999999999998
   208   1      8.8000000000000043      54.560000000000002                   56.32
   209   1      7.0400000000000054      52.800000000000004      59.839999999999996
   210   1      8.8000000000000043      52.800000000000004      61.600000000000001
   211   1      8.8000000000000043      54.560000000000002      59.839999999999996
   212   1      8.8000000000000043                   56.32      40.480000000000004
   213   1      7.0400000000000054                   56.32      42.240000000000002
   214   1      7.0400000000000054      58.079999999999998      43.999999999999993
   215   1      8.8000000000000043                   56.32      43.999999999999993
   216   1      8.8000000000000043      58.079999999999998      42.240000000000002
   217   1      7.0400000000000054                   56.32      45.759999999999998
   218   1      7.0400000000000054      58.079999999999998      47.519999999999996
   219   1      8.8000000000000043                   56.32      47.519999999999996
   220   1      8.8000000000000043      58.079999999999998      45.759999999999998
   221   1      7.0400000000000054                   56.32      49.279999999999994
   222   1      7.0400000000000054      58.079999999999998      51.039999999999992
   223   1      8.8000000000000043                   56.32      51.039999999999992
   224   1      8.8000000000000043      58.079999999999998      49.279999999999994
   225   1      7.0400000000000054                   56.32      52.800000000000004
   226   1      7.0400000000000054      58.079999999999998      54.560000000000002
   227   1      8.8000000000000043                   56.32      54.560000000000002
   228   1      8.8000000000000043      58.079999999999998      52.800000000000004
   229   1      7.0400000000000054                   56.32                   56.32
   230   1      8.8000000000000043                   56.32      58.079999999999998
   231   1      8.8000000000000043      58.079999999999998                   56.32
   232   1      8.8000000000000043      59.839999999999996      43.999999999999993
   233   1      7.0400000000000054      59.839999999999996      45.759999999999998
   234   1      7.0400000000000054      61.600000000000001      47.519999999999996
   235   1      8.8000000000000043      59.839999999999996      47.519999999999996
   236   1      8.8000000000000043      61.600000000000001      45.759999999999998
   237   1      7.0400000000000054      59.839999999999996      49.279999999999994
   238   1      7.0400000000000054      61.600000000000001      51.039999999999992
   239   1      8.8000000000000043      59.839999999999996      51.039999999999992
   240   1      8.8000000000000043      61.600000000000001      49.279999999999994
   241   1      7.0400000000000054      59.839999999999996      52.800000000000004
   242   1      8.8000000000000043      59.839999999999996      54.560000000000002
   243   1      8.8000000000000043      61.600000000000001      52.800000000000004
   244   1      8.8000000000000043      63.359999999999999      47.519999999999996
   245   1      7.0400000000000054      63.359999999999999      49.279999999999994
   246   1      8.8000000000000043      63.359999999999999      51.039999999999992
   247   1      8.8000000000000043      65.120000000000005      49.279999999999994
   248   1      12.320000000000006      26.400000000000002      49.279999999999994
   249   1      10.560000000000002      29.919999999999998      47.519999999999996
   250   1      12.320000000000006                   28.16      47.519999999999996
   251   1      12.320000000000006      29.919999999999998      45.759999999999998
   252   1      10.560000000000002                   28.16      49.279999999999994
   253   1      10.560000000000002      29.919999999999998      51.039999999999992
   254   1      12.320000000000006                   28.16      51.039999999999992
   255   1      12.320000000000006      29.919999999999998      49.279999999999994
   256   1      12.320000000000006      29.919999999999998      52.800000000000004
   257   1      10.560000000000002      33.440000000000005      43.999999999999993
   258   1      12.320000000000006      31.680000000000003      43.999999999999993
   259   1      12.320000000000006      33.440000000000005      42.240000000000002
   260   1      10.560000000000002      31.680000000000003      45.759999999999998
   261   1      10.560000000000002      33.440000000000005      47.519999999999996
   262   1      12.320000000000006      31.680000000000003      47.519999999999996
   263   1      12.320000000000006      33.440000000000005      45.759999999999998
   264   1      10.560000000000002      31.680000000000003      49.279999999999994
   265   1      10.560000000000002      33.440000000000005      51.039999999999992
   266   1      12.320000000000006      31.680000000000003      51.039999999999992
   267   1      12.320000000000006      33.440000000000005      49.279999999999994
   268   1      10.560000000000002      31.680000000000003      52.800000000000004
   269   1      10.560000000000002      33.440000000000005      54.560000000000002
   270   1      12.320000000000006      31.680000000000003      54.560000000000002
   271   1      12.320000000000006      33.440000000000005      52.800000000000004
   272   1      12.320000000000006      33.440000000000005                   56.32
   273   1      10.560000000000002      36.959999999999994      40.480000000000004
   274   1      12.320000000000006      35.199999999999996      40.480000000000004
   275   1      12.320000000000006      36.959999999999994      38.719999999999999
   276   1      10.560000000000002      35.199999999999996      42.240000000000002
   277   1      10.560000000000002      36.959999999999994      43.999999999999993
   278   1      12.320000000000006      35.199999999999996      43.999999999999993
   279   1      12.320000000000006      36.959999999999994      42.240000000000002
   280   1      10.560000000000002      35.199999999999996      45.759999999999998
   281   1      10.560000000000002      36.959999999999994      47.519999999999996
   282   1      12.320000000000006      35.199999999999996      47.519999999999996
   283   1      12.320000000000006      36.959999999999994      45.759999999999998
   284   1      10.560000000000002      35.199999999999996      49.279999999999994
   285   1      10.560000000000002      36.959999999999994      51.039999999999992
   286   1      12.320000000000006      35.199999999999996      51.039999999999992
   287   1      12.320000000000006      36.959999999999994      49.279999999999994
   288   1      10.560000000000002      35.199999999999996      52.800000000000004
   289   1      10.560000000000002      36.959999999999994      54.560000000000002
   290   1      12.320000000000006      35.199999999999996      54.560000000000002
   291   1      12.320000000000006      36.959999999999994      52.800000000000004
   292   1      10.560000000000002      35.199999999999996                   56.32
   293   1      10.560000000000002      36.959999999999994      58.079999999999998
   294   1      12.320000000000006      35.199999999999996      58.079999999999998
   295   1      12.320000000000006      36.959999999999994                   56.32
   296   1      12.320000000000006      36.959999999999994      59.839999999999996
   297   1      10.560000000000002      40.480000000000004      36.959999999999994
   298   1      12.320000000000006      38.719999999999999      36.959999999999994
   299   1      12.320000000000006      40.480000000000004      35.199999999999996
   300   1      10.560000000000002      38.719999999999999      38.719999999999999
   301   1      10.560000000000002      40.480000000000004      40.480000000000004
   302   1      12.320000000000006      38.719999999999999      40.480000000000004
   303   1      12.320000000000006      40.480000000000004      38.719999999999999
   304   1      10.560000000000002      38.719999999999999      42.240000000000002
   305   1      10.560000000000002      40.480000000000004      43.999999999999993
   306   1      12.320000000000006      38.719999999999999      43.999999999999993
   307   1      12.320000000000006      40.480000000000004      42.240000000000002
   308   1      10.560000000000002      38.719999999999999      45.759999999999998
   309   1      10.560000000000002      40.480000000000004      47.519999999999996
   310   1      12.320000000000006      38.719999999999999      47.519999999999996
   311   1      12.320000000000006      40.480000000000004      45.759999999999998
   312   1      10.560000000000002      38.719999999999999      49.279999999999994
   313   1      10.560000000000002      40.480000000000004      51.039999999999992
   314   1      12.320000000000006      38.719999999999999      51.039999999999992
   315   1      12.320000000000006      40.480000000000004      49.279999999999994
   316   1      10.560000000000002      38.719999999999999      52.800000000000004
   317   1      10.560000000000002      40.480000000000004      54.560000000000002
   318   1      12.320000000000006      38.719999999999999      54.560000000000002
   319   1      12.320000000000006      40.480000000000004      52.800000000000004
   320   1      10.560000000000002      38.719999999999999                   56.32
   321   1      10.560000000000002      40.480000000000004      58.079999999999998
   322   1      12.320000000000006      38.719999999999999      58.079999999999998
   323   1      12.320000000000006      40.480000000000004                   56.32
   324   1      10.560000000000002      38.719999999999999      59.839999999999996
   325   1      10.560000000000002      40.480000000000004      61.600000000000001
   326   1      12.320000000000006      38.719999999999999      61.600000000000001
   327   1      12.320000000000006      40.480000000000004      59.839999999999996
   328   1      12.320000000000006      40.480000000000004      63.359999999999999
   329   1      10.560000000000002      43.999999999999993      33.440000000000005
   330   1      12.320000000000006      42.240000000000002      33.440000000000005
   331   1      12.320000000000006      43.999999999999993      31.680000000000003
   332   1      10.560000000000002      42.240000000000002      35.199999999999996
   333   1      10.560000000000002      43.999999999999993      36.959999999999994
   334   1      12.320000000000006      42.240000000000002      36.959999999999994
   335   1      12.320000000000006      43.999999999999993      35.199999999999996
   336   1      10.560000000000002      42.240000000000002      38.719999999999999
   337   1      10.560000000000002      43.999999999999993      40.480000000000004
   338   1      12.320000000000006      42.240000000000002      40.480000000000004
   339   1      12.320000000000006      43.999999999999993      38.719999999999999
   340   1      10.560000000000002      42.240000000000002      42.240000000000002
   341   1      10.560000000000002      43.999999999999993      43.999999999999993
   342   1      12.320000000000006      42.240000000000002      43.999999999999993
   343   1      12.320000000000006      43.999999999999993      42.240000000000002
   344   1      10.560000000000002      42.240000000000002      45.759999999999998
   345   1      10.560000000000002      43.999999999999993      47.519999999999996
   346   1      12.320000000000006      42.240000000000002      47.519999999999996
   347   1      12.320000000000006      43.999999999999993      45.759999999999998
   348   1      10.560000000000002      42.240000000000002      49.279999999999994
   349   1      10.560000000000002      43.999999999999993      51.039999999999992
   350   1      12.320000000000006      42.240000000000002      51.039999999999992
   351   1      12.320000000000006      43.999999999999993      49.279999999999994
   352   1      10.560000000000002      42.240000000000002      52.800000000000004
   353   1      10.560000000000002      43.999999999999993      54.560000000000002
   354   1      12.320000000000006      42.240000000000002      54.560000000000002
   355   1      12.320000000000006      43.999999999999993      52.800000000000004
   356   1      10.560000000000002      42.240000000000002                   56.32
   357   1      10.560000000000002      43.999999999999993      58.079999999999998
   358   1      12.320000000000006      42.240000000000002      58.079999999999998