model_files/CuFeNi/CuFeNi_30000/CuFeNi_321/CuFeNi_321_fcc_29817_temp.data (written by ASE) 

29817 	 atoms 
3  atom types
0.0                     106  xlo xhi
0.0                     106  ylo yhi
0.0                     106  zlo zhi


Atoms 

     1   1      1.8999999999999986      47.499999999999993      53.199999999999989
     2   1                       0       51.29999999999999       51.29999999999999
     3   1      1.8999999999999986      49.399999999999991       51.29999999999999
     4   1      1.8999999999999986       51.29999999999999      49.399999999999991
     5   1                       0       51.29999999999999      55.099999999999994
     6   1      1.8999999999999986      49.399999999999991      55.099999999999994
     7   1      1.8999999999999986       51.29999999999999      53.199999999999989
     8   1      1.8999999999999986       51.29999999999999      56.999999999999986
     9   1      1.8999999999999986      53.199999999999989      47.499999999999993
    10   1                       0      55.099999999999994       51.29999999999999
    11   1      1.8999999999999986      53.199999999999989       51.29999999999999
    12   1      1.8999999999999986      55.099999999999994      49.399999999999991
    13   1                       0      53.199999999999989      53.199999999999989
    14   1                       0      55.099999999999994      55.099999999999994
    15   1      1.8999999999999986      53.199999999999989      55.099999999999994
    16   1      1.8999999999999986      55.099999999999994      53.199999999999989
    17   1      1.8999999999999986      53.199999999999989      58.899999999999991
    18   1      1.8999999999999986      55.099999999999994      56.999999999999986
    19   1      1.8999999999999986      56.999999999999986       51.29999999999999
    20   1      1.8999999999999986      56.999999999999986      55.099999999999994
    21   1      1.8999999999999986      58.899999999999991      53.199999999999989
    22   1      5.7000000000000028      43.699999999999996      49.399999999999991
    23   1      5.7000000000000028      43.699999999999996      53.199999999999989
    24   1      5.7000000000000028      43.699999999999996      56.999999999999986
    25   1      3.8000000000000043      47.499999999999993      47.499999999999993
    26   1      5.7000000000000028      45.599999999999987      47.499999999999993
    27   1      5.7000000000000028      47.499999999999993      45.599999999999987
    28   1      3.8000000000000043      47.499999999999993       51.29999999999999
    29   1      5.7000000000000028      45.599999999999987       51.29999999999999
    30   1      5.7000000000000028      47.499999999999993      49.399999999999991
    31   1      3.8000000000000043      45.599999999999987      53.199999999999989
    32   1      3.8000000000000043      47.499999999999993      55.099999999999994
    33   1      5.7000000000000028      45.599999999999987      55.099999999999994
    34   1      5.7000000000000028      47.499999999999993      53.199999999999989
    35   1      3.8000000000000043      47.499999999999993      58.899999999999991
    36   1      5.7000000000000028      45.599999999999987      58.899999999999991
    37   1      5.7000000000000028      47.499999999999993      56.999999999999986
    38   1      5.7000000000000028      47.499999999999993      60.799999999999997
    39   1      5.7000000000000028      49.399999999999991      43.699999999999996
    40   1      3.8000000000000043       51.29999999999999      47.499999999999993
    41   1      5.7000000000000028      49.399999999999991      47.499999999999993
    42   1      5.7000000000000028       51.29999999999999      45.599999999999987
    43   1      3.8000000000000043      49.399999999999991      49.399999999999991
    44   1      3.8000000000000043       51.29999999999999       51.29999999999999
    45   1      5.7000000000000028      49.399999999999991       51.29999999999999
    46   1      5.7000000000000028       51.29999999999999      49.399999999999991
    47   1      3.8000000000000043      49.399999999999991      53.199999999999989
    48   1      3.8000000000000043       51.29999999999999      55.099999999999994
    49   1      5.7000000000000028      49.399999999999991      55.099999999999994
    50   1      5.7000000000000028       51.29999999999999      53.199999999999989
    51   1      3.8000000000000043      49.399999999999991      56.999999999999986
    52   1      3.8000000000000043       51.29999999999999      58.899999999999991
    53   1      5.7000000000000028      49.399999999999991      58.899999999999991
    54   1      5.7000000000000028       51.29999999999999      56.999999999999986
    55   1      5.7000000000000028      49.399999999999991      62.700000000000003
    56   1      5.7000000000000028       51.29999999999999      60.799999999999997
    57   1      5.7000000000000028      53.199999999999989      43.699999999999996
    58   1      3.8000000000000043      53.199999999999989      45.599999999999987
    59   1      3.8000000000000043      55.099999999999994      47.499999999999993
    60   1      5.7000000000000028      53.199999999999989      47.499999999999993
    61   1      5.7000000000000028      55.099999999999994      45.599999999999987
    62   1      3.8000000000000043      53.199999999999989      49.399999999999991
    63   1      3.8000000000000043      55.099999999999994       51.29999999999999
    64   1      5.7000000000000028      53.199999999999989       51.29999999999999
    65   1      5.7000000000000028      55.099999999999994      49.399999999999991
    66   1      3.8000000000000043      53.199999999999989      53.199999999999989
    67   1      3.8000000000000043      55.099999999999994      55.099999999999994
    68   1      5.7000000000000028      53.199999999999989      55.099999999999994
    69   1      5.7000000000000028      55.099999999999994      53.199999999999989
    70   1      3.8000000000000043      53.199999999999989      56.999999999999986
    71   1      3.8000000000000043      55.099999999999994      58.899999999999991
    72   1      5.7000000000000028      53.199999999999989      58.899999999999991
    73   1      5.7000000000000028      55.099999999999994      56.999999999999986
    74   1      3.8000000000000043      53.199999999999989      60.799999999999997
    75   1      5.7000000000000028      53.199999999999989      62.700000000000003
    76   1      5.7000000000000028      55.099999999999994      60.799999999999997
    77   1      5.7000000000000028      56.999999999999986      43.699999999999996
    78   1      3.8000000000000043      58.899999999999991      47.499999999999993
    79   1      5.7000000000000028      56.999999999999986      47.499999999999993
    80   1      5.7000000000000028      58.899999999999991      45.599999999999987
    81   1      3.8000000000000043      56.999999999999986      49.399999999999991
    82   1      3.8000000000000043      58.899999999999991       51.29999999999999
    83   1      5.7000000000000028      56.999999999999986       51.29999999999999
    84   1      5.7000000000000028      58.899999999999991      49.399999999999991
    85   1      3.8000000000000043      56.999999999999986      53.199999999999989
    86   1      3.8000000000000043      58.899999999999991      55.099999999999994
    87   1      5.7000000000000028      56.999999999999986      55.099999999999994
    88   1      5.7000000000000028      58.899999999999991      53.199999999999989
    89   1      3.8000000000000043      56.999999999999986      56.999999999999986
    90   1      3.8000000000000043      58.899999999999991      58.899999999999991
    91   1      5.7000000000000028      56.999999999999986      58.899999999999991
    92   1      5.7000000000000028      58.899999999999991      56.999999999999986
    93   1      5.7000000000000028      56.999999999999986      62.700000000000003
    94   1      5.7000000000000028      58.899999999999991      60.799999999999997
    95   1      5.7000000000000028      60.799999999999997      47.499999999999993
    96   1      5.7000000000000028      60.799999999999997       51.29999999999999
    97   1      5.7000000000000028      62.700000000000003      49.399999999999991
    98   1      3.8000000000000043      60.799999999999997      53.199999999999989
    99   1      5.7000000000000028      60.799999999999997      55.099999999999994
   100   1      5.7000000000000028      62.700000000000003      53.199999999999989
   101   1      5.7000000000000028      60.799999999999997      58.899999999999991
   102   1      5.7000000000000028      62.700000000000003      56.999999999999986
   103   1                     9.5      36.099999999999994      53.199999999999989
   104   1                     9.5      39.899999999999991      45.599999999999987
   105   1      7.6000000000000014      39.899999999999991       51.29999999999999
   106   1                     9.5      37.999999999999993       51.29999999999999
   107   1                     9.5      39.899999999999991      49.399999999999991
   108   1      7.6000000000000014      39.899999999999991      55.099999999999994
   109   1                     9.5      37.999999999999993      55.099999999999994
   110   1                     9.5      39.899999999999991      53.199999999999989
   111   1                     9.5      39.899999999999991      56.999999999999986
   112   1                     9.5      39.899999999999991      60.799999999999997
   113   1      7.6000000000000014      43.699999999999996      43.699999999999996
   114   1                     9.5      41.799999999999997      43.699999999999996
   115   1                     9.5      43.699999999999996      41.799999999999997
   116   1      7.6000000000000014      43.699999999999996      47.499999999999993
   117   1                     9.5      41.799999999999997      47.499999999999993
   118   1                     9.5      43.699999999999996      45.599999999999987
   119   1      7.6000000000000014      41.799999999999997      49.399999999999991
   120   1      7.6000000000000014      43.699999999999996       51.29999999999999
   121   1                     9.5      41.799999999999997       51.29999999999999
   122   1                     9.5      43.699999999999996      49.399999999999991
   123   1      7.6000000000000014      41.799999999999997      53.199999999999989
   124   1      7.6000000000000014      43.699999999999996      55.099999999999994
   125   1                     9.5      41.799999999999997      55.099999999999994
   126   1                     9.5      43.699999999999996      53.199999999999989
   127   1      7.6000000000000014      41.799999999999997      56.999999999999986
   128   1      7.6000000000000014      43.699999999999996      58.899999999999991
   129   1                     9.5      41.799999999999997      58.899999999999991
   130   1                     9.5      43.699999999999996      56.999999999999986
   131   1      7.6000000000000014      43.699999999999996      62.700000000000003
   132   1                     9.5      41.799999999999997      62.700000000000003
   133   1                     9.5      43.699999999999996      60.799999999999997
   134   1                     9.5      43.699999999999996      64.599999999999994
   135   1                     9.5      45.599999999999987      39.899999999999991
   136   1      7.6000000000000014      47.499999999999993      43.699999999999996
   137   1                     9.5      45.599999999999987      43.699999999999996
   138   1                     9.5      47.499999999999993      41.799999999999997
   139   1      7.6000000000000014      45.599999999999987      45.599999999999987
   140   1      7.6000000000000014      47.499999999999993      47.499999999999993
   141   1                     9.5      45.599999999999987      47.499999999999993
   142   1                     9.5      47.499999999999993      45.599999999999987
   143   1      7.6000000000000014      45.599999999999987      49.399999999999991
   144   1      7.6000000000000014      47.499999999999993       51.29999999999999
   145   1                     9.5      45.599999999999987       51.29999999999999
   146   1                     9.5      47.499999999999993      49.399999999999991
   147   1      7.6000000000000014      45.599999999999987      53.199999999999989
   148   1      7.6000000000000014      47.499999999999993      55.099999999999994
   149   1                     9.5      45.599999999999987      55.099999999999994
   150   1                     9.5      47.499999999999993      53.199999999999989
   151   1      7.6000000000000014      45.599999999999987      56.999999999999986
   152   1      7.6000000000000014      47.499999999999993      58.899999999999991
   153   1                     9.5      45.599999999999987      58.899999999999991
   154   1                     9.5      47.499999999999993      56.999999999999986
   155   1      7.6000000000000014      45.599999999999987      60.799999999999997
   156   1      7.6000000000000014      47.499999999999993      62.700000000000003
   157   1                     9.5      45.599999999999987      62.700000000000003
   158   1                     9.5      47.499999999999993      60.799999999999997
   159   1                     9.5      45.599999999999987                    66.5
   160   1                     9.5      47.499999999999993      64.599999999999994
   161   1      7.6000000000000014       51.29999999999999      39.899999999999991
   162   1                     9.5      49.399999999999991      39.899999999999991
   163   1                     9.5       51.29999999999999      37.999999999999993
   164   1      7.6000000000000014      49.399999999999991      41.799999999999997
   165   1      7.6000000000000014       51.29999999999999      43.699999999999996
   166   1                     9.5      49.399999999999991      43.699999999999996
   167   1                     9.5       51.29999999999999      41.799999999999997
   168   1      7.6000000000000014      49.399999999999991      45.599999999999987
   169   1      7.6000000000000014       51.29999999999999      47.499999999999993
   170   1                     9.5      49.399999999999991      47.499999999999993
   171   1                     9.5       51.29999999999999      45.599999999999987
   172   1      7.6000000000000014      49.399999999999991      49.399999999999991
   173   1      7.6000000000000014       51.29999999999999       51.29999999999999
   174   1                     9.5      49.399999999999991       51.29999999999999
   175   1                     9.5       51.29999999999999      49.399999999999991
   176   1      7.6000000000000014      49.399999999999991      53.199999999999989
   177   1      7.6000000000000014       51.29999999999999      55.099999999999994
   178   1                     9.5      49.399999999999991      55.099999999999994
   179   1                     9.5       51.29999999999999      53.199999999999989
   180   1      7.6000000000000014      49.399999999999991      56.999999999999986
   181   1      7.6000000000000014       51.29999999999999      58.899999999999991
   182   1                     9.5      49.399999999999991      58.899999999999991
   183   1                     9.5       51.29999999999999      56.999999999999986
   184   1      7.6000000000000014      49.399999999999991      60.799999999999997
   185   1      7.6000000000000014       51.29999999999999      62.700000000000003
   186   1                     9.5      49.399999999999991      62.700000000000003
   187   1                     9.5       51.29999999999999      60.799999999999997
   188   1      7.6000000000000014      49.399999999999991      64.599999999999994
   189   1      7.6000000000000014       51.29999999999999                    66.5
   190   1                     9.5      49.399999999999991                    66.5
   191   1                     9.5       51.29999999999999      64.599999999999994
   192   1                     9.5       51.29999999999999      68.399999999999991
   193   1                     9.5      53.199999999999989      36.099999999999994
   194   1      7.6000000000000014      55.099999999999994      39.899999999999991
   195   1                     9.5      53.199999999999989      39.899999999999991
   196   1                     9.5      55.099999999999994      37.999999999999993
   197   1      7.6000000000000014      53.199999999999989      41.799999999999997
   198   1      7.6000000000000014      55.099999999999994      43.699999999999996
   199   1                     9.5      53.199999999999989      43.699999999999996
   200   1                     9.5      55.099999999999994      41.799999999999997
   201   1      7.6000000000000014      53.199999999999989      45.599999999999987
   202   1      7.6000000000000014      55.099999999999994      47.499999999999993
   203   1                     9.5      53.199999999999989      47.499999999999993
   204   1                     9.5      55.099999999999994      45.599999999999987
   205   1      7.6000000000000014      53.199999999999989      49.399999999999991
   206   1      7.6000000000000014      55.099999999999994       51.29999999999999
   207   1                     9.5      53.199999999999989       51.29999999999999
   208   1                     9.5      55.099999999999994      49.399999999999991
   209   1      7.6000000000000014      53.199999999999989      53.199999999999989
   210   1      7.6000000000000014      55.099999999999994      55.099999999999994
   211   1                     9.5      53.199999999999989      55.099999999999994
   212   1                     9.5      55.099999999999994      53.199999999999989
   213   1      7.6000000000000014      53.199999999999989      56.999999999999986
   214   1      7.6000000000000014      55.099999999999994      58.899999999999991
   215   1                     9.5      53.199999999999989      58.899999999999991
   216   1                     9.5      55.099999999999994      56.999999999999986
   217   1      7.6000000000000014      53.199999999999989      60.799999999999997
   218   1      7.6000000000000014      55.099999999999994      62.700000000000003
   219   1                     9.5      53.199999999999989      62.700000000000003
   220   1                     9.5      55.099999999999994      60.799999999999997
   221   1      7.6000000000000014      53.199999999999989      64.599999999999994
   222   1      7.6000000000000014      55.099999999999994                    66.5
   223   1                     9.5      53.199999999999989                    66.5
   224   1                     9.5      55.099999999999994      64.599999999999994
   225   1                     9.5      53.199999999999989      70.299999999999997
   226   1                     9.5      55.099999999999994      68.399999999999991
   227   1                     9.5      56.999999999999986      39.899999999999991
   228   1      7.6000000000000014      56.999999999999986      41.799999999999997
   229   1      7.6000000000000014      58.899999999999991      43.699999999999996
   230   1                     9.5      56.999999999999986      43.699999999999996
   231   1                     9.5      58.899999999999991      41.799999999999997
   232   1      7.6000000000000014      56.999999999999986      45.599999999999987
   233   1      7.6000000000000014      58.899999999999991      47.499999999999993
   234   1                     9.5      56.999999999999986      47.499999999999993
   235   1                     9.5      58.899999999999991      45.599999999999987
   236   1      7.6000000000000014      56.999999999999986      49.399999999999991
   237   1      7.6000000000000014      58.899999999999991       51.29999999999999
   238   1                     9.5      56.999999999999986       51.29999999999999
   239   1                     9.5      58.899999999999991      49.399999999999991
   240   1      7.6000000000000014      56.999999999999986      53.199999999999989
   241   1      7.6000000000000014      58.899999999999991      55.099999999999994
   242   1                     9.5      56.999999999999986      55.099999999999994
   243   1                     9.5      58.899999999999991      53.199999999999989
   244   1      7.6000000000000014      56.999999999999986      56.999999999999986
   245   1      7.6000000000000014      58.899999999999991      58.899999999999991
   246   1                     9.5      56.999999999999986      58.899999999999991
   247   1                     9.5      58.899999999999991      56.999999999999986
   248   1      7.6000000000000014      56.999999999999986      60.799999999999997
   249   1      7.6000000000000014      58.899999999999991      62.700000000000003
   250   1                     9.5      56.999999999999986      62.700000000000003
   251   1                     9.5      58.899999999999991      60.799999999999997
   252   1      7.6000000000000014      56.999999999999986      64.599999999999994
   253   1                     9.5      56.999999999999986                    66.5
   254   1                     9.5      58.899999999999991      64.599999999999994
   255   1                     9.5      60.799999999999997      39.899999999999991
   256   1      7.6000000000000014      62.700000000000003      43.699999999999996
   257   1                     9.5      60.799999999999997      43.699999999999996
   258   1                     9.5      62.700000000000003      41.799999999999997
   259   1      7.6000000000000014      60.799999999999997      45.599999999999987
   260   1      7.6000000000000014      62.700000000000003      47.499999999999993
   261   1                     9.5      60.799999999999997      47.499999999999993
   262   1                     9.5      62.700000000000003      45.599999999999987
   263   1      7.6000000000000014      60.799999999999997      49.399999999999991
   264   1      7.6000000000000014      62.700000000000003       51.29999999999999
   265   1                     9.5      60.799999999999997       51.29999999999999
   266   1                     9.5      62.700000000000003      49.399999999999991
   267   1      7.6000000000000014      60.799999999999997      53.199999999999989
   268   1      7.6000000000000014      62.700000000000003      55.099999999999994
   269   1                     9.5      60.799999999999997      55.099999999999994
   270   1                     9.5      62.700000000000003      53.199999999999989
   271   1      7.6000000000000014      60.799999999999997      56.999999999999986
   272   1      7.6000000000000014      62.700000000000003      58.899999999999991
   273   1                     9.5      60.799999999999997      58.899999999999991
   274   1                     9.5      62.700000000000003      56.999999999999986
   275   1      7.6000000000000014      60.799999999999997      60.799999999999997
   276   1      7.6000000000000014      62.700000000000003      62.700000000000003
   277   1                     9.5      60.799999999999997      62.700000000000003
   278   1                     9.5      62.700000000000003      60.799999999999997
   279   1                     9.5      60.799999999999997                    66.5
   280   1                     9.5      62.700000000000003      64.599999999999994
   281   1                     9.5      64.599999999999994      43.699999999999996
   282   1                     9.5      64.599999999999994      47.499999999999993
   283   1                     9.5                    66.5      45.599999999999987
   284   1      7.6000000000000014      64.599999999999994      49.399999999999991
   285   1      7.6000000000000014                    66.5       51.29999999999999
   286   1                     9.5      64.599999999999994       51.29999999999999
   287   1                     9.5                    66.5      49.399999999999991
   288   1      7.6000000000000014      64.599999999999994      53.199999999999989
   289   1      7.6000000000000014                    66.5      55.099999999999994
   290   1                     9.5      64.599999999999994      55.099999999999994
   291   1                     9.5                    66.5      53.199999999999989
   292   1      7.6000000000000014      64.599999999999994      56.999999999999986
   293   1                     9.5      64.599999999999994      58.899999999999991
   294   1                     9.5                    66.5      56.999999999999986
   295   1                     9.5      64.599999999999994      62.700000000000003
   296   1                     9.5                    66.5      60.799999999999997
   297   1                     9.5      68.399999999999991       51.29999999999999
   298   1                     9.5      68.399999999999991      55.099999999999994
   299   1                     9.5      70.299999999999997      53.199999999999989
   300   1      13.300000000000002      32.299999999999997      49.399999999999991
   301   1      13.300000000000002      32.299999999999997      53.199999999999989
   302   1      13.300000000000002      32.299999999999997      56.999999999999986
   303   1      13.300000000000002      36.099999999999994      41.799999999999997
   304   1      11.399999999999997      36.099999999999994      47.499999999999993
   305   1      13.300000000000002      34.199999999999996      47.499999999999993
   306   1      13.300000000000002      36.099999999999994      45.599999999999987
   307   1      11.399999999999997      36.099999999999994       51.29999999999999
   308   1      13.300000000000002      34.199999999999996       51.29999999999999
   309   1      13.300000000000002      36.099999999999994      49.399999999999991
   310   1      11.399999999999997      34.199999999999996      53.199999999999989
   311   1      11.399999999999997      36.099999999999994      55.099999999999994
   312   1      13.300000000000002      34.199999999999996      55.099999999999994
   313   1      13.300000000000002      36.099999999999994      53.199999999999989
   314   1      11.399999999999997      36.099999999999994      58.899999999999991
   315   1      13.300000000000002      34.199999999999996      58.899999999999991
   316   1      13.300000000000002      36.099999999999994      56.999999999999986
   317   1      13.300000000000002      36.099999999999994      60.799999999999997
   318   1      13.300000000000002      36.099999999999994      64.599999999999994
   319   1      11.399999999999997      39.899999999999991      39.899999999999991
   320   1      13.300000000000002      37.999999999999993      39.899999999999991
   321   1      13.300000000000002      39.899999999999991      37.999999999999993
   322   1      11.399999999999997      39.899999999999991      43.699999999999996
   323   1      13.300000000000002      37.999999999999993      43.699999999999996
   324   1      13.300000000000002      39.899999999999991      41.799999999999997
   325   1      11.399999999999997      37.999999999999993      45.599999999999987
   326   1      11.399999999999997      39.899999999999991      47.499999999999993
   327   1      13.300000000000002      37.999999999999993      47.499999999999993
   328   1      13.300000000000002      39.899999999999991      45.599999999999987
   329   1      11.399999999999997      37.999999999999993      49.399999999999991
   330   1      11.399999999999997      39.899999999999991       51.29999999999999
   331   1      13.300000000000002      37.999999999999993       51.29999999999999
   332   1      13.300000000000002      39.899999999999991      49.399999999999991
   333   1      11.399999999999997      37.999999999999993      53.199999999999989
   334   1      11.399999999999997      39.899999999999991      55.099999999999994
   335   1      13.300000000000002      37.999999999999993      55.099999999999994
   336   1      13.300000000000002      39.899999999999991      53.199999999999989
   337   1      11.399999999999997      37.999999999999993      56.999999999999986
   338   1      11.399999999999997      39.899999999999991      58.899999999999991
   339   1      13.300000000000002      37.999999999999993      58.899999999999991
   340   1      13.300000000000002      39.899999999999991      56.999999999999986
   341   1      11.399999999999997      37.999999999999993      60.799999999999997
   342   1      11.399999999999997      39.899999999999991      62.700000000000003
   343   1      13.300000000000002      37.999999999999993      62.700000000000003
   344   1      13.300000000000002      39.899999999999991      60.799999999999997
   345   1      11.399999999999997      39.899999999999991                    66.5
   346   1      13.300000000000002      37.999999999999993                    66.5
   347   1      13.300000000000002      39.899999999999991      64.599999999999994
   348   1      13.300000000000002      39.899999999999991      68.399999999999991
   349   1      13.300000000000002      41.799999999999997      36.099999999999994
   350   1      11.399999999999997      43.699999999999996      39.899999999999991
   351   1      13.300000000000002      41.799999999999997      39.899999999999991
   352   1      13.300000000000002      43.699999999999996      37.999999999999993
   353   1      11.399999999999997      41.799999999999997      41.799999999999997
   354   1      11.399999999999997      43.699999999999996      43.699999999999996
   355   1      13.300000000000002      41.799999999999997      43.699999999999996
   356   1      13.300000000000002      43.699999999999996      41.799999999999997
   357   1      11.399999999999997      41.799999999999997      45.599999999999987
   358   1      11.399999999999997      43.699999999999996      47.499999999999993