model_files/Pd/Pd_30000/Pd_511/data.Pd_511_fcc_30527 (written by ASE) 

30527 	 atoms 
1  atom types
0.0                      91  xlo xhi
0.0                      91  ylo yhi
0.0                      91  zlo zhi


Atoms 

     1   1      90.999999999999986      42.789999999999992      44.734999999999999
     2   1      90.999999999999986      44.734999999999999      42.789999999999992
     3   1      90.999999999999986      44.734999999999999                   46.68
     4   1      90.999999999999986                   46.68      44.734999999999999
     5   1      3.8899999999999935      23.339999999999993      44.734999999999999
     6   1      3.8899999999999935      25.284999999999997      42.789999999999992
     7   1      3.8899999999999935      27.229999999999997      40.844999999999992
     8   1      3.8899999999999935      25.284999999999997                   46.68
     9   1      3.8899999999999935      27.229999999999997      44.734999999999999
    10   1      3.8899999999999935      27.229999999999997                  48.625
    11   1      3.8899999999999935      29.174999999999997      38.899999999999991
    12   1      3.8899999999999935      31.119999999999994      36.954999999999991
    13   1      3.8899999999999935      29.174999999999997      42.789999999999992
    14   1      3.8899999999999935      31.119999999999994      40.844999999999992
    15   1      3.8899999999999935      29.174999999999997                   46.68
    16   1      3.8899999999999935      31.119999999999994      44.734999999999999
    17   1      3.8899999999999935      29.174999999999997                   50.57
    18   1      3.8899999999999935      31.119999999999994                  48.625
    19   1      3.8899999999999935      31.119999999999994      52.515000000000001
    20   1      3.8899999999999935      33.064999999999998      35.009999999999998
    21   1      3.8899999999999935      35.009999999999998      33.064999999999998
    22   1      3.8899999999999935      33.064999999999998      38.899999999999991
    23   1      3.8899999999999935      35.009999999999998      36.954999999999991
    24   1      1.9449999999999932      35.009999999999998      42.789999999999992
    25   1      3.8899999999999935      33.064999999999998      42.789999999999992
    26   1      3.8899999999999935      35.009999999999998      40.844999999999992
    27   1      1.9449999999999932      33.064999999999998      44.734999999999999
    28   1      1.9449999999999932      35.009999999999998                   46.68
    29   1      3.8899999999999935      33.064999999999998                   46.68
    30   1      3.8899999999999935      35.009999999999998      44.734999999999999
    31   1      3.8899999999999935      33.064999999999998                   50.57
    32   1      3.8899999999999935      35.009999999999998                  48.625
    33   1      3.8899999999999935      33.064999999999998      54.460000000000001
    34   1      3.8899999999999935      35.009999999999998      52.515000000000001
    35   1      3.8899999999999935      35.009999999999998      56.404999999999994
    36   1      3.8899999999999935      36.954999999999991      31.119999999999994
    37   1      3.8899999999999935      38.899999999999991      29.174999999999997
    38   1      3.8899999999999935      36.954999999999991      35.009999999999998
    39   1      3.8899999999999935      38.899999999999991      33.064999999999998
    40   1      1.9449999999999932      38.899999999999991      38.899999999999991
    41   1      3.8899999999999935      36.954999999999991      38.899999999999991
    42   1      3.8899999999999935      38.899999999999991      36.954999999999991
    43   1      1.9449999999999932      36.954999999999991      40.844999999999992
    44   1      1.9449999999999932      38.899999999999991      42.789999999999992
    45   1      3.8899999999999935      36.954999999999991      42.789999999999992
    46   1      3.8899999999999935      38.899999999999991      40.844999999999992
    47   1      1.9449999999999932      36.954999999999991      44.734999999999999
    48   1      1.9449999999999932      38.899999999999991                   46.68
    49   1      3.8899999999999935      36.954999999999991                   46.68
    50   1      3.8899999999999935      38.899999999999991      44.734999999999999
    51   1      1.9449999999999932      36.954999999999991                  48.625
    52   1      1.9449999999999932      38.899999999999991                   50.57
    53   1      3.8899999999999935      36.954999999999991                   50.57
    54   1      3.8899999999999935      38.899999999999991                  48.625
    55   1      3.8899999999999935      36.954999999999991      54.460000000000001
    56   1      3.8899999999999935      38.899999999999991      52.515000000000001
    57   1      3.8899999999999935      36.954999999999991      58.349999999999994
    58   1      3.8899999999999935      38.899999999999991      56.404999999999994
    59   1      3.8899999999999935      38.899999999999991      60.294999999999995
    60   1      3.8899999999999935      40.844999999999992      27.229999999999997
    61   1      3.8899999999999935      42.789999999999992      25.284999999999997
    62   1      3.8899999999999935      40.844999999999992      31.119999999999994
    63   1      3.8899999999999935      42.789999999999992      29.174999999999997
    64   1      1.9449999999999932      42.789999999999992      35.009999999999998
    65   1      3.8899999999999935      40.844999999999992      35.009999999999998
    66   1      3.8899999999999935      42.789999999999992      33.064999999999998
    67   1      1.9449999999999932      40.844999999999992      36.954999999999991
    68   1      1.9449999999999932      42.789999999999992      38.899999999999991
    69   1      3.8899999999999935      40.844999999999992      38.899999999999991
    70   1      3.8899999999999935      42.789999999999992      36.954999999999991
    71   1      1.9449999999999932      40.844999999999992      40.844999999999992
    72   1      1.9449999999999932      42.789999999999992      42.789999999999992
    73   1      3.8899999999999935      40.844999999999992      42.789999999999992
    74   1      3.8899999999999935      42.789999999999992      40.844999999999992
    75   1      1.9449999999999932      40.844999999999992      44.734999999999999
    76   1      1.9449999999999932      42.789999999999992                   46.68
    77   1      3.8899999999999935      40.844999999999992                   46.68
    78   1      3.8899999999999935      42.789999999999992      44.734999999999999
    79   1      1.9449999999999932      40.844999999999992                  48.625
    80   1      1.9449999999999932      42.789999999999992                   50.57
    81   1      3.8899999999999935      40.844999999999992                   50.57
    82   1      3.8899999999999935      42.789999999999992                  48.625
    83   1      1.9449999999999932      40.844999999999992      52.515000000000001
    84   1      1.9449999999999932      42.789999999999992      54.460000000000001
    85   1      3.8899999999999935      40.844999999999992      54.460000000000001
    86   1      3.8899999999999935      42.789999999999992      52.515000000000001
    87   1      3.8899999999999935      40.844999999999992      58.349999999999994
    88   1      3.8899999999999935      42.789999999999992      56.404999999999994
    89   1      3.8899999999999935      40.844999999999992      62.239999999999995
    90   1      3.8899999999999935      42.789999999999992      60.294999999999995
    91   1      3.8899999999999935      42.789999999999992      64.184999999999988
    92   1      3.8899999999999935      44.734999999999999      23.339999999999993
    93   1      3.8899999999999935      44.734999999999999      27.229999999999997
    94   1      3.8899999999999935                   46.68      25.284999999999997
    95   1      3.8899999999999935      44.734999999999999      31.119999999999994
    96   1      3.8899999999999935                   46.68      29.174999999999997
    97   1      1.9449999999999932      44.734999999999999      33.064999999999998
    98   1      1.9449999999999932                   46.68      35.009999999999998
    99   1      3.8899999999999935      44.734999999999999      35.009999999999998
   100   1      3.8899999999999935                   46.68      33.064999999999998
   101   1      1.9449999999999932      44.734999999999999      36.954999999999991
   102   1      1.9449999999999932                   46.68      38.899999999999991
   103   1      3.8899999999999935      44.734999999999999      38.899999999999991
   104   1      3.8899999999999935                   46.68      36.954999999999991
   105   1      1.9449999999999932      44.734999999999999      40.844999999999992
   106   1      1.9449999999999932                   46.68      42.789999999999992
   107   1      3.8899999999999935      44.734999999999999      42.789999999999992
   108   1      3.8899999999999935                   46.68      40.844999999999992
   109   1      1.9449999999999932      44.734999999999999      44.734999999999999
   110   1      1.9449999999999932                   46.68                   46.68
   111   1      3.8899999999999935      44.734999999999999                   46.68
   112   1      3.8899999999999935                   46.68      44.734999999999999
   113   1      1.9449999999999932      44.734999999999999                  48.625
   114   1      1.9449999999999932                   46.68                   50.57
   115   1      3.8899999999999935      44.734999999999999                   50.57
   116   1      3.8899999999999935                   46.68                  48.625
   117   1      1.9449999999999932      44.734999999999999      52.515000000000001
   118   1      1.9449999999999932                   46.68      54.460000000000001
   119   1      3.8899999999999935      44.734999999999999      54.460000000000001
   120   1      3.8899999999999935                   46.68      52.515000000000001
   121   1      1.9449999999999932      44.734999999999999      56.404999999999994
   122   1      3.8899999999999935      44.734999999999999      58.349999999999994
   123   1      3.8899999999999935                   46.68      56.404999999999994
   124   1      3.8899999999999935      44.734999999999999      62.239999999999995
   125   1      3.8899999999999935                   46.68      60.294999999999995
   126   1      3.8899999999999935      44.734999999999999      66.129999999999995
   127   1      3.8899999999999935                   46.68      64.184999999999988
   128   1      3.8899999999999935                  48.625      27.229999999999997
   129   1      3.8899999999999935                  48.625      31.119999999999994
   130   1      3.8899999999999935                   50.57      29.174999999999997
   131   1      3.8899999999999935                  48.625      35.009999999999998
   132   1      3.8899999999999935                   50.57      33.064999999999998
   133   1      1.9449999999999932                  48.625      36.954999999999991
   134   1      1.9449999999999932                   50.57      38.899999999999991
   135   1      3.8899999999999935                  48.625      38.899999999999991
   136   1      3.8899999999999935                   50.57      36.954999999999991
   137   1      1.9449999999999932                  48.625      40.844999999999992
   138   1      1.9449999999999932                   50.57      42.789999999999992
   139   1      3.8899999999999935                  48.625      42.789999999999992
   140   1      3.8899999999999935                   50.57      40.844999999999992
   141   1      1.9449999999999932                  48.625      44.734999999999999
   142   1      1.9449999999999932                   50.57                   46.68
   143   1      3.8899999999999935                  48.625                   46.68
   144   1      3.8899999999999935                   50.57      44.734999999999999
   145   1      1.9449999999999932                  48.625                  48.625
   146   1      1.9449999999999932                   50.57                   50.57
   147   1      3.8899999999999935                  48.625                   50.57
   148   1      3.8899999999999935                   50.57                  48.625
   149   1      1.9449999999999932                  48.625      52.515000000000001
   150   1      3.8899999999999935                  48.625      54.460000000000001
   151   1      3.8899999999999935                   50.57      52.515000000000001
   152   1      3.8899999999999935                  48.625      58.349999999999994
   153   1      3.8899999999999935                   50.57      56.404999999999994
   154   1      3.8899999999999935                  48.625      62.239999999999995
   155   1      3.8899999999999935                   50.57      60.294999999999995
   156   1      3.8899999999999935      52.515000000000001      31.119999999999994
   157   1      3.8899999999999935      52.515000000000001      35.009999999999998
   158   1      3.8899999999999935      54.460000000000001      33.064999999999998
   159   1      3.8899999999999935      52.515000000000001      38.899999999999991
   160   1      3.8899999999999935      54.460000000000001      36.954999999999991
   161   1      1.9449999999999932      52.515000000000001      40.844999999999992
   162   1      1.9449999999999932      54.460000000000001      42.789999999999992
   163   1      3.8899999999999935      52.515000000000001      42.789999999999992
   164   1      3.8899999999999935      54.460000000000001      40.844999999999992
   165   1      1.9449999999999932      52.515000000000001      44.734999999999999
   166   1      1.9449999999999932      54.460000000000001                   46.68
   167   1      3.8899999999999935      52.515000000000001                   46.68
   168   1      3.8899999999999935      54.460000000000001      44.734999999999999
   169   1      1.9449999999999932      52.515000000000001                  48.625
   170   1      3.8899999999999935      52.515000000000001                   50.57
   171   1      3.8899999999999935      54.460000000000001                  48.625
   172   1      3.8899999999999935      52.515000000000001      54.460000000000001
   173   1      3.8899999999999935      54.460000000000001      52.515000000000001
   174   1      3.8899999999999935      52.515000000000001      58.349999999999994
   175   1      3.8899999999999935      54.460000000000001      56.404999999999994
   176   1      3.8899999999999935      56.404999999999994      35.009999999999998
   177   1      3.8899999999999935      56.404999999999994      38.899999999999991
   178   1      3.8899999999999935      58.349999999999994      36.954999999999991
   179   1      3.8899999999999935      56.404999999999994      42.789999999999992
   180   1      3.8899999999999935      58.349999999999994      40.844999999999992
   181   1      1.9449999999999932      56.404999999999994      44.734999999999999
   182   1      3.8899999999999935      56.404999999999994                   46.68
   183   1      3.8899999999999935      58.349999999999994      44.734999999999999
   184   1      3.8899999999999935      56.404999999999994                   50.57
   185   1      3.8899999999999935      58.349999999999994                  48.625
   186   1      3.8899999999999935      56.404999999999994      54.460000000000001
   187   1      3.8899999999999935      58.349999999999994      52.515000000000001
   188   1      3.8899999999999935      60.294999999999995      38.899999999999991
   189   1      3.8899999999999935      60.294999999999995      42.789999999999992
   190   1      3.8899999999999935      62.239999999999995      40.844999999999992
   191   1      3.8899999999999935      60.294999999999995                   46.68
   192   1      3.8899999999999935      62.239999999999995      44.734999999999999
   193   1      3.8899999999999935      60.294999999999995                   50.57
   194   1      3.8899999999999935      62.239999999999995                  48.625
   195   1      3.8899999999999935      64.184999999999988      42.789999999999992
   196   1      3.8899999999999935      64.184999999999988                   46.68
   197   1      3.8899999999999935      66.129999999999995      44.734999999999999
   198   1      7.7799999999999949      7.7799999999999949      40.844999999999992
   199   1      7.7799999999999949      7.7799999999999949      44.734999999999999
   200   1      7.7799999999999949      7.7799999999999949                  48.625
   201   1      7.7799999999999949      9.7249999999999943      38.899999999999991
   202   1      7.7799999999999949      11.669999999999995      36.954999999999991
   203   1      7.7799999999999949      9.7249999999999943      42.789999999999992
   204   1      7.7799999999999949      11.669999999999995      40.844999999999992
   205   1      7.7799999999999949      9.7249999999999943                   46.68
   206   1      7.7799999999999949      11.669999999999995      44.734999999999999
   207   1      7.7799999999999949      9.7249999999999943                   50.57
   208   1      7.7799999999999949      11.669999999999995                  48.625
   209   1      7.7799999999999949      11.669999999999995      52.515000000000001
   210   1      7.7799999999999949      13.614999999999995      35.009999999999998
   211   1      7.7799999999999949      15.559999999999992      33.064999999999998
   212   1      7.7799999999999949      13.614999999999995      38.899999999999991
   213   1      7.7799999999999949      15.559999999999992      36.954999999999991
   214   1      5.8349999999999946      15.559999999999992      42.789999999999992
   215   1      7.7799999999999949      13.614999999999995      42.789999999999992
   216   1      7.7799999999999949      15.559999999999992      40.844999999999992
   217   1      5.8349999999999946      13.614999999999995      44.734999999999999
   218   1      5.8349999999999946      15.559999999999992                   46.68
   219   1      7.7799999999999949      13.614999999999995                   46.68
   220   1      7.7799999999999949      15.559999999999992      44.734999999999999
   221   1      7.7799999999999949      13.614999999999995                   50.57
   222   1      7.7799999999999949      15.559999999999992                  48.625
   223   1      7.7799999999999949      13.614999999999995      54.460000000000001
   224   1      7.7799999999999949      15.559999999999992      52.515000000000001
   225   1      7.7799999999999949      15.559999999999992      56.404999999999994
   226   1      7.7799999999999949      17.504999999999992      31.119999999999994
   227   1      7.7799999999999949      19.449999999999996      29.174999999999997
   228   1      7.7799999999999949      17.504999999999992      35.009999999999998
   229   1      7.7799999999999949      19.449999999999996      33.064999999999998
   230   1      5.8349999999999946      19.449999999999996      38.899999999999991
   231   1      7.7799999999999949      17.504999999999992      38.899999999999991
   232   1      7.7799999999999949      19.449999999999996      36.954999999999991
   233   1      5.8349999999999946      17.504999999999992      40.844999999999992
   234   1      5.8349999999999946      19.449999999999996      42.789999999999992
   235   1      7.7799999999999949      17.504999999999992      42.789999999999992
   236   1      7.7799999999999949      19.449999999999996      40.844999999999992
   237   1      5.8349999999999946      17.504999999999992      44.734999999999999
   238   1      5.8349999999999946      19.449999999999996                   46.68
   239   1      7.7799999999999949      17.504999999999992                   46.68
   240   1      7.7799999999999949      19.449999999999996      44.734999999999999
   241   1      5.8349999999999946      17.504999999999992                  48.625
   242   1      5.8349999999999946      19.449999999999996                   50.57
   243   1      7.7799999999999949      17.504999999999992                   50.57
   244   1      7.7799999999999949      19.449999999999996                  48.625
   245   1      7.7799999999999949      17.504999999999992      54.460000000000001
   246   1      7.7799999999999949      19.449999999999996      52.515000000000001
   247   1      7.7799999999999949      17.504999999999992      58.349999999999994
   248   1      7.7799999999999949      19.449999999999996      56.404999999999994
   249   1      7.7799999999999949      19.449999999999996      60.294999999999995
   250   1      7.7799999999999949      21.394999999999996      27.229999999999997
   251   1      7.7799999999999949      23.339999999999993      25.284999999999997
   252   1      7.7799999999999949      21.394999999999996      31.119999999999994
   253   1      7.7799999999999949      23.339999999999993      29.174999999999997
   254   1      5.8349999999999946      23.339999999999993      35.009999999999998
   255   1      7.7799999999999949      21.394999999999996      35.009999999999998
   256   1      7.7799999999999949      23.339999999999993      33.064999999999998
   257   1      5.8349999999999946      21.394999999999996      36.954999999999991
   258   1      5.8349999999999946      23.339999999999993      38.899999999999991
   259   1      7.7799999999999949      21.394999999999996      38.899999999999991
   260   1      7.7799999999999949      23.339999999999993      36.954999999999991
   261   1      5.8349999999999946      21.394999999999996      40.844999999999992
   262   1      5.8349999999999946      23.339999999999993      42.789999999999992
   263   1      7.7799999999999949      21.394999999999996      42.789999999999992
   264   1      7.7799999999999949      23.339999999999993      40.844999999999992
   265   1      5.8349999999999946      21.394999999999996      44.734999999999999
   266   1      5.8349999999999946      23.339999999999993                   46.68
   267   1      7.7799999999999949      21.394999999999996                   46.68
   268   1      7.7799999999999949      23.339999999999993      44.734999999999999
   269   1      5.8349999999999946      21.394999999999996                  48.625
   270   1      5.8349999999999946      23.339999999999993                   50.57
   271   1      7.7799999999999949      21.394999999999996                   50.57
   272   1      7.7799999999999949      23.339999999999993                  48.625
   273   1      5.8349999999999946      21.394999999999996      52.515000000000001
   274   1      5.8349999999999946      23.339999999999993      54.460000000000001
   275   1      7.7799999999999949      21.394999999999996      54.460000000000001
   276   1      7.7799999999999949      23.339999999999993      52.515000000000001
   277   1      7.7799999999999949      21.394999999999996      58.349999999999994
   278   1      7.7799999999999949      23.339999999999993      56.404999999999994
   279   1      7.7799999999999949      21.394999999999996      62.239999999999995
   280   1      7.7799999999999949      23.339999999999993      60.294999999999995
   281   1      7.7799999999999949      23.339999999999993      64.184999999999988
   282   1      7.7799999999999949      25.284999999999997      23.339999999999993
   283   1      7.7799999999999949      27.229999999999997      21.394999999999996
   284   1      7.7799999999999949      25.284999999999997      27.229999999999997
   285   1      7.7799999999999949      27.229999999999997      25.284999999999997
   286   1      5.8349999999999946      27.229999999999997      31.119999999999994
   287   1      7.7799999999999949      25.284999999999997      31.119999999999994
   288   1      7.7799999999999949      27.229999999999997      29.174999999999997
   289   1      5.8349999999999946      25.284999999999997      33.064999999999998
   290   1      5.8349999999999946      27.229999999999997      35.009999999999998
   291   1      7.7799999999999949      25.284999999999997      35.009999999999998
   292   1      7.7799999999999949      27.229999999999997      33.064999999999998
   293   1      5.8349999999999946      25.284999999999997      36.954999999999991
   294   1      5.8349999999999946      27.229999999999997      38.899999999999991
   295   1      7.7799999999999949      25.284999999999997      38.899999999999991
   296   1      7.7799999999999949      27.229999999999997      36.954999999999991
   297   1      5.8349999999999946      25.284999999999997      40.844999999999992
   298   1      5.8349999999999946      27.229999999999997      42.789999999999992
   299   1      7.7799999999999949      25.284999999999997      42.789999999999992
   300   1      7.7799999999999949      27.229999999999997      40.844999999999992
   301   1      5.8349999999999946      25.284999999999997      44.734999999999999
   302   1      5.8349999999999946      27.229999999999997                   46.68
   303   1      7.7799999999999949      25.284999999999997                   46.68
   304   1      7.7799999999999949      27.229999999999997      44.734999999999999
   305   1      5.8349999999999946      25.284999999999997                  48.625
   306   1      5.8349999999999946      27.229999999999997                   50.57
   307   1      7.7799999999999949      25.284999999999997                   50.57
   308   1      7.7799999999999949      27.229999999999997                  48.625
   309   1      5.8349999999999946      25.284999999999997      52.515000000000001
   310   1      5.8349999999999946      27.229999999999997      54.460000000000001
   311   1      7.7799999999999949      25.284999999999997      54.460000000000001
   312   1      7.7799999999999949      27.229999999999997      52.515000000000001
   313   1      5.8349999999999946      25.284999999999997      56.404999999999994
   314   1      5.8349999999999946      27.229999999999997      58.349999999999994
   315   1      7.7799999999999949      25.284999999999997      58.349999999999994
   316   1      7.7799999999999949      27.229999999999997      56.404999999999994
   317   1      7.7799999999999949      25.284999999999997      62.239999999999995
   318   1      7.7799999999999949      27.229999999999997      60.294999999999995
   319   1      7.7799999999999949      25.284999999999997      66.129999999999995
   320   1      7.7799999999999949      27.229999999999997      64.184999999999988
   321   1      7.7799999999999949      27.229999999999997      68.074999999999989
   322   1      7.7799999999999949      29.174999999999997      19.449999999999996
   323   1      7.7799999999999949      31.119999999999994      17.504999999999992
   324   1      7.7799999999999949      29.174999999999997      23.339999999999993
   325   1      7.7799999999999949      31.119999999999994      21.394999999999996
   326   1      5.8349999999999946      31.119999999999994      27.229999999999997
   327   1      7.7799999999999949      29.174999999999997      27.229999999999997
   328   1      7.7799999999999949      31.119999999999994      25.284999999999997
   329   1      5.8349999999999946      29.174999999999997      29.174999999999997
   330   1      5.8349999999999946      31.119999999999994      31.119999999999994
   331   1      7.7799999999999949      29.174999999999997      31.119999999999994
   332   1      7.7799999999999949      31.119999999999994      29.174999999999997
   333   1      5.8349999999999946      29.174999999999997      33.064999999999998
   334   1      5.8349999999999946      31.119999999999994      35.009999999999998
   335   1      7.7799999999999949      29.174999999999997      35.009999999999998
   336   1      7.7799999999999949      31.119999999999994      33.064999999999998
   337   1      5.8349999999999946      29.174999999999997      36.954999999999991
   338   1      5.8349999999999946      31.119999999999994      38.899999999999991
   339   1      7.7799999999999949      29.174999999999997      38.899999999999991
   340   1      7.7799999999999949      31.119999999999994      36.954999999999991
   341   1      5.8349999999999946      29.174999999999997      40.844999999999992
   342   1      5.8349999999999946      31.119999999999994      42.789999999999992
   343   1      7.7799999999999949      29.174999999999997      42.789999999999992
   344   1      7.7799999999999949      31.119999999999994      40.844999999999992
   345   1      5.8349999999999946      29.174999999999997      44.734999999999999
   346   1      5.8349999999999946      31.119999999999994                   46.68
   347   1      7.7799999999999949      29.174999999999997                   46.68
   348   1      7.7799999999999949      31.119999999999994      44.734999999999999
   349   1      5.8349999999999946      29.174999999999997                  48.625
   350   1      5.8349999999999946      31.119999999999994                   50.57
   351   1      7.7799999999999949      29.174999999999997                   50.57
   352   1      7.7799999999999949      31.119999999999994                  48.625
   353   1      5.8349999999999946      29.174999999999997      52.515000000000001
   354   1      5.8349999999999946      31.119999999999994      54.460000000000001
   355   1      7.7799999999999949      29.174999999999997      54.460000000000001
   356   1      7.7799999999999949      31.119999999999994      52.515000000000001
   357   1      5.8349999999999946      29.174999999999997      56.404999999999994
   358   1      5.8349999999999946      31.119999999999994      58.349999999999994