model_files/PtCo/PtCo_30000/PtCo_533/PtCo_533_fcc_30085_temp.data (written by ASE) 

30085 	 atoms 
2  atom types
0.0                     107  xlo xhi
0.0                     107  ylo yhi
0.0                     107  zlo zhi


Atoms 

     1   1                       0      51.099999999999994       52.92499999999999
     2   1                       0       52.92499999999999      51.099999999999994
     3   1                       0       52.92499999999999      54.749999999999993
     4   1                       0      54.749999999999993       52.92499999999999
     5   1      3.6499999999999986      47.449999999999996       52.92499999999999
     6   1      1.8249999999999955      51.099999999999994      51.099999999999994
     7   1      3.6499999999999986      49.274999999999999      51.099999999999994
     8   1      3.6499999999999986      51.099999999999994      49.274999999999999
     9   1      1.8249999999999955      49.274999999999999       52.92499999999999
    10   1      1.8249999999999955      51.099999999999994      54.749999999999993
    11   1      3.6499999999999986      49.274999999999999      54.749999999999993
    12   1      3.6499999999999986      51.099999999999994       52.92499999999999
    13   1      3.6499999999999986      51.099999999999994      56.574999999999996
    14   1      3.6499999999999986       52.92499999999999      47.449999999999996
    15   1      1.8249999999999955       52.92499999999999      49.274999999999999
    16   1      1.8249999999999955      54.749999999999993      51.099999999999994
    17   1      3.6499999999999986       52.92499999999999      51.099999999999994
    18   1      3.6499999999999986      54.749999999999993      49.274999999999999
    19   1      1.8249999999999955       52.92499999999999       52.92499999999999
    20   1      1.8249999999999955      54.749999999999993      54.749999999999993
    21   1      3.6499999999999986       52.92499999999999      54.749999999999993
    22   1      3.6499999999999986      54.749999999999993       52.92499999999999
    23   1      1.8249999999999955       52.92499999999999      56.574999999999996
    24   1      3.6499999999999986       52.92499999999999      58.399999999999999
    25   1      3.6499999999999986      54.749999999999993      56.574999999999996
    26   1      3.6499999999999986      56.574999999999996      51.099999999999994
    27   1      1.8249999999999955      56.574999999999996       52.92499999999999
    28   1      3.6499999999999986      56.574999999999996      54.749999999999993
    29   1      3.6499999999999986      58.399999999999999       52.92499999999999
    30   1      7.2999999999999972      40.149999999999991       52.92499999999999
    31   1      5.4749999999999934      43.799999999999997      51.099999999999994
    32   1      7.2999999999999972      41.974999999999994      51.099999999999994
    33   1      7.2999999999999972      43.799999999999997      49.274999999999999
    34   1      5.4749999999999934      41.974999999999994       52.92499999999999
    35   1      5.4749999999999934      43.799999999999997      54.749999999999993
    36   1      7.2999999999999972      41.974999999999994      54.749999999999993
    37   1      7.2999999999999972      43.799999999999997       52.92499999999999
    38   1      7.2999999999999972      43.799999999999997      56.574999999999996
    39   1      5.4749999999999934      47.449999999999996      47.449999999999996
    40   1      7.2999999999999972      45.624999999999986      47.449999999999996
    41   1      7.2999999999999972      47.449999999999996      45.624999999999986
    42   1      5.4749999999999934      45.624999999999986      49.274999999999999
    43   1      5.4749999999999934      47.449999999999996      51.099999999999994
    44   1      7.2999999999999972      45.624999999999986      51.099999999999994
    45   1      7.2999999999999972      47.449999999999996      49.274999999999999
    46   1      5.4749999999999934      45.624999999999986       52.92499999999999
    47   1      5.4749999999999934      47.449999999999996      54.749999999999993
    48   1      7.2999999999999972      45.624999999999986      54.749999999999993
    49   1      7.2999999999999972      47.449999999999996       52.92499999999999
    50   1      5.4749999999999934      45.624999999999986      56.574999999999996
    51   1      5.4749999999999934      47.449999999999996      58.399999999999999
    52   1      7.2999999999999972      45.624999999999986      58.399999999999999
    53   1      7.2999999999999972      47.449999999999996      56.574999999999996
    54   1      7.2999999999999972      47.449999999999996      60.224999999999994
    55   1      5.4749999999999934      51.099999999999994      43.799999999999997
    56   1      7.2999999999999972      49.274999999999999      43.799999999999997
    57   1      7.2999999999999972      51.099999999999994      41.974999999999994
    58   1      5.4749999999999934      49.274999999999999      45.624999999999986
    59   1      5.4749999999999934      51.099999999999994      47.449999999999996
    60   1      7.2999999999999972      49.274999999999999      47.449999999999996
    61   1      7.2999999999999972      51.099999999999994      45.624999999999986
    62   1      5.4749999999999934      49.274999999999999      49.274999999999999
    63   1      5.4749999999999934      51.099999999999994      51.099999999999994
    64   1      7.2999999999999972      49.274999999999999      51.099999999999994
    65   1      7.2999999999999972      51.099999999999994      49.274999999999999
    66   1      5.4749999999999934      49.274999999999999       52.92499999999999
    67   1      5.4749999999999934      51.099999999999994      54.749999999999993
    68   1      7.2999999999999972      49.274999999999999      54.749999999999993
    69   1      7.2999999999999972      51.099999999999994       52.92499999999999
    70   1      5.4749999999999934      49.274999999999999      56.574999999999996
    71   1      5.4749999999999934      51.099999999999994      58.399999999999999
    72   1      7.2999999999999972      49.274999999999999      58.399999999999999
    73   1      7.2999999999999972      51.099999999999994      56.574999999999996
    74   1      5.4749999999999934      49.274999999999999      60.224999999999994
    75   1      5.4749999999999934      51.099999999999994      62.049999999999997
    76   1      7.2999999999999972      49.274999999999999      62.049999999999997
    77   1      7.2999999999999972      51.099999999999994      60.224999999999994
    78   1      7.2999999999999972      51.099999999999994                  63.875
    79   1      7.2999999999999972       52.92499999999999      40.149999999999991
    80   1      5.4749999999999934       52.92499999999999      41.974999999999994
    81   1      5.4749999999999934      54.749999999999993      43.799999999999997
    82   1      7.2999999999999972       52.92499999999999      43.799999999999997
    83   1      7.2999999999999972      54.749999999999993      41.974999999999994
    84   1      5.4749999999999934       52.92499999999999      45.624999999999986
    85   1      5.4749999999999934      54.749999999999993      47.449999999999996
    86   1      7.2999999999999972       52.92499999999999      47.449999999999996
    87   1      7.2999999999999972      54.749999999999993      45.624999999999986
    88   1      5.4749999999999934       52.92499999999999      49.274999999999999
    89   1      5.4749999999999934      54.749999999999993      51.099999999999994
    90   1      7.2999999999999972       52.92499999999999      51.099999999999994
    91   1      7.2999999999999972      54.749999999999993      49.274999999999999
    92   1      5.4749999999999934       52.92499999999999       52.92499999999999
    93   1      5.4749999999999934      54.749999999999993      54.749999999999993
    94   1      7.2999999999999972       52.92499999999999      54.749999999999993
    95   1      7.2999999999999972      54.749999999999993       52.92499999999999
    96   1      5.4749999999999934       52.92499999999999      56.574999999999996
    97   1      5.4749999999999934      54.749999999999993      58.399999999999999
    98   1      7.2999999999999972       52.92499999999999      58.399999999999999
    99   1      7.2999999999999972      54.749999999999993      56.574999999999996
   100   1      5.4749999999999934       52.92499999999999      60.224999999999994
   101   1      5.4749999999999934      54.749999999999993      62.049999999999997
   102   1      7.2999999999999972       52.92499999999999      62.049999999999997
   103   1      7.2999999999999972      54.749999999999993      60.224999999999994
   104   1      5.4749999999999934       52.92499999999999                  63.875
   105   1      7.2999999999999972       52.92499999999999      65.700000000000003
   106   1      7.2999999999999972      54.749999999999993                  63.875
   107   1      7.2999999999999972      56.574999999999996      43.799999999999997
   108   1      5.4749999999999934      56.574999999999996      45.624999999999986
   109   1      5.4749999999999934      58.399999999999999      47.449999999999996
   110   1      7.2999999999999972      56.574999999999996      47.449999999999996
   111   1      7.2999999999999972      58.399999999999999      45.624999999999986
   112   1      5.4749999999999934      56.574999999999996      49.274999999999999
   113   1      5.4749999999999934      58.399999999999999      51.099999999999994
   114   1      7.2999999999999972      56.574999999999996      51.099999999999994
   115   1      7.2999999999999972      58.399999999999999      49.274999999999999
   116   1      5.4749999999999934      56.574999999999996       52.92499999999999
   117   1      5.4749999999999934      58.399999999999999      54.749999999999993
   118   1      7.2999999999999972      56.574999999999996      54.749999999999993
   119   1      7.2999999999999972      58.399999999999999       52.92499999999999
   120   1      5.4749999999999934      56.574999999999996      56.574999999999996
   121   1      5.4749999999999934      58.399999999999999      58.399999999999999
   122   1      7.2999999999999972      56.574999999999996      58.399999999999999
   123   1      7.2999999999999972      58.399999999999999      56.574999999999996
   124   1      5.4749999999999934      56.574999999999996      60.224999999999994
   125   1      7.2999999999999972      56.574999999999996      62.049999999999997
   126   1      7.2999999999999972      58.399999999999999      60.224999999999994
   127   1      7.2999999999999972      60.224999999999994      47.449999999999996
   128   1      5.4749999999999934      60.224999999999994      49.274999999999999
   129   1      5.4749999999999934      62.049999999999997      51.099999999999994
   130   1      7.2999999999999972      60.224999999999994      51.099999999999994
   131   1      7.2999999999999972      62.049999999999997      49.274999999999999
   132   1      5.4749999999999934      60.224999999999994       52.92499999999999
   133   1      5.4749999999999934      62.049999999999997      54.749999999999993
   134   1      7.2999999999999972      60.224999999999994      54.749999999999993
   135   1      7.2999999999999972      62.049999999999997       52.92499999999999
   136   1      5.4749999999999934      60.224999999999994      56.574999999999996
   137   1      7.2999999999999972      60.224999999999994      58.399999999999999
   138   1      7.2999999999999972      62.049999999999997      56.574999999999996
   139   1      7.2999999999999972                  63.875      51.099999999999994
   140   1      5.4749999999999934                  63.875       52.92499999999999
   141   1      7.2999999999999972                  63.875      54.749999999999993
   142   1      7.2999999999999972      65.700000000000003       52.92499999999999
   143   1      10.949999999999994      32.850000000000001       52.92499999999999
   144   1      10.949999999999994      34.674999999999997      51.099999999999994
   145   1      10.949999999999994                    36.5      49.274999999999999
   146   1      10.949999999999994      34.674999999999997      54.749999999999993
   147   1      10.949999999999994                    36.5       52.92499999999999
   148   1      10.949999999999994                    36.5      56.574999999999996
   149   1      10.949999999999994      38.324999999999989      47.449999999999996
   150   1      10.949999999999994      40.149999999999991      45.624999999999986
   151   1                   9.125      40.149999999999991      51.099999999999994
   152   1      10.949999999999994      38.324999999999989      51.099999999999994
   153   1      10.949999999999994      40.149999999999991      49.274999999999999
   154   1                   9.125      38.324999999999989       52.92499999999999
   155   1                   9.125      40.149999999999991      54.749999999999993
   156   1      10.949999999999994      38.324999999999989      54.749999999999993
   157   1      10.949999999999994      40.149999999999991       52.92499999999999
   158   1      10.949999999999994      38.324999999999989      58.399999999999999
   159   1      10.949999999999994      40.149999999999991      56.574999999999996
   160   1      10.949999999999994      40.149999999999991      60.224999999999994
   161   1      10.949999999999994      41.974999999999994      43.799999999999997
   162   1      10.949999999999994      43.799999999999997      41.974999999999994
   163   1                   9.125      43.799999999999997      47.449999999999996
   164   1      10.949999999999994      41.974999999999994      47.449999999999996
   165   1      10.949999999999994      43.799999999999997      45.624999999999986
   166   1                   9.125      41.974999999999994      49.274999999999999
   167   1                   9.125      43.799999999999997      51.099999999999994
   168   1      10.949999999999994      41.974999999999994      51.099999999999994
   169   1      10.949999999999994      43.799999999999997      49.274999999999999
   170   1                   9.125      41.974999999999994       52.92499999999999
   171   1                   9.125      43.799999999999997      54.749999999999993
   172   1      10.949999999999994      41.974999999999994      54.749999999999993
   173   1      10.949999999999994      43.799999999999997       52.92499999999999
   174   1                   9.125      41.974999999999994      56.574999999999996
   175   1                   9.125      43.799999999999997      58.399999999999999
   176   1      10.949999999999994      41.974999999999994      58.399999999999999
   177   1      10.949999999999994      43.799999999999997      56.574999999999996
   178   1      10.949999999999994      41.974999999999994      62.049999999999997
   179   1      10.949999999999994      43.799999999999997      60.224999999999994
   180   1      10.949999999999994      43.799999999999997                  63.875
   181   1      10.949999999999994      45.624999999999986      40.149999999999991
   182   1      10.949999999999994      47.449999999999996      38.324999999999989
   183   1                   9.125      47.449999999999996      43.799999999999997
   184   1      10.949999999999994      45.624999999999986      43.799999999999997
   185   1      10.949999999999994      47.449999999999996      41.974999999999994
   186   1                   9.125      45.624999999999986      45.624999999999986
   187   1                   9.125      47.449999999999996      47.449999999999996
   188   1      10.949999999999994      45.624999999999986      47.449999999999996
   189   1      10.949999999999994      47.449999999999996      45.624999999999986
   190   1                   9.125      45.624999999999986      49.274999999999999
   191   1                   9.125      47.449999999999996      51.099999999999994
   192   1      10.949999999999994      45.624999999999986      51.099999999999994
   193   1      10.949999999999994      47.449999999999996      49.274999999999999
   194   1                   9.125      45.624999999999986       52.92499999999999
   195   1                   9.125      47.449999999999996      54.749999999999993
   196   1      10.949999999999994      45.624999999999986      54.749999999999993
   197   1      10.949999999999994      47.449999999999996       52.92499999999999
   198   1                   9.125      45.624999999999986      56.574999999999996
   199   1                   9.125      47.449999999999996      58.399999999999999
   200   1      10.949999999999994      45.624999999999986      58.399999999999999
   201   1      10.949999999999994      47.449999999999996      56.574999999999996
   202   1                   9.125      45.624999999999986      60.224999999999994
   203   1                   9.125      47.449999999999996      62.049999999999997
   204   1      10.949999999999994      45.624999999999986      62.049999999999997
   205   1      10.949999999999994      47.449999999999996      60.224999999999994
   206   1      10.949999999999994      45.624999999999986      65.700000000000003
   207   1      10.949999999999994      47.449999999999996                  63.875
   208   1      10.949999999999994      47.449999999999996      67.524999999999977
   209   1      10.949999999999994      49.274999999999999                    36.5
   210   1      10.949999999999994      51.099999999999994      34.674999999999997
   211   1                   9.125      51.099999999999994      40.149999999999991
   212   1      10.949999999999994      49.274999999999999      40.149999999999991
   213   1      10.949999999999994      51.099999999999994      38.324999999999989
   214   1                   9.125      49.274999999999999      41.974999999999994
   215   1                   9.125      51.099999999999994      43.799999999999997
   216   1      10.949999999999994      49.274999999999999      43.799999999999997
   217   1      10.949999999999994      51.099999999999994      41.974999999999994
   218   1                   9.125      49.274999999999999      45.624999999999986
   219   1                   9.125      51.099999999999994      47.449999999999996
   220   1      10.949999999999994      49.274999999999999      47.449999999999996
   221   1      10.949999999999994      51.099999999999994      45.624999999999986
   222   1                   9.125      49.274999999999999      49.274999999999999
   223   1                   9.125      51.099999999999994      51.099999999999994
   224   1      10.949999999999994      49.274999999999999      51.099999999999994
   225   1      10.949999999999994      51.099999999999994      49.274999999999999
   226   1                   9.125      49.274999999999999       52.92499999999999
   227   1                   9.125      51.099999999999994      54.749999999999993
   228   1      10.949999999999994      49.274999999999999      54.749999999999993
   229   1      10.949999999999994      51.099999999999994       52.92499999999999
   230   1                   9.125      49.274999999999999      56.574999999999996
   231   1                   9.125      51.099999999999994      58.399999999999999
   232   1      10.949999999999994      49.274999999999999      58.399999999999999
   233   1      10.949999999999994      51.099999999999994      56.574999999999996
   234   1                   9.125      49.274999999999999      60.224999999999994
   235   1                   9.125      51.099999999999994      62.049999999999997
   236   1      10.949999999999994      49.274999999999999      62.049999999999997
   237   1      10.949999999999994      51.099999999999994      60.224999999999994
   238   1                   9.125      49.274999999999999                  63.875
   239   1                   9.125      51.099999999999994      65.700000000000003
   240   1      10.949999999999994      49.274999999999999      65.700000000000003
   241   1      10.949999999999994      51.099999999999994                  63.875
   242   1      10.949999999999994      49.274999999999999      69.349999999999994
   243   1      10.949999999999994      51.099999999999994      67.524999999999977
   244   1      10.949999999999994      51.099999999999994      71.174999999999997
   245   1      10.949999999999994       52.92499999999999      32.850000000000001
   246   1      10.949999999999994       52.92499999999999                    36.5
   247   1      10.949999999999994      54.749999999999993      34.674999999999997
   248   1                   9.125       52.92499999999999      38.324999999999989
   249   1                   9.125      54.749999999999993      40.149999999999991
   250   1      10.949999999999994       52.92499999999999      40.149999999999991
   251   1      10.949999999999994      54.749999999999993      38.324999999999989
   252   1                   9.125       52.92499999999999      41.974999999999994
   253   1                   9.125      54.749999999999993      43.799999999999997
   254   1      10.949999999999994       52.92499999999999      43.799999999999997
   255   1      10.949999999999994      54.749999999999993      41.974999999999994
   256   1                   9.125       52.92499999999999      45.624999999999986
   257   1                   9.125      54.749999999999993      47.449999999999996
   258   1      10.949999999999994       52.92499999999999      47.449999999999996
   259   1      10.949999999999994      54.749999999999993      45.624999999999986
   260   1                   9.125       52.92499999999999      49.274999999999999
   261   1                   9.125      54.749999999999993      51.099999999999994
   262   1      10.949999999999994       52.92499999999999      51.099999999999994
   263   1      10.949999999999994      54.749999999999993      49.274999999999999
   264   1                   9.125       52.92499999999999       52.92499999999999
   265   1                   9.125      54.749999999999993      54.749999999999993
   266   1      10.949999999999994       52.92499999999999      54.749999999999993
   267   1      10.949999999999994      54.749999999999993       52.92499999999999
   268   1                   9.125       52.92499999999999      56.574999999999996
   269   1                   9.125      54.749999999999993      58.399999999999999
   270   1      10.949999999999994       52.92499999999999      58.399999999999999
   271   1      10.949999999999994      54.749999999999993      56.574999999999996
   272   1                   9.125       52.92499999999999      60.224999999999994
   273   1                   9.125      54.749999999999993      62.049999999999997
   274   1      10.949999999999994       52.92499999999999      62.049999999999997
   275   1      10.949999999999994      54.749999999999993      60.224999999999994
   276   1                   9.125       52.92499999999999                  63.875
   277   1                   9.125      54.749999999999993      65.700000000000003
   278   1      10.949999999999994       52.92499999999999      65.700000000000003
   279   1      10.949999999999994      54.749999999999993                  63.875
   280   1                   9.125       52.92499999999999      67.524999999999977
   281   1      10.949999999999994       52.92499999999999      69.349999999999994
   282   1      10.949999999999994      54.749999999999993      67.524999999999977
   283   1      10.949999999999994       52.92499999999999                      73
   284   1      10.949999999999994      54.749999999999993      71.174999999999997
   285   1      10.949999999999994      56.574999999999996                    36.5
   286   1      10.949999999999994      56.574999999999996      40.149999999999991
   287   1      10.949999999999994      58.399999999999999      38.324999999999989
   288   1                   9.125      56.574999999999996      41.974999999999994
   289   1                   9.125      58.399999999999999      43.799999999999997
   290   1      10.949999999999994      56.574999999999996      43.799999999999997
   291   1      10.949999999999994      58.399999999999999      41.974999999999994
   292   1                   9.125      56.574999999999996      45.624999999999986
   293   1                   9.125      58.399999999999999      47.449999999999996
   294   1      10.949999999999994      56.574999999999996      47.449999999999996
   295   1      10.949999999999994      58.399999999999999      45.624999999999986
   296   1                   9.125      56.574999999999996      49.274999999999999
   297   1                   9.125      58.399999999999999      51.099999999999994
   298   1      10.949999999999994      56.574999999999996      51.099999999999994
   299   1      10.949999999999994      58.399999999999999      49.274999999999999
   300   1                   9.125      56.574999999999996       52.92499999999999
   301   1                   9.125      58.399999999999999      54.749999999999993
   302   1      10.949999999999994      56.574999999999996      54.749999999999993
   303   1      10.949999999999994      58.399999999999999       52.92499999999999
   304   1                   9.125      56.574999999999996      56.574999999999996
   305   1                   9.125      58.399999999999999      58.399999999999999
   306   1      10.949999999999994      56.574999999999996      58.399999999999999
   307   1      10.949999999999994      58.399999999999999      56.574999999999996
   308   1                   9.125      56.574999999999996      60.224999999999994
   309   1                   9.125      58.399999999999999      62.049999999999997
   310   1      10.949999999999994      56.574999999999996      62.049999999999997
   311   1      10.949999999999994      58.399999999999999      60.224999999999994
   312   1                   9.125      56.574999999999996                  63.875
   313   1      10.949999999999994      56.574999999999996      65.700000000000003
   314   1      10.949999999999994      58.399999999999999                  63.875
   315   1      10.949999999999994      56.574999999999996      69.349999999999994
   316   1      10.949999999999994      58.399999999999999      67.524999999999977
   317   1      10.949999999999994      60.224999999999994      40.149999999999991
   318   1      10.949999999999994      60.224999999999994      43.799999999999997
   319   1      10.949999999999994      62.049999999999997      41.974999999999994
   320   1                   9.125      60.224999999999994      45.624999999999986
   321   1                   9.125      62.049999999999997      47.449999999999996
   322   1      10.949999999999994      60.224999999999994      47.449999999999996
   323   1      10.949999999999994      62.049999999999997      45.624999999999986
   324   1                   9.125      60.224999999999994      49.274999999999999
   325   1                   9.125      62.049999999999997      51.099999999999994
   326   1      10.949999999999994      60.224999999999994      51.099999999999994
   327   1      10.949999999999994      62.049999999999997      49.274999999999999
   328   1                   9.125      60.224999999999994       52.92499999999999
   329   1                   9.125      62.049999999999997      54.749999999999993
   330   1      10.949999999999994      60.224999999999994      54.749999999999993
   331   1      10.949999999999994      62.049999999999997       52.92499999999999
   332   1                   9.125      60.224999999999994      56.574999999999996
   333   1                   9.125      62.049999999999997      58.399999999999999
   334   1      10.949999999999994      60.224999999999994      58.399999999999999
   335   1      10.949999999999994      62.049999999999997      56.574999999999996
   336   1                   9.125      60.224999999999994      60.224999999999994
   337   1      10.949999999999994      60.224999999999994      62.049999999999997
   338   1      10.949999999999994      62.049999999999997      60.224999999999994
   339   1      10.949999999999994      60.224999999999994      65.700000000000003
   340   1      10.949999999999994      62.049999999999997                  63.875
   341   1      10.949999999999994                  63.875      43.799999999999997
   342   1      10.949999999999994                  63.875      47.449999999999996
   343   1      10.949999999999994      65.700000000000003      45.624999999999986
   344   1                   9.125                  63.875      49.274999999999999
   345   1                   9.125      65.700000000000003      51.099999999999994
   346   1      10.949999999999994                  63.875      51.099999999999994
   347   1      10.949999999999994      65.700000000000003      49.274999999999999
   348   1                   9.125                  63.875       52.92499999999999
   349   1                   9.125      65.700000000000003      54.749999999999993
   350   1      10.949999999999994                  63.875      54.749999999999993
   351   1      10.949999999999994      65.700000000000003       52.92499999999999
   352   1                   9.125                  63.875      56.574999999999996
   353   1      10.949999999999994                  63.875      58.399999999999999
   354   1      10.949999999999994      65.700000000000003      56.574999999999996
   355   1      10.949999999999994                  63.875      62.049999999999997
   356   1      10.949999999999994      65.700000000000003      60.224999999999994
   357   1      10.949999999999994      67.524999999999977      47.449999999999996
   358   1      10.949999999999994      67.524999999999977      51.099999999999994