model_files/PtNi/PtNi_30000/PtNi_521/PtNi_521_fcc_30329_temp.data (written by ASE) 

30329 	 atoms 
2  atom types
0.0                      97  xlo xhi
0.0                      97  ylo yhi
0.0                      97  zlo zhi


Atoms 

     1   1  7.1054273576010019e-15      45.960000000000008      47.875000000000007
     2   1  7.1054273576010019e-15      47.875000000000007      45.960000000000008
     3   1  7.1054273576010019e-15      47.875000000000007      49.790000000000006
     4   1  7.1054273576010019e-15      49.790000000000006      47.875000000000007
     5   1      3.8300000000000058      36.385000000000005      45.960000000000008
     6   1      3.8300000000000058      38.300000000000004      44.045000000000009
     7   1      3.8300000000000058      36.385000000000005      49.790000000000006
     8   1      3.8300000000000058      38.300000000000004      47.875000000000007
     9   1      3.8300000000000058      38.300000000000004       51.70500000000002
    10   1      3.8300000000000058      40.215000000000011       42.13000000000001
    11   1      3.8300000000000058       42.13000000000001      40.215000000000011
    12   1      1.9150000000000063       42.13000000000001      45.960000000000008
    13   1      3.8300000000000058      40.215000000000011      45.960000000000008
    14   1      3.8300000000000058       42.13000000000001      44.045000000000009
    15   1      1.9150000000000063      40.215000000000011      47.875000000000007
    16   1      1.9150000000000063       42.13000000000001      49.790000000000006
    17   1      3.8300000000000058      40.215000000000011      49.790000000000006
    18   1      3.8300000000000058       42.13000000000001      47.875000000000007
    19   1      3.8300000000000058      40.215000000000011      53.620000000000005
    20   1      3.8300000000000058       42.13000000000001       51.70500000000002
    21   1      3.8300000000000058       42.13000000000001      55.535000000000011
    22   1      3.8300000000000058      44.045000000000009      38.300000000000004
    23   1      3.8300000000000058      45.960000000000008      36.385000000000005
    24   1      1.9150000000000063      45.960000000000008       42.13000000000001
    25   1      3.8300000000000058      44.045000000000009       42.13000000000001
    26   1      3.8300000000000058      45.960000000000008      40.215000000000011
    27   1      1.9150000000000063      44.045000000000009      44.045000000000009
    28   1      1.9150000000000063      45.960000000000008      45.960000000000008
    29   1      3.8300000000000058      44.045000000000009      45.960000000000008
    30   1      3.8300000000000058      45.960000000000008      44.045000000000009
    31   1      1.9150000000000063      44.045000000000009      47.875000000000007
    32   1      1.9150000000000063      45.960000000000008      49.790000000000006
    33   1      3.8300000000000058      44.045000000000009      49.790000000000006
    34   1      3.8300000000000058      45.960000000000008      47.875000000000007
    35   1      1.9150000000000063      44.045000000000009       51.70500000000002
    36   1      1.9150000000000063      45.960000000000008      53.620000000000005
    37   1      3.8300000000000058      44.045000000000009      53.620000000000005
    38   1      3.8300000000000058      45.960000000000008       51.70500000000002
    39   1      3.8300000000000058      44.045000000000009       57.45000000000001
    40   1      3.8300000000000058      45.960000000000008      55.535000000000011
    41   1      3.8300000000000058      45.960000000000008      59.365000000000016
    42   1      3.8300000000000058      47.875000000000007      38.300000000000004
    43   1      3.8300000000000058      49.790000000000006      36.385000000000005
    44   1      1.9150000000000063      47.875000000000007      40.215000000000011
    45   1      1.9150000000000063      49.790000000000006       42.13000000000001
    46   1      3.8300000000000058      47.875000000000007       42.13000000000001
    47   1      3.8300000000000058      49.790000000000006      40.215000000000011
    48   1      1.9150000000000063      47.875000000000007      44.045000000000009
    49   1      1.9150000000000063      49.790000000000006      45.960000000000008
    50   1      3.8300000000000058      47.875000000000007      45.960000000000008
    51   1      3.8300000000000058      49.790000000000006      44.045000000000009
    52   1      1.9150000000000063      47.875000000000007      47.875000000000007
    53   1      1.9150000000000063      49.790000000000006      49.790000000000006
    54   1      3.8300000000000058      47.875000000000007      49.790000000000006
    55   1      3.8300000000000058      49.790000000000006      47.875000000000007
    56   1      1.9150000000000063      47.875000000000007       51.70500000000002
    57   1      1.9150000000000063      49.790000000000006      53.620000000000005
    58   1      3.8300000000000058      47.875000000000007      53.620000000000005
    59   1      3.8300000000000058      49.790000000000006       51.70500000000002
    60   1      1.9150000000000063      47.875000000000007      55.535000000000011
    61   1      3.8300000000000058      47.875000000000007       57.45000000000001
    62   1      3.8300000000000058      49.790000000000006      55.535000000000011
    63   1      3.8300000000000058      49.790000000000006      59.365000000000016
    64   1      3.8300000000000058       51.70500000000002      38.300000000000004
    65   1      3.8300000000000058       51.70500000000002       42.13000000000001
    66   1      3.8300000000000058      53.620000000000005      40.215000000000011
    67   1      1.9150000000000063       51.70500000000002      44.045000000000009
    68   1      1.9150000000000063      53.620000000000005      45.960000000000008
    69   1      3.8300000000000058       51.70500000000002      45.960000000000008
    70   1      3.8300000000000058      53.620000000000005      44.045000000000009
    71   1      1.9150000000000063       51.70500000000002      47.875000000000007
    72   1      1.9150000000000063      53.620000000000005      49.790000000000006
    73   1      3.8300000000000058       51.70500000000002      49.790000000000006
    74   1      3.8300000000000058      53.620000000000005      47.875000000000007
    75   1      1.9150000000000063       51.70500000000002       51.70500000000002
    76   1      3.8300000000000058       51.70500000000002      53.620000000000005
    77   1      3.8300000000000058      53.620000000000005       51.70500000000002
    78   1      3.8300000000000058       51.70500000000002       57.45000000000001
    79   1      3.8300000000000058      53.620000000000005      55.535000000000011
    80   1      3.8300000000000058      55.535000000000011       42.13000000000001
    81   1      3.8300000000000058      55.535000000000011      45.960000000000008
    82   1      3.8300000000000058       57.45000000000001      44.045000000000009
    83   1      1.9150000000000063      55.535000000000011      47.875000000000007
    84   1      3.8300000000000058      55.535000000000011      49.790000000000006
    85   1      3.8300000000000058       57.45000000000001      47.875000000000007
    86   1      3.8300000000000058      55.535000000000011      53.620000000000005
    87   1      3.8300000000000058       57.45000000000001       51.70500000000002
    88   1      3.8300000000000058      59.365000000000016      45.960000000000008
    89   1      3.8300000000000058      59.365000000000016      49.790000000000006
    90   1      7.6600000000000028      26.810000000000009      47.875000000000007
    91   1      7.6600000000000028      28.725000000000005       42.13000000000001
    92   1      7.6600000000000028      30.640000000000008      40.215000000000011
    93   1      7.6600000000000028      28.725000000000005      45.960000000000008
    94   1      7.6600000000000028      30.640000000000008      44.045000000000009
    95   1      7.6600000000000028      28.725000000000005      49.790000000000006
    96   1      7.6600000000000028      30.640000000000008      47.875000000000007
    97   1      7.6600000000000028      28.725000000000005      53.620000000000005
    98   1      7.6600000000000028      30.640000000000008       51.70500000000002
    99   1      7.6600000000000028      30.640000000000008      55.535000000000011
   100   1      7.6600000000000028      32.555000000000007      34.470000000000006
   101   1      7.6600000000000028      34.470000000000006      32.555000000000007
   102   1      7.6600000000000028      32.555000000000007      38.300000000000004
   103   1      7.6600000000000028      34.470000000000006      36.385000000000005
   104   1      5.7450000000000117      34.470000000000006       42.13000000000001
   105   1      7.6600000000000028      32.555000000000007       42.13000000000001
   106   1      7.6600000000000028      34.470000000000006      40.215000000000011
   107   1      5.7450000000000117      32.555000000000007      44.045000000000009
   108   1      5.7450000000000117      34.470000000000006      45.960000000000008
   109   1      7.6600000000000028      32.555000000000007      45.960000000000008
   110   1      7.6600000000000028      34.470000000000006      44.045000000000009
   111   1      5.7450000000000117      32.555000000000007      47.875000000000007
   112   1      5.7450000000000117      34.470000000000006      49.790000000000006
   113   1      7.6600000000000028      32.555000000000007      49.790000000000006
   114   1      7.6600000000000028      34.470000000000006      47.875000000000007
   115   1      5.7450000000000117      32.555000000000007       51.70500000000002
   116   1      5.7450000000000117      34.470000000000006      53.620000000000005
   117   1      7.6600000000000028      32.555000000000007      53.620000000000005
   118   1      7.6600000000000028      34.470000000000006       51.70500000000002
   119   1      7.6600000000000028      32.555000000000007       57.45000000000001
   120   1      7.6600000000000028      34.470000000000006      55.535000000000011
   121   1      7.6600000000000028      32.555000000000007      61.280000000000001
   122   1      7.6600000000000028      34.470000000000006      59.365000000000016
   123   1      7.6600000000000028      34.470000000000006      63.195000000000007
   124   1      7.6600000000000028      36.385000000000005      34.470000000000006
   125   1      7.6600000000000028      38.300000000000004      32.555000000000007
   126   1      5.7450000000000117      36.385000000000005      36.385000000000005
   127   1      5.7450000000000117      38.300000000000004      38.300000000000004
   128   1      7.6600000000000028      36.385000000000005      38.300000000000004
   129   1      7.6600000000000028      38.300000000000004      36.385000000000005
   130   1      5.7450000000000117      36.385000000000005      40.215000000000011
   131   1      5.7450000000000117      38.300000000000004       42.13000000000001
   132   1      7.6600000000000028      36.385000000000005       42.13000000000001
   133   1      7.6600000000000028      38.300000000000004      40.215000000000011
   134   1      5.7450000000000117      36.385000000000005      44.045000000000009
   135   1      5.7450000000000117      38.300000000000004      45.960000000000008
   136   1      7.6600000000000028      36.385000000000005      45.960000000000008
   137   1      7.6600000000000028      38.300000000000004      44.045000000000009
   138   1      5.7450000000000117      36.385000000000005      47.875000000000007
   139   1      5.7450000000000117      38.300000000000004      49.790000000000006
   140   1      7.6600000000000028      36.385000000000005      49.790000000000006
   141   1      7.6600000000000028      38.300000000000004      47.875000000000007
   142   1      5.7450000000000117      36.385000000000005       51.70500000000002
   143   1      5.7450000000000117      38.300000000000004      53.620000000000005
   144   1      7.6600000000000028      36.385000000000005      53.620000000000005
   145   1      7.6600000000000028      38.300000000000004       51.70500000000002
   146   1      5.7450000000000117      36.385000000000005      55.535000000000011
   147   1      5.7450000000000117      38.300000000000004       57.45000000000001
   148   1      7.6600000000000028      36.385000000000005       57.45000000000001
   149   1      7.6600000000000028      38.300000000000004      55.535000000000011
   150   1      5.7450000000000117      36.385000000000005      59.365000000000016
   151   1      7.6600000000000028      36.385000000000005      61.280000000000001
   152   1      7.6600000000000028      38.300000000000004      59.365000000000016
   153   1      7.6600000000000028      38.300000000000004      63.195000000000007
   154   1      7.6600000000000028      40.215000000000011      30.640000000000008
   155   1      7.6600000000000028       42.13000000000001      28.725000000000005
   156   1      5.7450000000000117       42.13000000000001      34.470000000000006
   157   1      7.6600000000000028      40.215000000000011      34.470000000000006
   158   1      7.6600000000000028       42.13000000000001      32.555000000000007
   159   1      5.7450000000000117      40.215000000000011      36.385000000000005
   160   1      5.7450000000000117       42.13000000000001      38.300000000000004
   161   1      7.6600000000000028      40.215000000000011      38.300000000000004
   162   1      7.6600000000000028       42.13000000000001      36.385000000000005
   163   1      5.7450000000000117      40.215000000000011      40.215000000000011
   164   1      5.7450000000000117       42.13000000000001       42.13000000000001
   165   1      7.6600000000000028      40.215000000000011       42.13000000000001
   166   1      7.6600000000000028       42.13000000000001      40.215000000000011
   167   1      5.7450000000000117      40.215000000000011      44.045000000000009
   168   1      5.7450000000000117       42.13000000000001      45.960000000000008
   169   1      7.6600000000000028      40.215000000000011      45.960000000000008
   170   1      7.6600000000000028       42.13000000000001      44.045000000000009
   171   1      5.7450000000000117      40.215000000000011      47.875000000000007
   172   1      5.7450000000000117       42.13000000000001      49.790000000000006
   173   1      7.6600000000000028      40.215000000000011      49.790000000000006
   174   1      7.6600000000000028       42.13000000000001      47.875000000000007
   175   1      5.7450000000000117      40.215000000000011       51.70500000000002
   176   1      5.7450000000000117       42.13000000000001      53.620000000000005
   177   1      7.6600000000000028      40.215000000000011      53.620000000000005
   178   1      7.6600000000000028       42.13000000000001       51.70500000000002
   179   1      5.7450000000000117      40.215000000000011      55.535000000000011
   180   1      5.7450000000000117       42.13000000000001       57.45000000000001
   181   1      7.6600000000000028      40.215000000000011       57.45000000000001
   182   1      7.6600000000000028       42.13000000000001      55.535000000000011
   183   1      5.7450000000000117      40.215000000000011      59.365000000000016
   184   1      5.7450000000000117       42.13000000000001      61.280000000000001
   185   1      7.6600000000000028      40.215000000000011      61.280000000000001
   186   1      7.6600000000000028       42.13000000000001      59.365000000000016
   187   1      7.6600000000000028      40.215000000000011      65.110000000000014
   188   1      7.6600000000000028       42.13000000000001      63.195000000000007
   189   1      7.6600000000000028       42.13000000000001      67.025000000000006
   190   1      7.6600000000000028      44.045000000000009      30.640000000000008
   191   1      7.6600000000000028      45.960000000000008      28.725000000000005
   192   1      5.7450000000000117      44.045000000000009      32.555000000000007
   193   1      5.7450000000000117      45.960000000000008      34.470000000000006
   194   1      7.6600000000000028      44.045000000000009      34.470000000000006
   195   1      7.6600000000000028      45.960000000000008      32.555000000000007
   196   1      5.7450000000000117      44.045000000000009      36.385000000000005
   197   1      5.7450000000000117      45.960000000000008      38.300000000000004
   198   1      7.6600000000000028      44.045000000000009      38.300000000000004
   199   1      7.6600000000000028      45.960000000000008      36.385000000000005
   200   1      5.7450000000000117      44.045000000000009      40.215000000000011
   201   1      5.7450000000000117      45.960000000000008       42.13000000000001
   202   1      7.6600000000000028      44.045000000000009       42.13000000000001
   203   1      7.6600000000000028      45.960000000000008      40.215000000000011
   204   1      5.7450000000000117      44.045000000000009      44.045000000000009
   205   1      5.7450000000000117      45.960000000000008      45.960000000000008
   206   1      7.6600000000000028      44.045000000000009      45.960000000000008
   207   1      7.6600000000000028      45.960000000000008      44.045000000000009
   208   1      5.7450000000000117      44.045000000000009      47.875000000000007
   209   1      5.7450000000000117      45.960000000000008      49.790000000000006
   210   1      7.6600000000000028      44.045000000000009      49.790000000000006
   211   1      7.6600000000000028      45.960000000000008      47.875000000000007
   212   1      5.7450000000000117      44.045000000000009       51.70500000000002
   213   1      5.7450000000000117      45.960000000000008      53.620000000000005
   214   1      7.6600000000000028      44.045000000000009      53.620000000000005
   215   1      7.6600000000000028      45.960000000000008       51.70500000000002
   216   1      5.7450000000000117      44.045000000000009      55.535000000000011
   217   1      5.7450000000000117      45.960000000000008       57.45000000000001
   218   1      7.6600000000000028      44.045000000000009       57.45000000000001
   219   1      7.6600000000000028      45.960000000000008      55.535000000000011
   220   1      5.7450000000000117      44.045000000000009      59.365000000000016
   221   1      5.7450000000000117      45.960000000000008      61.280000000000001
   222   1      7.6600000000000028      44.045000000000009      61.280000000000001
   223   1      7.6600000000000028      45.960000000000008      59.365000000000016
   224   1      5.7450000000000117      44.045000000000009      63.195000000000007
   225   1      7.6600000000000028      44.045000000000009      65.110000000000014
   226   1      7.6600000000000028      45.960000000000008      63.195000000000007
   227   1      7.6600000000000028      45.960000000000008      67.025000000000006
   228   1      7.6600000000000028      47.875000000000007      26.810000000000009
   229   1      7.6600000000000028      47.875000000000007      30.640000000000008
   230   1      7.6600000000000028      49.790000000000006      28.725000000000005
   231   1      5.7450000000000117      47.875000000000007      32.555000000000007
   232   1      5.7450000000000117      49.790000000000006      34.470000000000006
   233   1      7.6600000000000028      47.875000000000007      34.470000000000006
   234   1      7.6600000000000028      49.790000000000006      32.555000000000007
   235   1      5.7450000000000117      47.875000000000007      36.385000000000005
   236   1      5.7450000000000117      49.790000000000006      38.300000000000004
   237   1      7.6600000000000028      47.875000000000007      38.300000000000004
   238   1      7.6600000000000028      49.790000000000006      36.385000000000005
   239   1      5.7450000000000117      47.875000000000007      40.215000000000011
   240   1      5.7450000000000117      49.790000000000006       42.13000000000001
   241   1      7.6600000000000028      47.875000000000007       42.13000000000001
   242   1      7.6600000000000028      49.790000000000006      40.215000000000011
   243   1      5.7450000000000117      47.875000000000007      44.045000000000009
   244   1      5.7450000000000117      49.790000000000006      45.960000000000008
   245   1      7.6600000000000028      47.875000000000007      45.960000000000008
   246   1      7.6600000000000028      49.790000000000006      44.045000000000009
   247   1      5.7450000000000117      47.875000000000007      47.875000000000007
   248   1      5.7450000000000117      49.790000000000006      49.790000000000006
   249   1      7.6600000000000028      47.875000000000007      49.790000000000006
   250   1      7.6600000000000028      49.790000000000006      47.875000000000007
   251   1      5.7450000000000117      47.875000000000007       51.70500000000002
   252   1      5.7450000000000117      49.790000000000006      53.620000000000005
   253   1      7.6600000000000028      47.875000000000007      53.620000000000005
   254   1      7.6600000000000028      49.790000000000006       51.70500000000002
   255   1      5.7450000000000117      47.875000000000007      55.535000000000011
   256   1      5.7450000000000117      49.790000000000006       57.45000000000001
   257   1      7.6600000000000028      47.875000000000007       57.45000000000001
   258   1      7.6600000000000028      49.790000000000006      55.535000000000011
   259   1      5.7450000000000117      47.875000000000007      59.365000000000016
   260   1      5.7450000000000117      49.790000000000006      61.280000000000001
   261   1      7.6600000000000028      47.875000000000007      61.280000000000001
   262   1      7.6600000000000028      49.790000000000006      59.365000000000016
   263   1      5.7450000000000117      47.875000000000007      63.195000000000007
   264   1      7.6600000000000028      47.875000000000007      65.110000000000014
   265   1      7.6600000000000028      49.790000000000006      63.195000000000007
   266   1      7.6600000000000028      47.875000000000007      68.940000000000012
   267   1      7.6600000000000028      49.790000000000006      67.025000000000006
   268   1      7.6600000000000028       51.70500000000002      30.640000000000008
   269   1      7.6600000000000028      53.620000000000005      28.725000000000005
   270   1      5.7450000000000117       51.70500000000002      32.555000000000007
   271   1      5.7450000000000117      53.620000000000005      34.470000000000006
   272   1      7.6600000000000028       51.70500000000002      34.470000000000006
   273   1      7.6600000000000028      53.620000000000005      32.555000000000007
   274   1      5.7450000000000117       51.70500000000002      36.385000000000005
   275   1      5.7450000000000117      53.620000000000005      38.300000000000004
   276   1      7.6600000000000028       51.70500000000002      38.300000000000004
   277   1      7.6600000000000028      53.620000000000005      36.385000000000005
   278   1      5.7450000000000117       51.70500000000002      40.215000000000011
   279   1      5.7450000000000117      53.620000000000005       42.13000000000001
   280   1      7.6600000000000028       51.70500000000002       42.13000000000001
   281   1      7.6600000000000028      53.620000000000005      40.215000000000011
   282   1      5.7450000000000117       51.70500000000002      44.045000000000009
   283   1      5.7450000000000117      53.620000000000005      45.960000000000008
   284   1      7.6600000000000028       51.70500000000002      45.960000000000008
   285   1      7.6600000000000028      53.620000000000005      44.045000000000009
   286   1      5.7450000000000117       51.70500000000002      47.875000000000007
   287   1      5.7450000000000117      53.620000000000005      49.790000000000006
   288   1      7.6600000000000028       51.70500000000002      49.790000000000006
   289   1      7.6600000000000028      53.620000000000005      47.875000000000007
   290   1      5.7450000000000117       51.70500000000002       51.70500000000002
   291   1      5.7450000000000117      53.620000000000005      53.620000000000005
   292   1      7.6600000000000028       51.70500000000002      53.620000000000005
   293   1      7.6600000000000028      53.620000000000005       51.70500000000002
   294   1      5.7450000000000117       51.70500000000002      55.535000000000011
   295   1      5.7450000000000117      53.620000000000005       57.45000000000001
   296   1      7.6600000000000028       51.70500000000002       57.45000000000001
   297   1      7.6600000000000028      53.620000000000005      55.535000000000011
   298   1      5.7450000000000117       51.70500000000002      59.365000000000016
   299   1      5.7450000000000117      53.620000000000005      61.280000000000001
   300   1      7.6600000000000028       51.70500000000002      61.280000000000001
   301   1      7.6600000000000028      53.620000000000005      59.365000000000016
   302   1      5.7450000000000117       51.70500000000002      63.195000000000007
   303   1      7.6600000000000028       51.70500000000002      65.110000000000014
   304   1      7.6600000000000028      53.620000000000005      63.195000000000007
   305   1      7.6600000000000028      53.620000000000005      67.025000000000006
   306   1      7.6600000000000028      55.535000000000011      30.640000000000008
   307   1      7.6600000000000028      55.535000000000011      34.470000000000006
   308   1      7.6600000000000028       57.45000000000001      32.555000000000007
   309   1      5.7450000000000117      55.535000000000011      36.385000000000005
   310   1      5.7450000000000117       57.45000000000001      38.300000000000004
   311   1      7.6600000000000028      55.535000000000011      38.300000000000004
   312   1      7.6600000000000028       57.45000000000001      36.385000000000005
   313   1      5.7450000000000117      55.535000000000011      40.215000000000011
   314   1      5.7450000000000117       57.45000000000001       42.13000000000001
   315   1      7.6600000000000028      55.535000000000011       42.13000000000001
   316   1      7.6600000000000028       57.45000000000001      40.215000000000011
   317   1      5.7450000000000117      55.535000000000011      44.045000000000009
   318   1      5.7450000000000117       57.45000000000001      45.960000000000008
   319   1      7.6600000000000028      55.535000000000011      45.960000000000008
   320   1      7.6600000000000028       57.45000000000001      44.045000000000009
   321   1      5.7450000000000117      55.535000000000011      47.875000000000007
   322   1      5.7450000000000117       57.45000000000001      49.790000000000006
   323   1      7.6600000000000028      55.535000000000011      49.790000000000006
   324   1      7.6600000000000028       57.45000000000001      47.875000000000007
   325   1      5.7450000000000117      55.535000000000011       51.70500000000002
   326   1      5.7450000000000117       57.45000000000001      53.620000000000005
   327   1      7.6600000000000028      55.535000000000011      53.620000000000005
   328   1      7.6600000000000028       57.45000000000001       51.70500000000002
   329   1      5.7450000000000117      55.535000000000011      55.535000000000011
   330   1      5.7450000000000117       57.45000000000001       57.45000000000001
   331   1      7.6600000000000028      55.535000000000011       57.45000000000001
   332   1      7.6600000000000028       57.45000000000001      55.535000000000011
   333   1      5.7450000000000117      55.535000000000011      59.365000000000016
   334   1      7.6600000000000028      55.535000000000011      61.280000000000001
   335   1      7.6600000000000028       57.45000000000001      59.365000000000016
   336   1      7.6600000000000028      55.535000000000011      65.110000000000014
   337   1      7.6600000000000028       57.45000000000001      63.195000000000007
   338   1      7.6600000000000028      59.365000000000016      34.470000000000006
   339   1      7.6600000000000028      61.280000000000001      32.555000000000007
   340   1      5.7450000000000117      59.365000000000016      36.385000000000005
   341   1      7.6600000000000028      59.365000000000016      38.300000000000004
   342   1      7.6600000000000028      61.280000000000001      36.385000000000005
   343   1      5.7450000000000117      59.365000000000016      40.215000000000011
   344   1      5.7450000000000117      61.280000000000001       42.13000000000001
   345   1      7.6600000000000028      59.365000000000016       42.13000000000001
   346   1      7.6600000000000028      61.280000000000001      40.215000000000011
   347   1      5.7450000000000117      59.365000000000016      44.045000000000009
   348   1      5.7450000000000117      61.280000000000001      45.960000000000008
   349   1      7.6600000000000028      59.365000000000016      45.960000000000008
   350   1      7.6600000000000028      61.280000000000001      44.045000000000009
   351   1      5.7450000000000117      59.365000000000016      47.875000000000007
   352   1      5.7450000000000117      61.280000000000001      49.790000000000006
   353   1      7.6600000000000028      59.365000000000016      49.790000000000006
   354   1      7.6600000000000028      61.280000000000001      47.875000000000007
   355   1      5.7450000000000117      59.365000000000016       51.70500000000002
   356   1      5.7450000000000117      61.280000000000001      53.620000000000005
   357   1      7.6600000000000028      59.365000000000016      53.620000000000005
   358   1      7.6600000000000028      61.280000000000001       51.70500000000002