model_files/NiFeCrCoAl/NiFeCrCoAl_30000/NiFeCrCoAl_543/NiFeCrCoAl_543_fcc_30079_temp.data (written by ASE) 

30079 	 atoms 
5  atom types
0.0                     113  xlo xhi
0.0                     113  ylo yhi
0.0                     113  zlo zhi


Atoms 

     1   1  7.1054273576010019e-15      54.150000000000006      55.955000000000005
     2   1  7.1054273576010019e-15      55.955000000000005      54.150000000000006
     3   1  7.1054273576010019e-15      55.955000000000005      57.759999999999998
     4   1  7.1054273576010019e-15      57.759999999999998      55.955000000000005
     5   1      3.6100000000000061      50.540000000000006      55.955000000000005
     6   1      1.8050000000000066      54.150000000000006      54.150000000000006
     7   1      3.6100000000000061      52.345000000000006      54.150000000000006
     8   1      3.6100000000000061      54.150000000000006      52.345000000000006
     9   1      1.8050000000000066      52.345000000000006      55.955000000000005
    10   1      1.8050000000000066      54.150000000000006      57.759999999999998
    11   1      3.6100000000000061      52.345000000000006      57.759999999999998
    12   1      3.6100000000000061      54.150000000000006      55.955000000000005
    13   1      3.6100000000000061      54.150000000000006      59.565000000000005
    14   1      3.6100000000000061      55.955000000000005      50.540000000000006
    15   1      1.8050000000000066      55.955000000000005      52.345000000000006
    16   1      1.8050000000000066      57.759999999999998      54.150000000000006
    17   1      3.6100000000000061      55.955000000000005      54.150000000000006
    18   1      3.6100000000000061      57.759999999999998      52.345000000000006
    19   1      1.8050000000000066      55.955000000000005      55.955000000000005
    20   1      1.8050000000000066      57.759999999999998      57.759999999999998
    21   1      3.6100000000000061      55.955000000000005      57.759999999999998
    22   1      3.6100000000000061      57.759999999999998      55.955000000000005
    23   1      1.8050000000000066      55.955000000000005      59.565000000000005
    24   1      3.6100000000000061      55.955000000000005      61.370000000000012
    25   1      3.6100000000000061      57.759999999999998      59.565000000000005
    26   1      3.6100000000000061      59.565000000000005      54.150000000000006
    27   1      1.8050000000000066      59.565000000000005      55.955000000000005
    28   1      3.6100000000000061      59.565000000000005      57.759999999999998
    29   1      3.6100000000000061      61.370000000000012      55.955000000000005
    30   1       7.220000000000006      46.930000000000007      55.955000000000005
    31   1      5.4150000000000063      50.540000000000006      54.150000000000006
    32   1       7.220000000000006      48.735000000000007      54.150000000000006
    33   1       7.220000000000006      50.540000000000006      52.345000000000006
    34   1      5.4150000000000063      48.735000000000007      55.955000000000005
    35   1      5.4150000000000063      50.540000000000006      57.759999999999998
    36   1       7.220000000000006      48.735000000000007      57.759999999999998
    37   1       7.220000000000006      50.540000000000006      55.955000000000005
    38   1       7.220000000000006      50.540000000000006      59.565000000000005
    39   1      5.4150000000000063      54.150000000000006      50.540000000000006
    40   1       7.220000000000006      52.345000000000006      50.540000000000006
    41   1       7.220000000000006      54.150000000000006      48.735000000000007
    42   1      5.4150000000000063      52.345000000000006      52.345000000000006
    43   1      5.4150000000000063      54.150000000000006      54.150000000000006
    44   1       7.220000000000006      52.345000000000006      54.150000000000006
    45   1       7.220000000000006      54.150000000000006      52.345000000000006
    46   1      5.4150000000000063      52.345000000000006      55.955000000000005
    47   1      5.4150000000000063      54.150000000000006      57.759999999999998
    48   1       7.220000000000006      52.345000000000006      57.759999999999998
    49   1       7.220000000000006      54.150000000000006      55.955000000000005
    50   1      5.4150000000000063      52.345000000000006      59.565000000000005
    51   1      5.4150000000000063      54.150000000000006      61.370000000000012
    52   1       7.220000000000006      52.345000000000006      61.370000000000012
    53   1       7.220000000000006      54.150000000000006      59.565000000000005
    54   1       7.220000000000006      54.150000000000006      63.175000000000011
    55   1       7.220000000000006      55.955000000000005      46.930000000000007
    56   1      5.4150000000000063      55.955000000000005      48.735000000000007
    57   1      5.4150000000000063      57.759999999999998      50.540000000000006
    58   1       7.220000000000006      55.955000000000005      50.540000000000006
    59   1       7.220000000000006      57.759999999999998      48.735000000000007
    60   1      5.4150000000000063      55.955000000000005      52.345000000000006
    61   1      5.4150000000000063      57.759999999999998      54.150000000000006
    62   1       7.220000000000006      55.955000000000005      54.150000000000006
    63   1       7.220000000000006      57.759999999999998      52.345000000000006
    64   1      5.4150000000000063      55.955000000000005      55.955000000000005
    65   1      5.4150000000000063      57.759999999999998      57.759999999999998
    66   1       7.220000000000006      55.955000000000005      57.759999999999998
    67   1       7.220000000000006      57.759999999999998      55.955000000000005
    68   1      5.4150000000000063      55.955000000000005      59.565000000000005
    69   1      5.4150000000000063      57.759999999999998      61.370000000000012
    70   1       7.220000000000006      55.955000000000005      61.370000000000012
    71   1       7.220000000000006      57.759999999999998      59.565000000000005
    72   1      5.4150000000000063      55.955000000000005      63.175000000000011
    73   1       7.220000000000006      55.955000000000005      64.980000000000018
    74   1       7.220000000000006      57.759999999999998      63.175000000000011
    75   1       7.220000000000006      59.565000000000005      50.540000000000006
    76   1      5.4150000000000063      59.565000000000005      52.345000000000006
    77   1      5.4150000000000063      61.370000000000012      54.150000000000006
    78   1       7.220000000000006      59.565000000000005      54.150000000000006
    79   1       7.220000000000006      61.370000000000012      52.345000000000006
    80   1      5.4150000000000063      59.565000000000005      55.955000000000005
    81   1      5.4150000000000063      61.370000000000012      57.759999999999998
    82   1       7.220000000000006      59.565000000000005      57.759999999999998
    83   1       7.220000000000006      61.370000000000012      55.955000000000005
    84   1      5.4150000000000063      59.565000000000005      59.565000000000005
    85   1       7.220000000000006      59.565000000000005      61.370000000000012
    86   1       7.220000000000006      61.370000000000012      59.565000000000005
    87   1       7.220000000000006      63.175000000000011      54.150000000000006
    88   1      5.4150000000000063      63.175000000000011      55.955000000000005
    89   1       7.220000000000006      63.175000000000011      57.759999999999998
    90   1       7.220000000000006      64.980000000000018      55.955000000000005
    91   1      10.830000000000005      43.320000000000007      52.345000000000006
    92   1      10.830000000000005      43.320000000000007      55.955000000000005
    93   1      10.830000000000005      43.320000000000007      59.565000000000005
    94   1      9.0250000000000057      46.930000000000007      50.540000000000006
    95   1      10.830000000000005      45.125000000000007      50.540000000000006
    96   1      10.830000000000005      46.930000000000007      48.735000000000007
    97   1      9.0250000000000057      46.930000000000007      54.150000000000006
    98   1      10.830000000000005      45.125000000000007      54.150000000000006
    99   1      10.830000000000005      46.930000000000007      52.345000000000006
   100   1      9.0250000000000057      45.125000000000007      55.955000000000005
   101   1      9.0250000000000057      46.930000000000007      57.759999999999998
   102   1      10.830000000000005      45.125000000000007      57.759999999999998
   103   1      10.830000000000005      46.930000000000007      55.955000000000005
   104   1      9.0250000000000057      46.930000000000007      61.370000000000012
   105   1      10.830000000000005      45.125000000000007      61.370000000000012
   106   1      10.830000000000005      46.930000000000007      59.565000000000005
   107   1      10.830000000000005      46.930000000000007      63.175000000000011
   108   1      9.0250000000000057      50.540000000000006      46.930000000000007
   109   1      10.830000000000005      48.735000000000007      46.930000000000007
   110   1      10.830000000000005      50.540000000000006      45.125000000000007
   111   1      9.0250000000000057      48.735000000000007      48.735000000000007
   112   1      9.0250000000000057      50.540000000000006      50.540000000000006
   113   1      10.830000000000005      48.735000000000007      50.540000000000006
   114   1      10.830000000000005      50.540000000000006      48.735000000000007
   115   1      9.0250000000000057      48.735000000000007      52.345000000000006
   116   1      9.0250000000000057      50.540000000000006      54.150000000000006
   117   1      10.830000000000005      48.735000000000007      54.150000000000006
   118   1      10.830000000000005      50.540000000000006      52.345000000000006
   119   1      9.0250000000000057      48.735000000000007      55.955000000000005
   120   1      9.0250000000000057      50.540000000000006      57.759999999999998
   121   1      10.830000000000005      48.735000000000007      57.759999999999998
   122   1      10.830000000000005      50.540000000000006      55.955000000000005
   123   1      9.0250000000000057      48.735000000000007      59.565000000000005
   124   1      9.0250000000000057      50.540000000000006      61.370000000000012
   125   1      10.830000000000005      48.735000000000007      61.370000000000012
   126   1      10.830000000000005      50.540000000000006      59.565000000000005
   127   1      9.0250000000000057      48.735000000000007      63.175000000000011
   128   1      9.0250000000000057      50.540000000000006      64.980000000000018
   129   1      10.830000000000005      48.735000000000007      64.980000000000018
   130   1      10.830000000000005      50.540000000000006      63.175000000000011
   131   1      10.830000000000005      50.540000000000006      66.785000000000011
   132   1      10.830000000000005      52.345000000000006      43.320000000000007
   133   1      9.0250000000000057      54.150000000000006      46.930000000000007
   134   1      10.830000000000005      52.345000000000006      46.930000000000007
   135   1      10.830000000000005      54.150000000000006      45.125000000000007
   136   1      9.0250000000000057      52.345000000000006      48.735000000000007
   137   1      9.0250000000000057      54.150000000000006      50.540000000000006
   138   1      10.830000000000005      52.345000000000006      50.540000000000006
   139   1      10.830000000000005      54.150000000000006      48.735000000000007
   140   1      9.0250000000000057      52.345000000000006      52.345000000000006
   141   1      9.0250000000000057      54.150000000000006      54.150000000000006
   142   1      10.830000000000005      52.345000000000006      54.150000000000006
   143   1      10.830000000000005      54.150000000000006      52.345000000000006
   144   1      9.0250000000000057      52.345000000000006      55.955000000000005
   145   1      9.0250000000000057      54.150000000000006      57.759999999999998
   146   1      10.830000000000005      52.345000000000006      57.759999999999998
   147   1      10.830000000000005      54.150000000000006      55.955000000000005
   148   1      9.0250000000000057      52.345000000000006      59.565000000000005
   149   1      9.0250000000000057      54.150000000000006      61.370000000000012
   150   1      10.830000000000005      52.345000000000006      61.370000000000012
   151   1      10.830000000000005      54.150000000000006      59.565000000000005
   152   1      9.0250000000000057      52.345000000000006      63.175000000000011
   153   1      9.0250000000000057      54.150000000000006      64.980000000000018
   154   1      10.830000000000005      52.345000000000006      64.980000000000018
   155   1      10.830000000000005      54.150000000000006      63.175000000000011
   156   1      10.830000000000005      52.345000000000006      68.590000000000018
   157   1      10.830000000000005      54.150000000000006      66.785000000000011
   158   1      10.830000000000005      55.955000000000005      43.320000000000007
   159   1      9.0250000000000057      55.955000000000005      45.125000000000007
   160   1      9.0250000000000057      57.759999999999998      46.930000000000007
   161   1      10.830000000000005      55.955000000000005      46.930000000000007
   162   1      10.830000000000005      57.759999999999998      45.125000000000007
   163   1      9.0250000000000057      55.955000000000005      48.735000000000007
   164   1      9.0250000000000057      57.759999999999998      50.540000000000006
   165   1      10.830000000000005      55.955000000000005      50.540000000000006
   166   1      10.830000000000005      57.759999999999998      48.735000000000007
   167   1      9.0250000000000057      55.955000000000005      52.345000000000006
   168   1      9.0250000000000057      57.759999999999998      54.150000000000006
   169   1      10.830000000000005      55.955000000000005      54.150000000000006
   170   1      10.830000000000005      57.759999999999998      52.345000000000006
   171   1      9.0250000000000057      55.955000000000005      55.955000000000005
   172   1      9.0250000000000057      57.759999999999998      57.759999999999998
   173   1      10.830000000000005      55.955000000000005      57.759999999999998
   174   1      10.830000000000005      57.759999999999998      55.955000000000005
   175   1      9.0250000000000057      55.955000000000005      59.565000000000005
   176   1      9.0250000000000057      57.759999999999998      61.370000000000012
   177   1      10.830000000000005      55.955000000000005      61.370000000000012
   178   1      10.830000000000005      57.759999999999998      59.565000000000005
   179   1      9.0250000000000057      55.955000000000005      63.175000000000011
   180   1      9.0250000000000057      57.759999999999998      64.980000000000018
   181   1      10.830000000000005      55.955000000000005      64.980000000000018
   182   1      10.830000000000005      57.759999999999998      63.175000000000011
   183   1      9.0250000000000057      55.955000000000005      66.785000000000011
   184   1      10.830000000000005      55.955000000000005      68.590000000000018
   185   1      10.830000000000005      57.759999999999998      66.785000000000011
   186   1      10.830000000000005      59.565000000000005      43.320000000000007
   187   1      9.0250000000000057      61.370000000000012      46.930000000000007
   188   1      10.830000000000005      59.565000000000005      46.930000000000007
   189   1      10.830000000000005      61.370000000000012      45.125000000000007
   190   1      9.0250000000000057      59.565000000000005      48.735000000000007
   191   1      9.0250000000000057      61.370000000000012      50.540000000000006
   192   1      10.830000000000005      59.565000000000005      50.540000000000006
   193   1      10.830000000000005      61.370000000000012      48.735000000000007
   194   1      9.0250000000000057      59.565000000000005      52.345000000000006
   195   1      9.0250000000000057      61.370000000000012      54.150000000000006
   196   1      10.830000000000005      59.565000000000005      54.150000000000006
   197   1      10.830000000000005      61.370000000000012      52.345000000000006
   198   1      9.0250000000000057      59.565000000000005      55.955000000000005
   199   1      9.0250000000000057      61.370000000000012      57.759999999999998
   200   1      10.830000000000005      59.565000000000005      57.759999999999998
   201   1      10.830000000000005      61.370000000000012      55.955000000000005
   202   1      9.0250000000000057      59.565000000000005      59.565000000000005
   203   1      9.0250000000000057      61.370000000000012      61.370000000000012
   204   1      10.830000000000005      59.565000000000005      61.370000000000012
   205   1      10.830000000000005      61.370000000000012      59.565000000000005
   206   1      9.0250000000000057      59.565000000000005      63.175000000000011
   207   1      9.0250000000000057      61.370000000000012      64.980000000000018
   208   1      10.830000000000005      59.565000000000005      64.980000000000018
   209   1      10.830000000000005      61.370000000000012      63.175000000000011
   210   1      10.830000000000005      59.565000000000005      68.590000000000018
   211   1      10.830000000000005      61.370000000000012      66.785000000000011
   212   1      10.830000000000005      63.175000000000011      46.930000000000007
   213   1      9.0250000000000057      63.175000000000011      48.735000000000007
   214   1      9.0250000000000057      64.980000000000018      50.540000000000006
   215   1      10.830000000000005      63.175000000000011      50.540000000000006
   216   1      10.830000000000005      64.980000000000018      48.735000000000007
   217   1      9.0250000000000057      63.175000000000011      52.345000000000006
   218   1      9.0250000000000057      64.980000000000018      54.150000000000006
   219   1      10.830000000000005      63.175000000000011      54.150000000000006
   220   1      10.830000000000005      64.980000000000018      52.345000000000006
   221   1      9.0250000000000057      63.175000000000011      55.955000000000005
   222   1      9.0250000000000057      64.980000000000018      57.759999999999998
   223   1      10.830000000000005      63.175000000000011      57.759999999999998
   224   1      10.830000000000005      64.980000000000018      55.955000000000005
   225   1      9.0250000000000057      63.175000000000011      59.565000000000005
   226   1      9.0250000000000057      64.980000000000018      61.370000000000012
   227   1      10.830000000000005      63.175000000000011      61.370000000000012
   228   1      10.830000000000005      64.980000000000018      59.565000000000005
   229   1      9.0250000000000057      63.175000000000011      63.175000000000011
   230   1      10.830000000000005      63.175000000000011      64.980000000000018
   231   1      10.830000000000005      64.980000000000018      63.175000000000011
   232   1      10.830000000000005      66.785000000000011      50.540000000000006
   233   1      10.830000000000005      66.785000000000011      54.150000000000006
   234   1      10.830000000000005      68.590000000000018      52.345000000000006
   235   1      9.0250000000000057      66.785000000000011      55.955000000000005
   236   1      10.830000000000005      66.785000000000011      57.759999999999998
   237   1      10.830000000000005      68.590000000000018      55.955000000000005
   238   1      10.830000000000005      66.785000000000011      61.370000000000012
   239   1      10.830000000000005      68.590000000000018      59.565000000000005
   240   1      14.440000000000003      36.100000000000009      55.955000000000005
   241   1      12.635000000000005      39.710000000000008      54.150000000000006
   242   1      14.440000000000003      37.905000000000008      54.150000000000006
   243   1      14.440000000000003      39.710000000000008      52.345000000000006
   244   1      12.635000000000005      39.710000000000008      57.759999999999998
   245   1      14.440000000000003      37.905000000000008      57.759999999999998
   246   1      14.440000000000003      39.710000000000008      55.955000000000005
   247   1      14.440000000000003      39.710000000000008      59.565000000000005
   248   1      12.635000000000005      43.320000000000007      50.540000000000006
   249   1      14.440000000000003      41.515000000000008      50.540000000000006
   250   1      14.440000000000003      43.320000000000007      48.735000000000007
   251   1      12.635000000000005      41.515000000000008      52.345000000000006
   252   1      12.635000000000005      43.320000000000007      54.150000000000006
   253   1      14.440000000000003      41.515000000000008      54.150000000000006
   254   1      14.440000000000003      43.320000000000007      52.345000000000006
   255   1      12.635000000000005      41.515000000000008      55.955000000000005
   256   1      12.635000000000005      43.320000000000007      57.759999999999998
   257   1      14.440000000000003      41.515000000000008      57.759999999999998
   258   1      14.440000000000003      43.320000000000007      55.955000000000005
   259   1      12.635000000000005      41.515000000000008      59.565000000000005
   260   1      12.635000000000005      43.320000000000007      61.370000000000012
   261   1      14.440000000000003      41.515000000000008      61.370000000000012
   262   1      14.440000000000003      43.320000000000007      59.565000000000005
   263   1      14.440000000000003      43.320000000000007      63.175000000000011
   264   1      12.635000000000005      46.930000000000007      46.930000000000007
   265   1      14.440000000000003      45.125000000000007      46.930000000000007
   266   1      14.440000000000003      46.930000000000007      45.125000000000007
   267   1      12.635000000000005      45.125000000000007      48.735000000000007
   268   1      12.635000000000005      46.930000000000007      50.540000000000006
   269   1      14.440000000000003      45.125000000000007      50.540000000000006
   270   1      14.440000000000003      46.930000000000007      48.735000000000007
   271   1      12.635000000000005      45.125000000000007      52.345000000000006
   272   1      12.635000000000005      46.930000000000007      54.150000000000006
   273   1      14.440000000000003      45.125000000000007      54.150000000000006
   274   1      14.440000000000003      46.930000000000007      52.345000000000006
   275   1      12.635000000000005      45.125000000000007      55.955000000000005
   276   1      12.635000000000005      46.930000000000007      57.759999999999998
   277   1      14.440000000000003      45.125000000000007      57.759999999999998
   278   1      14.440000000000003      46.930000000000007      55.955000000000005
   279   1      12.635000000000005      45.125000000000007      59.565000000000005
   280   1      12.635000000000005      46.930000000000007      61.370000000000012
   281   1      14.440000000000003      45.125000000000007      61.370000000000012
   282   1      14.440000000000003      46.930000000000007      59.565000000000005
   283   1      12.635000000000005      45.125000000000007      63.175000000000011
   284   1      12.635000000000005      46.930000000000007      64.980000000000018
   285   1      14.440000000000003      45.125000000000007      64.980000000000018
   286   1      14.440000000000003      46.930000000000007      63.175000000000011
   287   1      14.440000000000003      46.930000000000007      66.785000000000011
   288   1      12.635000000000005      50.540000000000006      43.320000000000007
   289   1      14.440000000000003      48.735000000000007      43.320000000000007
   290   1      14.440000000000003      50.540000000000006      41.515000000000008
   291   1      12.635000000000005      48.735000000000007      45.125000000000007
   292   1      12.635000000000005      50.540000000000006      46.930000000000007
   293   1      14.440000000000003      48.735000000000007      46.930000000000007
   294   1      14.440000000000003      50.540000000000006      45.125000000000007
   295   1      12.635000000000005      48.735000000000007      48.735000000000007
   296   1      12.635000000000005      50.540000000000006      50.540000000000006
   297   1      14.440000000000003      48.735000000000007      50.540000000000006
   298   1      14.440000000000003      50.540000000000006      48.735000000000007
   299   1      12.635000000000005      48.735000000000007      52.345000000000006
   300   1      12.635000000000005      50.540000000000006      54.150000000000006
   301   1      14.440000000000003      48.735000000000007      54.150000000000006
   302   1      14.440000000000003      50.540000000000006      52.345000000000006
   303   1      12.635000000000005      48.735000000000007      55.955000000000005
   304   1      12.635000000000005      50.540000000000006      57.759999999999998
   305   1      14.440000000000003      48.735000000000007      57.759999999999998
   306   1      14.440000000000003      50.540000000000006      55.955000000000005
   307   1      12.635000000000005      48.735000000000007      59.565000000000005
   308   1      12.635000000000005      50.540000000000006      61.370000000000012
   309   1      14.440000000000003      48.735000000000007      61.370000000000012
   310   1      14.440000000000003      50.540000000000006      59.565000000000005
   311   1      12.635000000000005      48.735000000000007      63.175000000000011
   312   1      12.635000000000005      50.540000000000006      64.980000000000018
   313   1      14.440000000000003      48.735000000000007      64.980000000000018
   314   1      14.440000000000003      50.540000000000006      63.175000000000011
   315   1      12.635000000000005      48.735000000000007      66.785000000000011
   316   1      12.635000000000005      50.540000000000006      68.590000000000018
   317   1      14.440000000000003      48.735000000000007      68.590000000000018
   318   1      14.440000000000003      50.540000000000006      66.785000000000011
   319   1      14.440000000000003      50.540000000000006       70.39500000000001
   320   1      12.635000000000005      54.150000000000006      39.710000000000008
   321   1      14.440000000000003      52.345000000000006      39.710000000000008
   322   1      14.440000000000003      54.150000000000006      37.905000000000008
   323   1      12.635000000000005      52.345000000000006      41.515000000000008
   324   1      12.635000000000005      54.150000000000006      43.320000000000007
   325   1      14.440000000000003      52.345000000000006      43.320000000000007
   326   1      14.440000000000003      54.150000000000006      41.515000000000008
   327   1      12.635000000000005      52.345000000000006      45.125000000000007
   328   1      12.635000000000005      54.150000000000006      46.930000000000007
   329   1      14.440000000000003      52.345000000000006      46.930000000000007
   330   1      14.440000000000003      54.150000000000006      45.125000000000007
   331   1      12.635000000000005      52.345000000000006      48.735000000000007
   332   1      12.635000000000005      54.150000000000006      50.540000000000006
   333   1      14.440000000000003      52.345000000000006      50.540000000000006
   334   1      14.440000000000003      54.150000000000006      48.735000000000007
   335   1      12.635000000000005      52.345000000000006      52.345000000000006
   336   1      12.635000000000005      54.150000000000006      54.150000000000006
   337   1      14.440000000000003      52.345000000000006      54.150000000000006
   338   1      14.440000000000003      54.150000000000006      52.345000000000006
   339   1      12.635000000000005      52.345000000000006      55.955000000000005
   340   1      12.635000000000005      54.150000000000006      57.759999999999998
   341   1      14.440000000000003      52.345000000000006      57.759999999999998
   342   1      14.440000000000003      54.150000000000006      55.955000000000005
   343   1      12.635000000000005      52.345000000000006      59.565000000000005
   344   1      12.635000000000005      54.150000000000006      61.370000000000012
   345   1      14.440000000000003      52.345000000000006      61.370000000000012
   346   1      14.440000000000003      54.150000000000006      59.565000000000005
   347   1      12.635000000000005      52.345000000000006      63.175000000000011
   348   1      12.635000000000005      54.150000000000006      64.980000000000018
   349   1      14.440000000000003      52.345000000000006      64.980000000000018
   350   1      14.440000000000003      54.150000000000006      63.175000000000011
   351   1      12.635000000000005      52.345000000000006      66.785000000000011
   352   1      12.635000000000005      54.150000000000006      68.590000000000018
   353   1      14.440000000000003      52.345000000000006      68.590000000000018
   354   1      14.440000000000003      54.150000000000006      66.785000000000011
   355   1      12.635000000000005      52.345000000000006       70.39500000000001
   356   1      12.635000000000005      54.150000000000006      72.200000000000017
   357   1      14.440000000000003      52.345000000000006      72.200000000000017
   358   1      14.440000000000003      54.150000000000006       70.39500000000001