LAMMPS data file via write_data, version 30 Nov 2020, timestep = 0

29683 atoms
5 atom types

0 122 xlo xhi
0 122 ylo yhi
0 122 zlo zhi

Masses

1 58.7
2 55.8
3 52
4 59
5 26

Atoms # atomic

7 4 3.609999999999985 59.56499999999999 59.56499999999999 0 0 0
8 5 5.414999999999986 57.75999999999999 59.56499999999999 0 0 0
9 4 5.414999999999986 59.56499999999999 57.75999999999999 0 0 0
32 5 7.219999999999985 55.954999999999984 59.56499999999999 0 0 0
33 3 9.024999999999984 54.14999999999999 59.56499999999999 0 0 0
34 1 9.024999999999984 55.954999999999984 57.75999999999999 0 0 0
40 1 7.219999999999985 59.56499999999999 55.954999999999984 0 0 0
41 5 9.024999999999984 57.75999999999999 55.954999999999984 0 0 0
42 1 9.024999999999984 59.56499999999999 54.14999999999999 0 0 0
43 2 7.219999999999985 57.75999999999999 57.75999999999999 0 0 0
44 1 7.219999999999985 59.56499999999999 59.56499999999999 0 0 0
45 4 9.024999999999984 57.75999999999999 59.56499999999999 0 0 0
46 1 9.024999999999984 59.56499999999999 57.75999999999999 0 0 0
93 1 10.829999999999984 52.34499999999999 59.56499999999999 0 0 0
94 1 12.634999999999991 50.539999999999985 59.56499999999999 0 0 0
95 3 12.634999999999991 52.34499999999999 57.75999999999999 0 0 0
101 3 10.829999999999984 55.954999999999984 55.954999999999984 0 0 0
102 4 12.634999999999991 54.14999999999999 55.954999999999984 0 0 0
103 4 12.634999999999991 55.954999999999984 54.14999999999999 0 0 0
104 4 10.829999999999984 54.14999999999999 57.75999999999999 0 0 0
105 2 10.829999999999984 55.954999999999984 59.56499999999999 0 0 0
106 4 12.634999999999991 54.14999999999999 59.56499999999999 0 0 0
107 2 12.634999999999991 55.954999999999984 57.75999999999999 0 0 0
117 2 10.829999999999984 59.56499999999999 52.34499999999999 0 0 0
118 3 12.634999999999991 57.75999999999999 52.34499999999999 0 0 0
119 1 12.634999999999991 59.56499999999999 50.539999999999985 0 0 0
120 5 10.829999999999984 57.75999999999999 54.14999999999999 0 0 0
121 5 10.829999999999984 59.56499999999999 55.954999999999984 0 0 0
122 3 12.634999999999991 57.75999999999999 55.954999999999984 0 0 0
123 5 12.634999999999991 59.56499999999999 54.14999999999999 0 0 0
124 5 10.829999999999984 57.75999999999999 57.75999999999999 0 0 0
125 1 10.829999999999984 59.56499999999999 59.56499999999999 0 0 0
126 3 12.634999999999991 57.75999999999999 59.56499999999999 0 0 0
127 5 12.634999999999991 59.56499999999999 57.75999999999999 0 0 0
206 4 14.439999999999985 48.734999999999985 59.56499999999999 0 0 0
207 5 16.24499999999999 46.92999999999999 59.56499999999999 0 0 0
208 2 16.24499999999999 48.734999999999985 57.75999999999999 0 0 0
214 2 14.439999999999985 52.34499999999999 55.954999999999984 0 0 0
215 1 16.24499999999999 50.539999999999985 55.954999999999984 0 0 0
216 3 16.24499999999999 52.34499999999999 54.14999999999999 0 0 0
217 2 14.439999999999985 50.539999999999985 57.75999999999999 0 0 0
218 3 14.439999999999985 52.34499999999999 59.56499999999999 0 0 0
219 5 16.24499999999999 50.539999999999985 59.56499999999999 0 0 0
220 3 16.24499999999999 52.34499999999999 57.75999999999999 0 0 0
230 5 14.439999999999985 55.954999999999984 52.34499999999999 0 0 0
231 2 16.24499999999999 54.14999999999999 52.34499999999999 0 0 0
232 1 16.24499999999999 55.954999999999984 50.539999999999985 0 0 0
233 1 14.439999999999985 54.14999999999999 54.14999999999999 0 0 0
234 2 14.439999999999985 55.954999999999984 55.954999999999984 0 0 0
235 5 16.24499999999999 54.14999999999999 55.954999999999984 0 0 0
236 5 16.24499999999999 55.954999999999984 54.14999999999999 0 0 0
237 2 14.439999999999985 54.14999999999999 57.75999999999999 0 0 0
238 4 14.439999999999985 55.954999999999984 59.56499999999999 0 0 0
239 1 16.24499999999999 54.14999999999999 59.56499999999999 0 0 0
240 1 16.24499999999999 55.954999999999984 57.75999999999999 0 0 0
254 2 14.439999999999985 59.56499999999999 48.734999999999985 0 0 0
255 2 16.24499999999999 57.75999999999999 48.734999999999985 0 0 0
256 1 16.24499999999999 59.56499999999999 46.92999999999999 0 0 0
257 2 14.439999999999985 57.75999999999999 50.539999999999985 0 0 0
258 4 14.439999999999985 59.56499999999999 52.34499999999999 0 0 0
259 2 16.24499999999999 57.75999999999999 52.34499999999999 0 0 0
260 1 16.24499999999999 59.56499999999999 50.539999999999985 0 0 0
261 3 14.439999999999985 57.75999999999999 54.14999999999999 0 0 0
262 3 14.439999999999985 59.56499999999999 55.954999999999984 0 0 0
263 1 16.24499999999999 57.75999999999999 55.954999999999984 0 0 0
264 2 16.24499999999999 59.56499999999999 54.14999999999999 0 0 0
265 3 14.439999999999985 57.75999999999999 57.75999999999999 0 0 0
266 1 14.439999999999985 59.56499999999999 59.56499999999999 0 0 0
267 3 16.24499999999999 57.75999999999999 59.56499999999999 0 0 0
268 5 16.24499999999999 59.56499999999999 57.75999999999999 0 0 0
387 5 18.049999999999986 45.124999999999986 59.56499999999999 0 0 0
388 5 19.85499999999999 43.319999999999986 59.56499999999999 0 0 0
389 5 19.85499999999999 45.124999999999986 57.75999999999999 0 0 0
395 2 18.049999999999986 48.734999999999985 55.954999999999984 0 0 0
396 2 19.85499999999999 46.92999999999999 55.954999999999984 0 0 0
397 1 19.85499999999999 48.734999999999985 54.14999999999999 0 0 0
398 3 18.049999999999986 46.92999999999999 57.75999999999999 0 0 0
399 2 18.049999999999986 48.734999999999985 59.56499999999999 0 0 0
400 3 19.85499999999999 46.92999999999999 59.56499999999999 0 0 0
401 2 19.85499999999999 48.734999999999985 57.75999999999999 0 0 0
411 5 18.049999999999986 52.34499999999999 52.34499999999999 0 0 0
412 4 19.85499999999999 50.539999999999985 52.34499999999999 0 0 0
413 4 19.85499999999999 52.34499999999999 50.539999999999985 0 0 0
414 2 18.049999999999986 50.539999999999985 54.14999999999999 0 0 0
415 4 18.049999999999986 52.34499999999999 55.954999999999984 0 0 0
416 1 19.85499999999999 50.539999999999985 55.954999999999984 0 0 0
417 4 19.85499999999999 52.34499999999999 54.14999999999999 0 0 0
418 2 18.049999999999986 50.539999999999985 57.75999999999999 0 0 0
419 1 18.049999999999986 52.34499999999999 59.56499999999999 0 0 0
420 3 19.85499999999999 50.539999999999985 59.56499999999999 0 0 0
421 1 19.85499999999999 52.34499999999999 57.75999999999999 0 0 0
435 2 18.049999999999986 55.954999999999984 48.734999999999985 0 0 0
436 2 19.85499999999999 54.14999999999999 48.734999999999985 0 0 0
437 3 19.85499999999999 55.954999999999984 46.92999999999999 0 0 0
438 4 18.049999999999986 54.14999999999999 50.539999999999985 0 0 0
439 3 18.049999999999986 55.954999999999984 52.34499999999999 0 0 0
440 3 19.85499999999999 54.14999999999999 52.34499999999999 0 0 0
441 3 19.85499999999999 55.954999999999984 50.539999999999985 0 0 0
442 1 18.049999999999986 54.14999999999999 54.14999999999999 0 0 0
443 5 18.049999999999986 55.954999999999984 55.954999999999984 0 0 0
444 4 19.85499999999999 54.14999999999999 55.954999999999984 0 0 0
445 1 19.85499999999999 55.954999999999984 54.14999999999999 0 0 0
446 3 18.049999999999986 54.14999999999999 57.75999999999999 0 0 0
447 1 18.049999999999986 55.954999999999984 59.56499999999999 0 0 0
448 2 19.85499999999999 54.14999999999999 59.56499999999999 0 0 0
449 4 19.85499999999999 55.954999999999984 57.75999999999999 0 0 0
467 1 18.049999999999986 59.56499999999999 45.124999999999986 0 0 0
468 4 19.85499999999999 57.75999999999999 45.124999999999986 0 0 0
469 2 19.85499999999999 59.56499999999999 43.319999999999986 0 0 0
470 5 18.049999999999986 57.75999999999999 46.92999999999999 0 0 0
471 4 18.049999999999986 59.56499999999999 48.734999999999985 0 0 0
472 2 19.85499999999999 57.75999999999999 48.734999999999985 0 0 0
473 4 19.85499999999999 59.56499999999999 46.92999999999999 0 0 0
474 2 18.049999999999986 57.75999999999999 50.539999999999985 0 0 0
475 1 18.049999999999986 59.56499999999999 52.34499999999999 0 0 0
476 3 19.85499999999999 57.75999999999999 52.34499999999999 0 0 0
477 1 19.85499999999999 59.56499999999999 50.539999999999985 0 0 0
478 3 18.049999999999986 57.75999999999999 54.14999999999999 0 0 0
479 3 18.049999999999986 59.56499999999999 55.954999999999984 0 0 0
480 5 19.85499999999999 57.75999999999999 55.954999999999984 0 0 0
481 4 19.85499999999999 59.56499999999999 54.14999999999999 0 0 0
482 1 18.049999999999986 57.75999999999999 57.75999999999999 0 0 0
483 2 18.049999999999986 59.56499999999999 59.56499999999999 0 0 0
484 5 19.85499999999999 57.75999999999999 59.56499999999999 0 0 0
485 2 19.85499999999999 59.56499999999999 57.75999999999999 0 0 0
652 5 21.659999999999982 41.51499999999999 59.56499999999999 0 0 0
653 2 23.464999999999993 39.70999999999999 59.56499999999999 0 0 0
654 1 23.464999999999993 41.51499999999999 57.75999999999999 0 0 0
660 1 21.659999999999982 45.124999999999986 55.954999999999984 0 0 0
661 5 23.464999999999993 43.319999999999986 55.954999999999984 0 0 0
662 1 23.464999999999993 45.124999999999986 54.14999999999999 0 0 0
663 5 21.659999999999982 43.319999999999986 57.75999999999999 0 0 0
664 4 21.659999999999982 45.124999999999986 59.56499999999999 0 0 0
665 3 23.464999999999993 43.319999999999986 59.56499999999999 0 0 0
666 1 23.464999999999993 45.124999999999986 57.75999999999999 0 0 0
676 2 21.659999999999982 48.734999999999985 48.734999999999985 0 0 0
677 2 23.464999999999993 46.92999999999999 48.734999999999985 0 0 0
678 4 23.464999999999993 48.734999999999985 46.92999999999999 0 0 0
679 4 21.659999999999982 48.734999999999985 52.34499999999999 0 0 0
680 2 23.464999999999993 46.92999999999999 52.34499999999999 0 0 0
681 2 23.464999999999993 48.734999999999985 50.539999999999985 0 0 0
682 4 21.659999999999982 46.92999999999999 54.14999999999999 0 0 0
683 4 21.659999999999982 48.734999999999985 55.954999999999984 0 0 0
684 5 23.464999999999993 46.92999999999999 55.954999999999984 0 0 0
685 3 23.464999999999993 48.734999999999985 54.14999999999999 0 0 0
686 5 21.659999999999982 46.92999999999999 57.75999999999999 0 0 0
687 5 21.659999999999982 48.734999999999985 59.56499999999999 0 0 0
688 2 23.464999999999993 46.92999999999999 59.56499999999999 0 0 0
689 4 23.464999999999993 48.734999999999985 57.75999999999999 0 0 0
706 4 21.659999999999982 52.34499999999999 48.734999999999985 0 0 0
707 1 23.464999999999993 50.539999999999985 48.734999999999985 0 0 0
708 1 23.464999999999993 52.34499999999999 46.92999999999999 0 0 0
709 4 21.659999999999982 50.539999999999985 50.539999999999985 0 0 0
710 3 21.659999999999982 52.34499999999999 52.34499999999999 0 0 0
711 2 23.464999999999993 50.539999999999985 52.34499999999999 0 0 0
712 1 23.464999999999993 52.34499999999999 50.539999999999985 0 0 0
713 1 21.659999999999982 50.539999999999985 54.14999999999999 0 0 0
714 2 21.659999999999982 52.34499999999999 55.954999999999984 0 0 0
715 2 23.464999999999993 50.539999999999985 55.954999999999984 0 0 0
716 2 23.464999999999993 52.34499999999999 54.14999999999999 0 0 0
717 3 21.659999999999982 50.539999999999985 57.75999999999999 0 0 0
718 2 21.659999999999982 52.34499999999999 59.56499999999999 0 0 0
719 2 23.464999999999993 50.539999999999985 59.56499999999999 0 0 0
720 4 23.464999999999993 52.34499999999999 57.75999999999999 0 0 0
738 3 21.659999999999982 55.954999999999984 45.124999999999986 0 0 0
739 3 23.464999999999993 54.14999999999999 45.124999999999986 0 0 0
740 5 23.464999999999993 55.954999999999984 43.319999999999986 0 0 0
741 1 21.659999999999982 54.14999999999999 46.92999999999999 0 0 0
742 3 21.659999999999982 55.954999999999984 48.734999999999985 0 0 0
743 1 23.464999999999993 54.14999999999999 48.734999999999985 0 0 0
744 5 23.464999999999993 55.954999999999984 46.92999999999999 0 0 0
745 1 21.659999999999982 54.14999999999999 50.539999999999985 0 0 0
746 4 21.659999999999982 55.954999999999984 52.34499999999999 0 0 0
747 5 23.464999999999993 54.14999999999999 52.34499999999999 0 0 0
748 2 23.464999999999993 55.954999999999984 50.539999999999985 0 0 0
749 2 21.659999999999982 54.14999999999999 54.14999999999999 0 0 0
750 3 21.659999999999982 55.954999999999984 55.954999999999984 0 0 0
751 1 23.464999999999993 54.14999999999999 55.954999999999984 0 0 0
752 2 23.464999999999993 55.954999999999984 54.14999999999999 0 0 0
753 5 21.659999999999982 54.14999999999999 57.75999999999999 0 0 0
754 1 21.659999999999982 55.954999999999984 59.56499999999999 0 0 0
755 4 23.464999999999993 54.14999999999999 59.56499999999999 0 0 0
756 5 23.464999999999993 55.954999999999984 57.75999999999999 0 0 0
778 1 21.659999999999982 59.56499999999999 41.51499999999999 0 0 0
779 2 23.464999999999993 57.75999999999999 41.51499999999999 0 0 0
780 2 23.464999999999993 59.56499999999999 39.70999999999999 0 0 0
781 5 21.659999999999982 57.75999999999999 43.319999999999986 0 0 0
782 5 21.659999999999982 59.56499999999999 45.124999999999986 0 0 0
783 1 23.464999999999993 57.75999999999999 45.124999999999986 0 0 0
784 1 23.464999999999993 59.56499999999999 43.319999999999986 0 0 0
785 5 21.659999999999982 57.75999999999999 46.92999999999999 0 0 0
786 4 21.659999999999982 59.56499999999999 48.734999999999985 0 0 0
787 2 23.464999999999993 57.75999999999999 48.734999999999985 0 0 0
788 2 23.464999999999993 59.56499999999999 46.92999999999999 0 0 0
789 2 21.659999999999982 57.75999999999999 50.539999999999985 0 0 0
790 1 21.659999999999982 59.56499999999999 52.34499999999999 0 0 0
791 4 23.464999999999993 57.75999999999999 52.34499999999999 0 0 0
792 3 23.464999999999993 59.56499999999999 50.539999999999985 0 0 0
793 5 21.659999999999982 57.75999999999999 54.14999999999999 0 0 0
794 3 21.659999999999982 59.56499999999999 55.954999999999984 0 0 0
795 5 23.464999999999993 57.75999999999999 55.954999999999984 0 0 0
796 4 23.464999999999993 59.56499999999999 54.14999999999999 0 0 0
797 1 21.659999999999982 57.75999999999999 57.75999999999999 0 0 0
798 2 21.659999999999982 59.56499999999999 59.56499999999999 0 0 0
799 4 23.464999999999993 57.75999999999999 59.56499999999999 0 0 0
800 5 23.464999999999993 59.56499999999999 57.75999999999999 0 0 0
1029 5 25.269999999999982 37.90499999999999 59.56499999999999 0 0 0
1030 3 27.07499999999999 36.099999999999994 59.56499999999999 0 0 0
1031 2 27.07499999999999 37.90499999999999 57.75999999999999 0 0 0
1037 2 25.269999999999982 41.51499999999999 55.954999999999984 0 0 0
1038 4 27.07499999999999 39.70999999999999 55.954999999999984 0 0 0
1039 3 27.07499999999999 41.51499999999999 54.14999999999999 0 0 0
1040 3 25.269999999999982 39.70999999999999 57.75999999999999 0 0 0
1041 2 25.269999999999982 41.51499999999999 59.56499999999999 0 0 0
1042 2 27.07499999999999 39.70999999999999 59.56499999999999 0 0 0
1043 2 27.07499999999999 41.51499999999999 57.75999999999999 0 0 0
1053 5 25.269999999999982 45.124999999999986 48.734999999999985 0 0 0
1054 1 27.07499999999999 43.319999999999986 48.734999999999985 0 0 0
1055 5 27.07499999999999 45.124999999999986 46.92999999999999 0 0 0
1056 1 25.269999999999982 45.124999999999986 52.34499999999999 0 0 0
1057 1 27.07499999999999 43.319999999999986 52.34499999999999 0 0 0
1058 3 27.07499999999999 45.124999999999986 50.539999999999985 0 0 0
1059 2 25.269999999999982 43.319999999999986 54.14999999999999 0 0 0
1060 2 25.269999999999982 45.124999999999986 55.954999999999984 0 0 0
1061 3 27.07499999999999 43.319999999999986 55.954999999999984 0 0 0
1062 1 27.07499999999999 45.124999999999986 54.14999999999999 0 0 0
1063 5 25.269999999999982 43.319999999999986 57.75999999999999 0 0 0
1064 5 25.269999999999982 45.124999999999986 59.56499999999999 0 0 0
1065 2 27.07499999999999 43.319999999999986 59.56499999999999 0 0 0
1066 2 27.07499999999999 45.124999999999986 57.75999999999999 0 0 0
1083 5 25.269999999999982 48.734999999999985 45.124999999999986 0 0 0
1084 3 27.07499999999999 46.92999999999999 45.124999999999986 0 0 0
1085 5 27.07499999999999 48.734999999999985 43.319999999999986 0 0 0
1086 1 25.269999999999982 46.92999999999999 46.92999999999999 0 0 0
1087 1 25.269999999999982 48.734999999999985 48.734999999999985 0 0 0
1088 4 27.07499999999999 46.92999999999999 48.734999999999985 0 0 0
1089 5 27.07499999999999 48.734999999999985 46.92999999999999 0 0 0
1090 4 25.269999999999982 46.92999999999999 50.539999999999985 0 0 0
1091 5 25.269999999999982 48.734999999999985 52.34499999999999 0 0 0
1092 2 27.07499999999999 46.92999999999999 52.34499999999999 0 0 0
1093 2 27.07499999999999 48.734999999999985 50.539999999999985 0 0 0
1094 5 25.269999999999982 46.92999999999999 54.14999999999999 0 0 0
1095 3 25.269999999999982 48.734999999999985 55.954999999999984 0 0 0
1096 3 27.07499999999999 46.92999999999999 55.954999999999984 0 0 0
1097 2 27.07499999999999 48.734999999999985 54.14999999999999 0 0 0
1098 3 25.269999999999982 46.92999999999999 57.75999999999999 0 0 0
1099 4 25.269999999999982 48.734999999999985 59.56499999999999 0 0 0
1100 5 27.07499999999999 46.92999999999999 59.56499999999999 0 0 0
1101 2 27.07499999999999 48.734999999999985 57.75999999999999 0 0 0
1123 4 25.269999999999982 52.34499999999999 45.124999999999986 0 0 0
1124 4 27.07499999999999 50.539999999999985 45.124999999999986 0 0 0
1125 1 27.07499999999999 52.34499999999999 43.319999999999986 0 0 0
1126 4 25.269999999999982 50.539999999999985 46.92999999999999 0 0 0
1127 1 25.269999999999982 52.34499999999999 48.734999999999985 0 0 0
1128 1 27.07499999999999 50.539999999999985 48.734999999999985 0 0 0
1129 1 27.07499999999999 52.34499999999999 46.92999999999999 0 0 0
1130 2 25.269999999999982 50.539999999999985 50.539999999999985 0 0 0
1131 5 25.269999999999982 52.34499999999999 52.34499999999999 0 0 0
1132 3 27.07499999999999 50.539999999999985 52.34499999999999 0 0 0
1133 4 27.07499999999999 52.34499999999999 50.539999999999985 0 0 0
1134 5 25.269999999999982 50.539999999999985 54.14999999999999 0 0 0
1135 1 25.269999999999982 52.34499999999999 55.954999999999984 0 0 0
1136 2 27.07499999999999 50.539999999999985 55.954999999999984 0 0 0
1137 1 27.07499999999999 52.34499999999999 54.14999999999999 0 0 0
1138 3 25.269999999999982 50.539999999999985 57.75999999999999 0 0 0
1139 2 25.269999999999982 52.34499999999999 59.56499999999999 0 0 0
1140 2 27.07499999999999 50.539999999999985 59.56499999999999 0 0 0
1141 4 27.07499999999999 52.34499999999999 57.75999999999999 0 0 0
1163 5 25.269999999999982 55.954999999999984 41.51499999999999 0 0 0
1164 1 27.07499999999999 54.14999999999999 41.51499999999999 0 0 0
1165 5 27.07499999999999 55.954999999999984 39.70999999999999 0 0 0
1166 5 25.269999999999982 54.14999999999999 43.319999999999986 0 0 0
1167 2 25.269999999999982 55.954999999999984 45.124999999999986 0 0 0
1168 5 27.07499999999999 54.14999999999999 45.124999999999986 0 0 0
1169 5 27.07499999999999 55.954999999999984 43.319999999999986 0 0 0
1170 2 25.269999999999982 54.14999999999999 46.92999999999999 0 0 0
1171 5 25.269999999999982 55.954999999999984 48.734999999999985 0 0 0
1172 1 27.07499999999999 54.14999999999999 48.734999999999985 0 0 0
1173 5 27.07499999999999 55.954999999999984 46.92999999999999 0 0 0
1174 2 25.269999999999982 54.14999999999999 50.539999999999985 0 0 0
1175 4 25.269999999999982 55.954999999999984 52.34499999999999 0 0 0
1176 3 27.07499999999999 54.14999999999999 52.34499999999999 0 0 0
1177 4 27.07499999999999 55.954999999999984 50.539999999999985 0 0 0
1178 1 25.269999999999982 54.14999999999999 54.14999999999999 0 0 0
1179 1 25.269999999999982 55.954999999999984 55.954999999999984 0 0 0
1180 2 27.07499999999999 54.14999999999999 55.954999999999984 0 0 0
1181 3 27.07499999999999 55.954999999999984 54.14999999999999 0 0 0
1182 3 25.269999999999982 54.14999999999999 57.75999999999999 0 0 0
1183 3 25.269999999999982 55.954999999999984 59.56499999999999 0 0 0
1184 3 27.07499999999999 54.14999999999999 59.56499999999999 0 0 0
1185 5 27.07499999999999 55.954999999999984 57.75999999999999 0 0 0
1211 1 25.269999999999982 59.56499999999999 37.90499999999999 0 0 0
1212 2 27.07499999999999 57.75999999999999 37.90499999999999 0 0 0
1213 3 27.07499999999999 59.56499999999999 36.099999999999994 0 0 0
1214 3 25.269999999999982 57.75999999999999 39.70999999999999 0 0 0
1215 2 25.269999999999982 59.56499999999999 41.51499999999999 0 0 0
1216 1 27.07499999999999 57.75999999999999 41.51499999999999 0 0 0
1217 2 27.07499999999999 59.56499999999999 39.70999999999999 0 0 0
1218 1 25.269999999999982 57.75999999999999 43.319999999999986 0 0 0
1219 1 25.269999999999982 59.56499999999999 45.124999999999986 0 0 0
1220 2 27.07499999999999 57.75999999999999 45.124999999999986 0 0 0
1221 5 27.07499999999999 59.56499999999999 43.319999999999986 0 0 0
1222 3 25.269999999999982 57.75999999999999 46.92999999999999 0 0 0
1223 1 25.269999999999982 59.56499999999999 48.734999999999985 0 0 0
1224 2 27.07499999999999 57.75999999999999 48.734999999999985 0 0 0
1225 3 27.07499999999999 59.56499999999999 46.92999999999999 0 0 0
1226 3 25.269999999999982 57.75999999999999 50.539999999999985 0 0 0
1227 3 25.269999999999982 59.56499999999999 52.34499999999999 0 0 0
1228 5 27.07499999999999 57.75999999999999 52.34499999999999 0 0 0
1229 2 27.07499999999999 59.56499999999999 50.539999999999985 0 0 0
1230 4 25.269999999999982 57.75999999999999 54.14999999999999 0 0 0
1231 3 25.269999999999982 59.56499999999999 55.954999999999984 0 0 0
1232 2 27.07499999999999 57.75999999999999 55.954999999999984 0 0 0
1233 5 27.07499999999999 59.56499999999999 54.14999999999999 0 0 0
1234 2 25.269999999999982 57.75999999999999 57.75999999999999 0 0 0
1235 3 25.269999999999982 59.56499999999999 59.56499999999999 0 0 0
1236 2 27.07499999999999 57.75999999999999 59.56499999999999 0 0 0
1237 5 27.07499999999999 59.56499999999999 57.75999999999999 0 0 0
1538 3 28.879999999999992 34.29499999999999 59.56499999999999 0 0 0
1539 5 30.68499999999999 32.48999999999999 59.56499999999999 0 0 0
1540 5 30.68499999999999 34.29499999999999 57.75999999999999 0 0 0
1546 3 28.879999999999992 37.90499999999999 55.954999999999984 0 0 0
1547 1 30.68499999999999 36.099999999999994 55.954999999999984 0 0 0
1548 3 30.68499999999999 37.90499999999999 54.14999999999999 0 0 0
1549 2 28.879999999999992 36.099999999999994 57.75999999999999 0 0 0
1550 1 28.879999999999992 37.90499999999999 59.56499999999999 0 0 0
1551 5 30.68499999999999 36.099999999999994 59.56499999999999 0 0 0
1552 1 30.68499999999999 37.90499999999999 57.75999999999999 0 0 0
1562 3 28.879999999999992 41.51499999999999 48.734999999999985 0 0 0
1563 2 30.68499999999999 39.70999999999999 48.734999999999985 0 0 0
1564 2 30.68499999999999 41.51499999999999 46.92999999999999 0 0 0
1565 2 28.879999999999992 41.51499999999999 52.34499999999999 0 0 0
1566 1 30.68499999999999 39.70999999999999 52.34499999999999 0 0 0
1567 2 30.68499999999999 41.51499999999999 50.539999999999985 0 0 0
1568 2 28.879999999999992 39.70999999999999 54.14999999999999 0 0 0
1569 4 28.879999999999992 41.51499999999999 55.954999999999984 0 0 0
1570 4 30.68499999999999 39.70999999999999 55.954999999999984 0 0 0
1571 5 30.68499999999999 41.51499999999999 54.14999999999999 0 0 0
1572 1 28.879999999999992 39.70999999999999 57.75999999999999 0 0 0
1573 1 28.879999999999992 41.51499999999999 59.56499999999999 0 0 0
1574 4 30.68499999999999 39.70999999999999 59.56499999999999 0 0 0
1575 5 30.68499999999999 41.51499999999999 57.75999999999999 0 0 0
1592 5 28.879999999999992 45.124999999999986 45.124999999999986 0 0 0
1593 2 30.68499999999999 43.319999999999986 45.124999999999986 0 0 0
1594 4 30.68499999999999 45.124999999999986 43.319999999999986 0 0 0
1595 5 28.879999999999992 43.319999999999986 46.92999999999999 0 0 0
1596 4 28.879999999999992 45.124999999999986 48.734999999999985 0 0 0
1597 1 30.68499999999999 43.319999999999986 48.734999999999985 0 0 0
1598 3 30.68499999999999 45.124999999999986 46.92999999999999 0 0 0
1599 4 28.879999999999992 43.319999999999986 50.539999999999985 0 0 0
1600 1 28.879999999999992 45.124999999999986 52.34499999999999 0 0 0
1601 1 30.68499999999999 43.319999999999986 52.34499999999999 0 0 0
1602 1 30.68499999999999 45.124999999999986 50.539999999999985 0 0 0
1603 1 28.879999999999992 43.319999999999986 54.14999999999999 0 0 0
1604 3 28.879999999999992 45.124999999999986 55.954999999999984 0 0 0
1605 5 30.68499999999999 43.319999999999986 55.954999999999984 0 0 0
1606 5 30.68499999999999 45.124999999999986 54.14999999999999 0 0 0
1607 2 28.879999999999992 43.319999999999986 57.75999999999999 0 0 0
1608 4 28.879999999999992 45.124999999999986 59.56499999999999 0 0 0
1609 5 30.68499999999999 43.319999999999986 59.56499999999999 0 0 0
1610 3 30.68499999999999 45.124999999999986 57.75999999999999 0 0 0
1632 2 28.879999999999992 48.734999999999985 41.51499999999999 0 0 0
1633 2 30.68499999999999 46.92999999999999 41.51499999999999 0 0 0
1634 5 30.68499999999999 48.734999999999985 39.70999999999999 0 0 0
1635 4 28.879999999999992 46.92999999999999 43.319999999999986 0 0 0
1636 5 28.879999999999992 48.734999999999985 45.124999999999986 0 0 0
1637 2 30.68499999999999 46.92999999999999 45.124999999999986 0 0 0
1638 4 30.68499999999999 48.734999999999985 43.319999999999986 0 0 0
1639 5 28.879999999999992 46.92999999999999 46.92999999999999 0 0 0
1640 1 28.879999999999992 48.734999999999985 48.734999999999985 0 0 0
1641 3 30.68499999999999 46.92999999999999 48.734999999999985 0 0 0
1642 1 30.68499999999999 48.734999999999985 46.92999999999999 0 0 0
1643 5 28.879999999999992 46.92999999999999 50.539999999999985 0 0 0
1644 4 28.879999999999992 48.734999999999985 52.34499999999999 0 0 0
1645 3 30.68499999999999 46.92999999999999 52.34499999999999 0 0 0
1646 4 30.68499999999999 48.734999999999985 50.539999999999985 0 0 0
1647 5 28.879999999999992 46.92999999999999 54.14999999999999 0 0 0
1648 3 28.879999999999992 48.734999999999985 55.954999999999984 0 0 0
1649 5 30.68499999999999 46.92999999999999 55.954999999999984 0 0 0
1650 2 30.68499999999999 48.734999999999985 54.14999999999999 0 0 0
1651 1 28.879999999999992 46.92999999999999 57.75999999999999 0 0 0
1652 5 28.879999999999992 48.734999999999985 59.56499999999999 0 0 0
1653 1 30.68499999999999 46.92999999999999 59.56499999999999 0 0 0
1654 1 30.68499999999999 48.734999999999985 57.75999999999999 0 0 0
1680 4 28.879999999999992 52.34499999999999 41.51499999999999 0 0 0
1681 3 30.68499999999999 50.539999999999985 41.51499999999999 0 0 0
1682 2 30.68499999999999 52.34499999999999 39.70999999999999 0 0 0
1683 2 28.879999999999992 50.539999999999985 43.319999999999986 0 0 0
1684 1 28.879999999999992 52.34499999999999 45.124999999999986 0 0 0
1685 1 30.68499999999999 50.539999999999985 45.124999999999986 0 0 0
1686 2 30.68499999999999 52.34499999999999 43.319999999999986 0 0 0
1687 4 28.879999999999992 50.539999999999985 46.92999999999999 0 0 0
1688 5 28.879999999999992 52.34499999999999 48.734999999999985 0 0 0
1689 5 30.68499999999999 50.539999999999985 48.734999999999985 0 0 0
1690 3 30.68499999999999 52.34499999999999 46.92999999999999 0 0 0
1691 4 28.879999999999992 50.539999999999985 50.539999999999985 0 0 0
1692 1 28.879999999999992 52.34499999999999 52.34499999999999 0 0 0
1693 5 30.68499999999999 50.539999999999985 52.34499999999999 0 0 0
1694 4 30.68499999999999 52.34499999999999 50.539999999999985 0 0 0
1695 3 28.879999999999992 50.539999999999985 54.14999999999999 0 0 0
1696 2 28.879999999999992 52.34499999999999 55.954999999999984 0 0 0
1697 1 30.68499999999999 50.539999999999985 55.954999999999984 0 0 0
1698 2 30.68499999999999 52.34499999999999 54.14999999999999 0 0 0
1699 5 28.879999999999992 50.539999999999985 57.75999999999999 0 0 0
1700 2 28.879999999999992 52.34499999999999 59.56499999999999 0 0 0
1701 5 30.68499999999999 50.539999999999985 59.56499999999999 0 0 0
1702 2 30.68499999999999 52.34499999999999 57.75999999999999 0 0 0
1728 5 28.879999999999992 55.954999999999984 37.90499999999999 0 0 0
1729 3 30.68499999999999 54.14999999999999 37.90499999999999 0 0 0
1730 1 30.68499999999999 55.954999999999984 36.099999999999994 0 0 0
1731 5 28.879999999999992 54.14999999999999 39.70999999999999 0 0 0
1732 1 28.879999999999992 55.954999999999984 41.51499999999999 0 0 0
1733 3 30.68499999999999 54.14999999999999 41.51499999999999 0 0 0
1734 3 30.68499999999999 55.954999999999984 39.70999999999999 0 0 0
1735 5 28.879999999999992 54.14999999999999 43.319999999999986 0 0 0
1736 4 28.879999999999992 55.954999999999984 45.124999999999986 0 0 0
1737 4 30.68499999999999 54.14999999999999 45.124999999999986 0 0 0
1738 2 30.68499999999999 55.954999999999984 43.319999999999986 0 0 0
1739 5 28.879999999999992 54.14999999999999 46.92999999999999 0 0 0
1740 3 28.879999999999992 55.954999999999984 48.734999999999985 0 0 0
1741 5 30.68499999999999 54.14999999999999 48.734999999999985 0 0 0
1742 3 30.68499999999999 55.954999999999984 46.92999999999999 0 0 0
1743 1 28.879999999999992 54.14999999999999 50.539999999999985 0 0 0
1744 2 28.879999999999992 55.954999999999984 52.34499999999999 0 0 0
1745 1 30.68499999999999 54.14999999999999 52.34499999999999 0 0 0
1746 4 30.68499999999999 55.954999999999984 50.539999999999985 0 0 0
1747 5 28.879999999999992 54.14999999999999 54.14999999999999 0 0 0
1748 4 28.879999999999992 55.954999999999984 55.954999999999984 0 0 0
1749 2 30.68499999999999 54.14999999999999 55.954999999999984 0 0 0
1750 5 30.68499999999999 55.954999999999984 54.14999999999999 0 0 0
1751 5 28.879999999999992 54.14999999999999 57.75999999999999 0 0 0
1752 3 28.879999999999992 55.954999999999984 59.56499999999999 0 0 0
1753 4 30.68499999999999 54.14999999999999 59.56499999999999 0 0 0
1754 3 30.68499999999999 55.954999999999984 57.75999999999999 0 0 0
1784 1 28.879999999999992 59.56499999999999 34.29499999999999 0 0 0
1785 4 30.68499999999999 57.75999999999999 34.29499999999999 0 0 0
1786 5 30.68499999999999 59.56499999999999 32.48999999999999 0 0 0
1787 2 28.879999999999992 57.75999999999999 36.099999999999994 0 0 0
1788 3 28.879999999999992 59.56499999999999 37.90499999999999 0 0 0