model_files/Co/Co_3000/Co_110/data.Co_110_hcp_3055 (written by ASE) 

3055 	 atoms 
1  atom types
0.0                      37  xlo xhi
0.0                      37  ylo yhi
0.0                      37  zlo zhi


Atoms 

     1   1      1.2550000000000026      16.315000000000001                   17.57
     2   1      1.2550000000000026                   17.57      16.315000000000001
     3   1                       0                   17.57                   17.57
     4   1      1.2550000000000026                   17.57      18.824999999999999
     5   1      1.2550000000000026      18.824999999999999                   17.57
     6   1      3.7650000000000006      13.805000000000001      15.060000000000002
     7   1      3.7650000000000006      13.805000000000001                   17.57
     8   1      3.7650000000000006      13.805000000000001      20.080000000000002
     9   1      3.7650000000000006      15.060000000000002      13.805000000000001
    10   1      2.5100000000000016      15.060000000000002      15.060000000000002
    11   1      2.5100000000000016      16.315000000000001      16.315000000000001
    12   1      3.7650000000000006      15.060000000000002      16.315000000000001
    13   1      3.7650000000000006      16.315000000000001      15.060000000000002
    14   1      2.5100000000000016      15.060000000000002                   17.57
    15   1      2.5100000000000016      16.315000000000001      18.824999999999999
    16   1      3.7650000000000006      15.060000000000002      18.824999999999999
    17   1      3.7650000000000006      16.315000000000001                   17.57
    18   1      2.5100000000000016      15.060000000000002      20.080000000000002
    19   1      3.7650000000000006      15.060000000000002      21.334999999999997
    20   1      3.7650000000000006      16.315000000000001      20.080000000000002
    21   1      3.7650000000000006                   17.57      13.805000000000001
    22   1      2.5100000000000016                   17.57      15.060000000000002
    23   1      2.5100000000000016      18.824999999999999      16.315000000000001
    24   1      3.7650000000000006                   17.57      16.315000000000001
    25   1      3.7650000000000006      18.824999999999999      15.060000000000002
    26   1      2.5100000000000016                   17.57                   17.57
    27   1      2.5100000000000016      18.824999999999999      18.824999999999999
    28   1      3.7650000000000006                   17.57      18.824999999999999
    29   1      3.7650000000000006      18.824999999999999                   17.57
    30   1      2.5100000000000016                   17.57      20.080000000000002
    31   1      3.7650000000000006                   17.57      21.334999999999997
    32   1      3.7650000000000006      18.824999999999999      20.080000000000002
    33   1      3.7650000000000006      20.080000000000002      13.805000000000001
    34   1      2.5100000000000016      20.080000000000002      15.060000000000002
    35   1      3.7650000000000006      20.080000000000002      16.315000000000001
    36   1      3.7650000000000006      21.334999999999997      15.060000000000002
    37   1      2.5100000000000016      20.080000000000002                   17.57
    38   1      3.7650000000000006      20.080000000000002      18.824999999999999
    39   1      3.7650000000000006      21.334999999999997                   17.57
    40   1      2.5100000000000016      20.080000000000002      20.080000000000002
    41   1      3.7650000000000006      20.080000000000002      21.334999999999997
    42   1      3.7650000000000006      21.334999999999997      20.080000000000002
    43   1       6.275000000000003      11.295000000000002      12.550000000000001
    44   1       6.275000000000003      11.295000000000002      15.060000000000002
    45   1       6.275000000000003      11.295000000000002                   17.57
    46   1       6.275000000000003      11.295000000000002      20.080000000000002
    47   1       6.275000000000003      11.295000000000002                   22.59
    48   1       6.275000000000003      12.550000000000001      11.295000000000002
    49   1      5.0200000000000022      12.550000000000001      12.550000000000001
    50   1      5.0200000000000022      13.805000000000001      13.805000000000001
    51   1       6.275000000000003      12.550000000000001      13.805000000000001
    52   1       6.275000000000003      13.805000000000001      12.550000000000001
    53   1      5.0200000000000022      12.550000000000001      15.060000000000002
    54   1      5.0200000000000022      13.805000000000001      16.315000000000001
    55   1       6.275000000000003      12.550000000000001      16.315000000000001
    56   1       6.275000000000003      13.805000000000001      15.060000000000002
    57   1      5.0200000000000022      12.550000000000001                   17.57
    58   1      5.0200000000000022      13.805000000000001      18.824999999999999
    59   1       6.275000000000003      12.550000000000001      18.824999999999999
    60   1       6.275000000000003      13.805000000000001                   17.57
    61   1      5.0200000000000022      12.550000000000001      20.080000000000002
    62   1      5.0200000000000022      13.805000000000001      21.334999999999997
    63   1       6.275000000000003      12.550000000000001      21.334999999999997
    64   1       6.275000000000003      13.805000000000001      20.080000000000002
    65   1      5.0200000000000022      12.550000000000001                   22.59
    66   1       6.275000000000003      12.550000000000001      23.845000000000002
    67   1       6.275000000000003      13.805000000000001                   22.59
    68   1       6.275000000000003      15.060000000000002      11.295000000000002
    69   1      5.0200000000000022      15.060000000000002      12.550000000000001
    70   1      5.0200000000000022      16.315000000000001      13.805000000000001
    71   1       6.275000000000003      15.060000000000002      13.805000000000001
    72   1       6.275000000000003      16.315000000000001      12.550000000000001
    73   1      5.0200000000000022      15.060000000000002      15.060000000000002
    74   1      5.0200000000000022      16.315000000000001      16.315000000000001
    75   1       6.275000000000003      15.060000000000002      16.315000000000001
    76   1       6.275000000000003      16.315000000000001      15.060000000000002
    77   1      5.0200000000000022      15.060000000000002                   17.57
    78   1      5.0200000000000022      16.315000000000001      18.824999999999999
    79   1       6.275000000000003      15.060000000000002      18.824999999999999
    80   1       6.275000000000003      16.315000000000001                   17.57
    81   1      5.0200000000000022      15.060000000000002      20.080000000000002
    82   1      5.0200000000000022      16.315000000000001      21.334999999999997
    83   1       6.275000000000003      15.060000000000002      21.334999999999997
    84   1       6.275000000000003      16.315000000000001      20.080000000000002
    85   1      5.0200000000000022      15.060000000000002                   22.59
    86   1       6.275000000000003      15.060000000000002      23.845000000000002
    87   1       6.275000000000003      16.315000000000001                   22.59
    88   1       6.275000000000003                   17.57      11.295000000000002
    89   1      5.0200000000000022                   17.57      12.550000000000001
    90   1      5.0200000000000022      18.824999999999999      13.805000000000001
    91   1       6.275000000000003                   17.57      13.805000000000001
    92   1       6.275000000000003      18.824999999999999      12.550000000000001
    93   1      5.0200000000000022                   17.57      15.060000000000002
    94   1      5.0200000000000022      18.824999999999999      16.315000000000001
    95   1       6.275000000000003                   17.57      16.315000000000001
    96   1       6.275000000000003      18.824999999999999      15.060000000000002
    97   1      5.0200000000000022                   17.57                   17.57
    98   1      5.0200000000000022      18.824999999999999      18.824999999999999
    99   1       6.275000000000003                   17.57      18.824999999999999
   100   1       6.275000000000003      18.824999999999999                   17.57
   101   1      5.0200000000000022                   17.57      20.080000000000002
   102   1      5.0200000000000022      18.824999999999999      21.334999999999997
   103   1       6.275000000000003                   17.57      21.334999999999997
   104   1       6.275000000000003      18.824999999999999      20.080000000000002
   105   1      5.0200000000000022                   17.57                   22.59
   106   1       6.275000000000003                   17.57      23.845000000000002
   107   1       6.275000000000003      18.824999999999999                   22.59
   108   1       6.275000000000003      20.080000000000002      11.295000000000002
   109   1      5.0200000000000022      20.080000000000002      12.550000000000001
   110   1      5.0200000000000022      21.334999999999997      13.805000000000001
   111   1       6.275000000000003      20.080000000000002      13.805000000000001
   112   1       6.275000000000003      21.334999999999997      12.550000000000001
   113   1      5.0200000000000022      20.080000000000002      15.060000000000002
   114   1      5.0200000000000022      21.334999999999997      16.315000000000001
   115   1       6.275000000000003      20.080000000000002      16.315000000000001
   116   1       6.275000000000003      21.334999999999997      15.060000000000002
   117   1      5.0200000000000022      20.080000000000002                   17.57
   118   1      5.0200000000000022      21.334999999999997      18.824999999999999
   119   1       6.275000000000003      20.080000000000002      18.824999999999999
   120   1       6.275000000000003      21.334999999999997                   17.57
   121   1      5.0200000000000022      20.080000000000002      20.080000000000002
   122   1      5.0200000000000022      21.334999999999997      21.334999999999997
   123   1       6.275000000000003      20.080000000000002      21.334999999999997
   124   1       6.275000000000003      21.334999999999997      20.080000000000002
   125   1      5.0200000000000022      20.080000000000002                   22.59
   126   1       6.275000000000003      20.080000000000002      23.845000000000002
   127   1       6.275000000000003      21.334999999999997                   22.59
   128   1       6.275000000000003                   22.59      11.295000000000002
   129   1      5.0200000000000022                   22.59      12.550000000000001
   130   1       6.275000000000003                   22.59      13.805000000000001
   131   1       6.275000000000003      23.845000000000002      12.550000000000001
   132   1      5.0200000000000022                   22.59      15.060000000000002
   133   1       6.275000000000003                   22.59      16.315000000000001
   134   1       6.275000000000003      23.845000000000002      15.060000000000002
   135   1      5.0200000000000022                   22.59                   17.57
   136   1       6.275000000000003                   22.59      18.824999999999999
   137   1       6.275000000000003      23.845000000000002                   17.57
   138   1      5.0200000000000022                   22.59      20.080000000000002
   139   1       6.275000000000003                   22.59      21.334999999999997
   140   1       6.275000000000003      23.845000000000002      20.080000000000002
   141   1      5.0200000000000022                   22.59                   22.59
   142   1       6.275000000000003                   22.59      23.845000000000002
   143   1       6.275000000000003      23.845000000000002                   22.59
   144   1      8.7850000000000001      8.7850000000000001      10.040000000000003
   145   1      8.7850000000000001      8.7850000000000001      12.550000000000001
   146   1      8.7850000000000001      8.7850000000000001      15.060000000000002
   147   1      8.7850000000000001      8.7850000000000001                   17.57
   148   1      8.7850000000000001      8.7850000000000001      20.080000000000002
   149   1      8.7850000000000001      8.7850000000000001                   22.59
   150   1      8.7850000000000001      8.7850000000000001      25.100000000000001
   151   1      8.7850000000000001      10.040000000000003      8.7850000000000001
   152   1      7.5300000000000011      10.040000000000003      10.040000000000003
   153   1      7.5300000000000011      11.295000000000002      11.295000000000002
   154   1      8.7850000000000001      10.040000000000003      11.295000000000002
   155   1      8.7850000000000001      11.295000000000002      10.040000000000003
   156   1      7.5300000000000011      10.040000000000003      12.550000000000001
   157   1      7.5300000000000011      11.295000000000002      13.805000000000001
   158   1      8.7850000000000001      10.040000000000003      13.805000000000001
   159   1      8.7850000000000001      11.295000000000002      12.550000000000001
   160   1      7.5300000000000011      10.040000000000003      15.060000000000002
   161   1      7.5300000000000011      11.295000000000002      16.315000000000001
   162   1      8.7850000000000001      10.040000000000003      16.315000000000001
   163   1      8.7850000000000001      11.295000000000002      15.060000000000002
   164   1      7.5300000000000011      10.040000000000003                   17.57
   165   1      7.5300000000000011      11.295000000000002      18.824999999999999
   166   1      8.7850000000000001      10.040000000000003      18.824999999999999
   167   1      8.7850000000000001      11.295000000000002                   17.57
   168   1      7.5300000000000011      10.040000000000003      20.080000000000002
   169   1      7.5300000000000011      11.295000000000002      21.334999999999997
   170   1      8.7850000000000001      10.040000000000003      21.334999999999997
   171   1      8.7850000000000001      11.295000000000002      20.080000000000002
   172   1      7.5300000000000011      10.040000000000003                   22.59
   173   1      7.5300000000000011      11.295000000000002      23.845000000000002
   174   1      8.7850000000000001      10.040000000000003      23.845000000000002
   175   1      8.7850000000000001      11.295000000000002                   22.59
   176   1      7.5300000000000011      10.040000000000003      25.100000000000001
   177   1      8.7850000000000001      10.040000000000003                  26.355
   178   1      8.7850000000000001      11.295000000000002      25.100000000000001
   179   1      8.7850000000000001      12.550000000000001      8.7850000000000001
   180   1      7.5300000000000011      12.550000000000001      10.040000000000003
   181   1      7.5300000000000011      13.805000000000001      11.295000000000002
   182   1      8.7850000000000001      12.550000000000001      11.295000000000002
   183   1      8.7850000000000001      13.805000000000001      10.040000000000003
   184   1      7.5300000000000011      12.550000000000001      12.550000000000001
   185   1      7.5300000000000011      13.805000000000001      13.805000000000001
   186   1      8.7850000000000001      12.550000000000001      13.805000000000001
   187   1      8.7850000000000001      13.805000000000001      12.550000000000001
   188   1      7.5300000000000011      12.550000000000001      15.060000000000002
   189   1      7.5300000000000011      13.805000000000001      16.315000000000001
   190   1      8.7850000000000001      12.550000000000001      16.315000000000001
   191   1      8.7850000000000001      13.805000000000001      15.060000000000002
   192   1      7.5300000000000011      12.550000000000001                   17.57
   193   1      7.5300000000000011      13.805000000000001      18.824999999999999
   194   1      8.7850000000000001      12.550000000000001      18.824999999999999
   195   1      8.7850000000000001      13.805000000000001                   17.57
   196   1      7.5300000000000011      12.550000000000001      20.080000000000002
   197   1      7.5300000000000011      13.805000000000001      21.334999999999997
   198   1      8.7850000000000001      12.550000000000001      21.334999999999997
   199   1      8.7850000000000001      13.805000000000001      20.080000000000002
   200   1      7.5300000000000011      12.550000000000001                   22.59
   201   1      7.5300000000000011      13.805000000000001      23.845000000000002
   202   1      8.7850000000000001      12.550000000000001      23.845000000000002
   203   1      8.7850000000000001      13.805000000000001                   22.59
   204   1      7.5300000000000011      12.550000000000001      25.100000000000001
   205   1      8.7850000000000001      12.550000000000001                  26.355
   206   1      8.7850000000000001      13.805000000000001      25.100000000000001
   207   1      8.7850000000000001      15.060000000000002      8.7850000000000001
   208   1      7.5300000000000011      15.060000000000002      10.040000000000003
   209   1      7.5300000000000011      16.315000000000001      11.295000000000002
   210   1      8.7850000000000001      15.060000000000002      11.295000000000002
   211   1      8.7850000000000001      16.315000000000001      10.040000000000003
   212   1      7.5300000000000011      15.060000000000002      12.550000000000001
   213   1      7.5300000000000011      16.315000000000001      13.805000000000001
   214   1      8.7850000000000001      15.060000000000002      13.805000000000001
   215   1      8.7850000000000001      16.315000000000001      12.550000000000001
   216   1      7.5300000000000011      15.060000000000002      15.060000000000002
   217   1      7.5300000000000011      16.315000000000001      16.315000000000001
   218   1      8.7850000000000001      15.060000000000002      16.315000000000001
   219   1      8.7850000000000001      16.315000000000001      15.060000000000002
   220   1      7.5300000000000011      15.060000000000002                   17.57
   221   1      7.5300000000000011      16.315000000000001      18.824999999999999
   222   1      8.7850000000000001      15.060000000000002      18.824999999999999
   223   1      8.7850000000000001      16.315000000000001                   17.57
   224   1      7.5300000000000011      15.060000000000002      20.080000000000002
   225   1      7.5300000000000011      16.315000000000001      21.334999999999997
   226   1      8.7850000000000001      15.060000000000002      21.334999999999997
   227   1      8.7850000000000001      16.315000000000001      20.080000000000002
   228   1      7.5300000000000011      15.060000000000002                   22.59
   229   1      7.5300000000000011      16.315000000000001      23.845000000000002
   230   1      8.7850000000000001      15.060000000000002      23.845000000000002
   231   1      8.7850000000000001      16.315000000000001                   22.59
   232   1      7.5300000000000011      15.060000000000002      25.100000000000001
   233   1      8.7850000000000001      15.060000000000002                  26.355
   234   1      8.7850000000000001      16.315000000000001      25.100000000000001
   235   1      8.7850000000000001                   17.57      8.7850000000000001
   236   1      7.5300000000000011                   17.57      10.040000000000003
   237   1      7.5300000000000011      18.824999999999999      11.295000000000002
   238   1      8.7850000000000001                   17.57      11.295000000000002
   239   1      8.7850000000000001      18.824999999999999      10.040000000000003
   240   1      7.5300000000000011                   17.57      12.550000000000001
   241   1      7.5300000000000011      18.824999999999999      13.805000000000001
   242   1      8.7850000000000001                   17.57      13.805000000000001
   243   1      8.7850000000000001      18.824999999999999      12.550000000000001
   244   1      7.5300000000000011                   17.57      15.060000000000002
   245   1      7.5300000000000011      18.824999999999999      16.315000000000001
   246   1      8.7850000000000001                   17.57      16.315000000000001
   247   1      8.7850000000000001      18.824999999999999      15.060000000000002
   248   1      7.5300000000000011                   17.57                   17.57
   249   1      7.5300000000000011      18.824999999999999      18.824999999999999
   250   1      8.7850000000000001                   17.57      18.824999999999999
   251   1      8.7850000000000001      18.824999999999999                   17.57
   252   1      7.5300000000000011                   17.57      20.080000000000002
   253   1      7.5300000000000011      18.824999999999999      21.334999999999997
   254   1      8.7850000000000001                   17.57      21.334999999999997
   255   1      8.7850000000000001      18.824999999999999      20.080000000000002
   256   1      7.5300000000000011                   17.57                   22.59
   257   1      7.5300000000000011      18.824999999999999      23.845000000000002
   258   1      8.7850000000000001                   17.57      23.845000000000002
   259   1      8.7850000000000001      18.824999999999999                   22.59
   260   1      7.5300000000000011                   17.57      25.100000000000001
   261   1      8.7850000000000001                   17.57                  26.355
   262   1      8.7850000000000001      18.824999999999999      25.100000000000001
   263   1      8.7850000000000001      20.080000000000002      8.7850000000000001
   264   1      7.5300000000000011      20.080000000000002      10.040000000000003
   265   1      7.5300000000000011      21.334999999999997      11.295000000000002
   266   1      8.7850000000000001      20.080000000000002      11.295000000000002
   267   1      8.7850000000000001      21.334999999999997      10.040000000000003
   268   1      7.5300000000000011      20.080000000000002      12.550000000000001
   269   1      7.5300000000000011      21.334999999999997      13.805000000000001
   270   1      8.7850000000000001      20.080000000000002      13.805000000000001
   271   1      8.7850000000000001      21.334999999999997      12.550000000000001
   272   1      7.5300000000000011      20.080000000000002      15.060000000000002
   273   1      7.5300000000000011      21.334999999999997      16.315000000000001
   274   1      8.7850000000000001      20.080000000000002      16.315000000000001
   275   1      8.7850000000000001      21.334999999999997      15.060000000000002
   276   1      7.5300000000000011      20.080000000000002                   17.57
   277   1      7.5300000000000011      21.334999999999997      18.824999999999999
   278   1      8.7850000000000001      20.080000000000002      18.824999999999999
   279   1      8.7850000000000001      21.334999999999997                   17.57
   280   1      7.5300000000000011      20.080000000000002      20.080000000000002
   281   1      7.5300000000000011      21.334999999999997      21.334999999999997
   282   1      8.7850000000000001      20.080000000000002      21.334999999999997
   283   1      8.7850000000000001      21.334999999999997      20.080000000000002
   284   1      7.5300000000000011      20.080000000000002                   22.59
   285   1      7.5300000000000011      21.334999999999997      23.845000000000002
   286   1      8.7850000000000001      20.080000000000002      23.845000000000002
   287   1      8.7850000000000001      21.334999999999997                   22.59
   288   1      7.5300000000000011      20.080000000000002      25.100000000000001
   289   1      8.7850000000000001      20.080000000000002                  26.355
   290   1      8.7850000000000001      21.334999999999997      25.100000000000001
   291   1      8.7850000000000001                   22.59      8.7850000000000001
   292   1      7.5300000000000011                   22.59      10.040000000000003
   293   1      7.5300000000000011      23.845000000000002      11.295000000000002
   294   1      8.7850000000000001                   22.59      11.295000000000002
   295   1      8.7850000000000001      23.845000000000002      10.040000000000003
   296   1      7.5300000000000011                   22.59      12.550000000000001
   297   1      7.5300000000000011      23.845000000000002      13.805000000000001
   298   1      8.7850000000000001                   22.59      13.805000000000001
   299   1      8.7850000000000001      23.845000000000002      12.550000000000001
   300   1      7.5300000000000011                   22.59      15.060000000000002
   301   1      7.5300000000000011      23.845000000000002      16.315000000000001
   302   1      8.7850000000000001                   22.59      16.315000000000001
   303   1      8.7850000000000001      23.845000000000002      15.060000000000002
   304   1      7.5300000000000011                   22.59                   17.57
   305   1      7.5300000000000011      23.845000000000002      18.824999999999999
   306   1      8.7850000000000001                   22.59      18.824999999999999
   307   1      8.7850000000000001      23.845000000000002                   17.57
   308   1      7.5300000000000011                   22.59      20.080000000000002
   309   1      7.5300000000000011      23.845000000000002      21.334999999999997
   310   1      8.7850000000000001                   22.59      21.334999999999997
   311   1      8.7850000000000001      23.845000000000002      20.080000000000002
   312   1      7.5300000000000011                   22.59                   22.59
   313   1      7.5300000000000011      23.845000000000002      23.845000000000002
   314   1      8.7850000000000001                   22.59      23.845000000000002
   315   1      8.7850000000000001      23.845000000000002                   22.59
   316   1      7.5300000000000011                   22.59      25.100000000000001
   317   1      8.7850000000000001                   22.59                  26.355
   318   1      8.7850000000000001      23.845000000000002      25.100000000000001
   319   1      8.7850000000000001      25.100000000000001      8.7850000000000001
   320   1      7.5300000000000011      25.100000000000001      10.040000000000003
   321   1      8.7850000000000001      25.100000000000001      11.295000000000002
   322   1      8.7850000000000001                  26.355      10.040000000000003
   323   1      7.5300000000000011      25.100000000000001      12.550000000000001
   324   1      8.7850000000000001      25.100000000000001      13.805000000000001
   325   1      8.7850000000000001                  26.355      12.550000000000001
   326   1      7.5300000000000011      25.100000000000001      15.060000000000002
   327   1      8.7850000000000001      25.100000000000001      16.315000000000001
   328   1      8.7850000000000001                  26.355      15.060000000000002
   329   1      7.5300000000000011      25.100000000000001                   17.57
   330   1      8.7850000000000001      25.100000000000001      18.824999999999999
   331   1      8.7850000000000001                  26.355                   17.57
   332   1      7.5300000000000011      25.100000000000001      20.080000000000002
   333   1      8.7850000000000001      25.100000000000001      21.334999999999997
   334   1      8.7850000000000001                  26.355      20.080000000000002
   335   1      7.5300000000000011      25.100000000000001                   22.59
   336   1      8.7850000000000001      25.100000000000001      23.845000000000002
   337   1      8.7850000000000001                  26.355                   22.59
   338   1      7.5300000000000011      25.100000000000001      25.100000000000001
   339   1      8.7850000000000001      25.100000000000001                  26.355
   340   1      8.7850000000000001                  26.355      25.100000000000001
   341   1      11.295000000000002       6.275000000000003      12.550000000000001
   342   1      11.295000000000002       6.275000000000003      15.060000000000002
   343   1      11.295000000000002       6.275000000000003                   17.57
   344   1      11.295000000000002       6.275000000000003      20.080000000000002
   345   1      11.295000000000002       6.275000000000003                   22.59
   346   1      10.040000000000003      8.7850000000000001      8.7850000000000001
   347   1      10.040000000000003      7.5300000000000011      10.040000000000003
   348   1      10.040000000000003      8.7850000000000001      11.295000000000002
   349   1      11.295000000000002      7.5300000000000011      11.295000000000002
   350   1      11.295000000000002      8.7850000000000001      10.040000000000003
   351   1      10.040000000000003      7.5300000000000011      12.550000000000001
   352   1      10.040000000000003      8.7850000000000001      13.805000000000001
   353   1      11.295000000000002      7.5300000000000011      13.805000000000001
   354   1      11.295000000000002      8.7850000000000001      12.550000000000001
   355   1      10.040000000000003      7.5300000000000011      15.060000000000002
   356   1      10.040000000000003      8.7850000000000001      16.315000000000001
   357   1      11.295000000000002      7.5300000000000011      16.315000000000001
   358   1      11.295000000000002      8.7850000000000001      15.060000000000002