model_files/PtCo/PtCo_30000/PtCo_530/PtCo_530_fcc_29831_temp.data (written by ASE) 

29831 	 atoms 
2  atom types
0.0                      94  xlo xhi
0.0                      94  ylo yhi
0.0                      94  zlo zhi


Atoms 

     1   1      93.999999999999986      45.624999999999993      45.624999999999993
     2   1      1.8249999999999957       43.79999999999999      45.624999999999993
     3   1      1.8249999999999957      45.624999999999993       43.79999999999999
     4   1      93.999999999999986      45.624999999999993      49.274999999999991
     5   1      1.8249999999999957       43.79999999999999      49.274999999999991
     6   1      1.8249999999999957      45.624999999999993      47.449999999999989
     7   1      1.8249999999999957      45.624999999999993      51.100000000000001
     8   1      93.999999999999986      49.274999999999991      45.624999999999993
     9   1      1.8249999999999957      47.449999999999989      45.624999999999993
    10   1      1.8249999999999957      49.274999999999991       43.79999999999999
    11   1      93.999999999999986      47.449999999999989      47.449999999999989
    12   1      93.999999999999986      49.274999999999991      49.274999999999991
    13   1      1.8249999999999957      47.449999999999989      49.274999999999991
    14   1      1.8249999999999957      49.274999999999991      47.449999999999989
    15   1      1.8249999999999957      49.274999999999991      51.100000000000001
    16   1      1.8249999999999957      51.100000000000001      45.624999999999993
    17   1      1.8249999999999957      51.100000000000001      49.274999999999991
    18   1      5.4749999999999943      36.499999999999993      38.324999999999996
    19   1      5.4749999999999943      38.324999999999996      36.499999999999993
    20   1      5.4749999999999943      36.499999999999993      41.974999999999994
    21   1      5.4749999999999943      38.324999999999996      40.149999999999991
    22   1      5.4749999999999943      36.499999999999993      45.624999999999993
    23   1      5.4749999999999943      38.324999999999996       43.79999999999999
    24   1      5.4749999999999943      36.499999999999993      49.274999999999991
    25   1      5.4749999999999943      38.324999999999996      47.449999999999989
    26   1      5.4749999999999943      36.499999999999993       52.92499999999999
    27   1      5.4749999999999943      38.324999999999996      51.100000000000001
    28   1      5.4749999999999943      36.499999999999993      56.574999999999996
    29   1      5.4749999999999943      38.324999999999996      54.749999999999993
    30   1      5.4749999999999943      38.324999999999996      58.399999999999991
    31   1      5.4749999999999943      40.149999999999991      38.324999999999996
    32   1      5.4749999999999943      41.974999999999994      36.499999999999993
    33   1      3.6499999999999915      40.149999999999991      40.149999999999991
    34   1      3.6499999999999915      41.974999999999994      41.974999999999994
    35   1      5.4749999999999943      40.149999999999991      41.974999999999994
    36   1      5.4749999999999943      41.974999999999994      40.149999999999991
    37   1      3.6499999999999915      40.149999999999991       43.79999999999999
    38   1      3.6499999999999915      41.974999999999994      45.624999999999993
    39   1      5.4749999999999943      40.149999999999991      45.624999999999993
    40   1      5.4749999999999943      41.974999999999994       43.79999999999999
    41   1      3.6499999999999915      40.149999999999991      47.449999999999989
    42   1      3.6499999999999915      41.974999999999994      49.274999999999991
    43   1      5.4749999999999943      40.149999999999991      49.274999999999991
    44   1      5.4749999999999943      41.974999999999994      47.449999999999989
    45   1      3.6499999999999915      40.149999999999991      51.100000000000001
    46   1      3.6499999999999915      41.974999999999994       52.92499999999999
    47   1      5.4749999999999943      40.149999999999991       52.92499999999999
    48   1      5.4749999999999943      41.974999999999994      51.100000000000001
    49   1      3.6499999999999915      40.149999999999991      54.749999999999993
    50   1      5.4749999999999943      40.149999999999991      56.574999999999996
    51   1      5.4749999999999943      41.974999999999994      54.749999999999993
    52   1      5.4749999999999943      41.974999999999994      58.399999999999991
    53   1      5.4749999999999943       43.79999999999999      38.324999999999996
    54   1      5.4749999999999943      45.624999999999993      36.499999999999993
    55   1      3.6499999999999915       43.79999999999999      40.149999999999991
    56   1      3.6499999999999915      45.624999999999993      41.974999999999994
    57   1      5.4749999999999943       43.79999999999999      41.974999999999994
    58   1      5.4749999999999943      45.624999999999993      40.149999999999991
    59   1      3.6499999999999915       43.79999999999999       43.79999999999999
    60   1      3.6499999999999915      45.624999999999993      45.624999999999993
    61   1      5.4749999999999943       43.79999999999999      45.624999999999993
    62   1      5.4749999999999943      45.624999999999993       43.79999999999999
    63   1      3.6499999999999915       43.79999999999999      47.449999999999989
    64   1      3.6499999999999915      45.624999999999993      49.274999999999991
    65   1      5.4749999999999943       43.79999999999999      49.274999999999991
    66   1      5.4749999999999943      45.624999999999993      47.449999999999989
    67   1      3.6499999999999915       43.79999999999999      51.100000000000001
    68   1      3.6499999999999915      45.624999999999993       52.92499999999999
    69   1      5.4749999999999943       43.79999999999999       52.92499999999999
    70   1      5.4749999999999943      45.624999999999993      51.100000000000001
    71   1      3.6499999999999915       43.79999999999999      54.749999999999993
    72   1      5.4749999999999943       43.79999999999999      56.574999999999996
    73   1      5.4749999999999943      45.624999999999993      54.749999999999993
    74   1      5.4749999999999943      45.624999999999993      58.399999999999991
    75   1      5.4749999999999943      47.449999999999989      38.324999999999996
    76   1      5.4749999999999943      49.274999999999991      36.499999999999993
    77   1      3.6499999999999915      47.449999999999989      40.149999999999991
    78   1      3.6499999999999915      49.274999999999991      41.974999999999994
    79   1      5.4749999999999943      47.449999999999989      41.974999999999994
    80   1      5.4749999999999943      49.274999999999991      40.149999999999991
    81   1      3.6499999999999915      47.449999999999989       43.79999999999999
    82   1      3.6499999999999915      49.274999999999991      45.624999999999993
    83   1      5.4749999999999943      47.449999999999989      45.624999999999993
    84   1      5.4749999999999943      49.274999999999991       43.79999999999999
    85   1      3.6499999999999915      47.449999999999989      47.449999999999989
    86   1      3.6499999999999915      49.274999999999991      49.274999999999991
    87   1      5.4749999999999943      47.449999999999989      49.274999999999991
    88   1      5.4749999999999943      49.274999999999991      47.449999999999989
    89   1      3.6499999999999915      47.449999999999989      51.100000000000001
    90   1      3.6499999999999915      49.274999999999991       52.92499999999999
    91   1      5.4749999999999943      47.449999999999989       52.92499999999999
    92   1      5.4749999999999943      49.274999999999991      51.100000000000001
    93   1      3.6499999999999915      47.449999999999989      54.749999999999993
    94   1      5.4749999999999943      47.449999999999989      56.574999999999996
    95   1      5.4749999999999943      49.274999999999991      54.749999999999993
    96   1      5.4749999999999943      49.274999999999991      58.399999999999991
    97   1      5.4749999999999943      51.100000000000001      38.324999999999996
    98   1      5.4749999999999943       52.92499999999999      36.499999999999993
    99   1      3.6499999999999915      51.100000000000001      40.149999999999991
   100   1      3.6499999999999915       52.92499999999999      41.974999999999994
   101   1      5.4749999999999943      51.100000000000001      41.974999999999994
   102   1      5.4749999999999943       52.92499999999999      40.149999999999991
   103   1      3.6499999999999915      51.100000000000001       43.79999999999999
   104   1      3.6499999999999915       52.92499999999999      45.624999999999993
   105   1      5.4749999999999943      51.100000000000001      45.624999999999993
   106   1      5.4749999999999943       52.92499999999999       43.79999999999999
   107   1      3.6499999999999915      51.100000000000001      47.449999999999989
   108   1      3.6499999999999915       52.92499999999999      49.274999999999991
   109   1      5.4749999999999943      51.100000000000001      49.274999999999991
   110   1      5.4749999999999943       52.92499999999999      47.449999999999989
   111   1      3.6499999999999915      51.100000000000001      51.100000000000001
   112   1      3.6499999999999915       52.92499999999999       52.92499999999999
   113   1      5.4749999999999943      51.100000000000001       52.92499999999999
   114   1      5.4749999999999943       52.92499999999999      51.100000000000001
   115   1      3.6499999999999915      51.100000000000001      54.749999999999993
   116   1      5.4749999999999943      51.100000000000001      56.574999999999996
   117   1      5.4749999999999943       52.92499999999999      54.749999999999993
   118   1      5.4749999999999943       52.92499999999999      58.399999999999991
   119   1      5.4749999999999943      54.749999999999993      38.324999999999996
   120   1      5.4749999999999943      56.574999999999996      36.499999999999993
   121   1      3.6499999999999915      54.749999999999993      40.149999999999991
   122   1      5.4749999999999943      54.749999999999993      41.974999999999994
   123   1      5.4749999999999943      56.574999999999996      40.149999999999991
   124   1      3.6499999999999915      54.749999999999993       43.79999999999999
   125   1      5.4749999999999943      54.749999999999993      45.624999999999993
   126   1      5.4749999999999943      56.574999999999996       43.79999999999999
   127   1      3.6499999999999915      54.749999999999993      47.449999999999989
   128   1      5.4749999999999943      54.749999999999993      49.274999999999991
   129   1      5.4749999999999943      56.574999999999996      47.449999999999989
   130   1      3.6499999999999915      54.749999999999993      51.100000000000001
   131   1      5.4749999999999943      54.749999999999993       52.92499999999999
   132   1      5.4749999999999943      56.574999999999996      51.100000000000001
   133   1      3.6499999999999915      54.749999999999993      54.749999999999993
   134   1      5.4749999999999943      54.749999999999993      56.574999999999996
   135   1      5.4749999999999943      56.574999999999996      54.749999999999993
   136   1      5.4749999999999943      56.574999999999996      58.399999999999991
   137   1      5.4749999999999943      58.399999999999991      38.324999999999996
   138   1      5.4749999999999943      58.399999999999991      41.974999999999994
   139   1      5.4749999999999943      58.399999999999991      45.624999999999993
   140   1      5.4749999999999943      58.399999999999991      49.274999999999991
   141   1      5.4749999999999943      58.399999999999991       52.92499999999999
   142   1      5.4749999999999943      58.399999999999991      56.574999999999996
   143   1      9.1249999999999929      31.024999999999999      32.849999999999994
   144   1      9.1249999999999929      31.024999999999999      36.499999999999993
   145   1      9.1249999999999929      31.024999999999999      40.149999999999991
   146   1      9.1249999999999929      31.024999999999999       43.79999999999999
   147   1      9.1249999999999929      31.024999999999999      47.449999999999989
   148   1      9.1249999999999929      31.024999999999999      51.100000000000001
   149   1      9.1249999999999929      31.024999999999999      54.749999999999993
   150   1      9.1249999999999929      31.024999999999999      58.399999999999991
   151   1      9.1249999999999929      31.024999999999999      62.049999999999997
   152   1      9.1249999999999929      32.849999999999994      31.024999999999999
   153   1      7.2999999999999901      34.674999999999997      34.674999999999997
   154   1      9.1249999999999929      32.849999999999994      34.674999999999997
   155   1      9.1249999999999929      34.674999999999997      32.849999999999994
   156   1      7.2999999999999901      34.674999999999997      38.324999999999996
   157   1      9.1249999999999929      32.849999999999994      38.324999999999996
   158   1      9.1249999999999929      34.674999999999997      36.499999999999993
   159   1      7.2999999999999901      34.674999999999997      41.974999999999994
   160   1      9.1249999999999929      32.849999999999994      41.974999999999994
   161   1      9.1249999999999929      34.674999999999997      40.149999999999991
   162   1      7.2999999999999901      34.674999999999997      45.624999999999993
   163   1      9.1249999999999929      32.849999999999994      45.624999999999993
   164   1      9.1249999999999929      34.674999999999997       43.79999999999999
   165   1      7.2999999999999901      34.674999999999997      49.274999999999991
   166   1      9.1249999999999929      32.849999999999994      49.274999999999991
   167   1      9.1249999999999929      34.674999999999997      47.449999999999989
   168   1      7.2999999999999901      34.674999999999997       52.92499999999999
   169   1      9.1249999999999929      32.849999999999994       52.92499999999999
   170   1      9.1249999999999929      34.674999999999997      51.100000000000001
   171   1      7.2999999999999901      34.674999999999997      56.574999999999996
   172   1      9.1249999999999929      32.849999999999994      56.574999999999996
   173   1      9.1249999999999929      34.674999999999997      54.749999999999993
   174   1      7.2999999999999901      34.674999999999997      60.224999999999994
   175   1      9.1249999999999929      32.849999999999994      60.224999999999994
   176   1      9.1249999999999929      34.674999999999997      58.399999999999991
   177   1      9.1249999999999929      32.849999999999994                  63.875
   178   1      9.1249999999999929      34.674999999999997      62.049999999999997
   179   1      9.1249999999999929      36.499999999999993      31.024999999999999
   180   1      7.2999999999999901      38.324999999999996      34.674999999999997
   181   1      9.1249999999999929      36.499999999999993      34.674999999999997
   182   1      9.1249999999999929      38.324999999999996      32.849999999999994
   183   1      7.2999999999999901      36.499999999999993      36.499999999999993
   184   1      7.2999999999999901      38.324999999999996      38.324999999999996
   185   1      9.1249999999999929      36.499999999999993      38.324999999999996
   186   1      9.1249999999999929      38.324999999999996      36.499999999999993
   187   1      7.2999999999999901      36.499999999999993      40.149999999999991
   188   1      7.2999999999999901      38.324999999999996      41.974999999999994
   189   1      9.1249999999999929      36.499999999999993      41.974999999999994
   190   1      9.1249999999999929      38.324999999999996      40.149999999999991
   191   1      7.2999999999999901      36.499999999999993       43.79999999999999
   192   1      7.2999999999999901      38.324999999999996      45.624999999999993
   193   1      9.1249999999999929      36.499999999999993      45.624999999999993
   194   1      9.1249999999999929      38.324999999999996       43.79999999999999
   195   1      7.2999999999999901      36.499999999999993      47.449999999999989
   196   1      7.2999999999999901      38.324999999999996      49.274999999999991
   197   1      9.1249999999999929      36.499999999999993      49.274999999999991
   198   1      9.1249999999999929      38.324999999999996      47.449999999999989
   199   1      7.2999999999999901      36.499999999999993      51.100000000000001
   200   1      7.2999999999999901      38.324999999999996       52.92499999999999
   201   1      9.1249999999999929      36.499999999999993       52.92499999999999
   202   1      9.1249999999999929      38.324999999999996      51.100000000000001
   203   1      7.2999999999999901      36.499999999999993      54.749999999999993
   204   1      7.2999999999999901      38.324999999999996      56.574999999999996
   205   1      9.1249999999999929      36.499999999999993      56.574999999999996
   206   1      9.1249999999999929      38.324999999999996      54.749999999999993
   207   1      7.2999999999999901      36.499999999999993      58.399999999999991
   208   1      7.2999999999999901      38.324999999999996      60.224999999999994
   209   1      9.1249999999999929      36.499999999999993      60.224999999999994
   210   1      9.1249999999999929      38.324999999999996      58.399999999999991
   211   1      9.1249999999999929      36.499999999999993                  63.875
   212   1      9.1249999999999929      38.324999999999996      62.049999999999997
   213   1      9.1249999999999929      40.149999999999991      31.024999999999999
   214   1      7.2999999999999901      41.974999999999994      34.674999999999997
   215   1      9.1249999999999929      40.149999999999991      34.674999999999997
   216   1      9.1249999999999929      41.974999999999994      32.849999999999994
   217   1      7.2999999999999901      40.149999999999991      36.499999999999993
   218   1      7.2999999999999901      41.974999999999994      38.324999999999996
   219   1      9.1249999999999929      40.149999999999991      38.324999999999996
   220   1      9.1249999999999929      41.974999999999994      36.499999999999993
   221   1      7.2999999999999901      40.149999999999991      40.149999999999991
   222   1      7.2999999999999901      41.974999999999994      41.974999999999994
   223   1      9.1249999999999929      40.149999999999991      41.974999999999994
   224   1      9.1249999999999929      41.974999999999994      40.149999999999991
   225   1      7.2999999999999901      40.149999999999991       43.79999999999999
   226   1      7.2999999999999901      41.974999999999994      45.624999999999993
   227   1      9.1249999999999929      40.149999999999991      45.624999999999993
   228   1      9.1249999999999929      41.974999999999994       43.79999999999999
   229   1      7.2999999999999901      40.149999999999991      47.449999999999989
   230   1      7.2999999999999901      41.974999999999994      49.274999999999991
   231   1      9.1249999999999929      40.149999999999991      49.274999999999991
   232   1      9.1249999999999929      41.974999999999994      47.449999999999989
   233   1      7.2999999999999901      40.149999999999991      51.100000000000001
   234   1      7.2999999999999901      41.974999999999994       52.92499999999999
   235   1      9.1249999999999929      40.149999999999991       52.92499999999999
   236   1      9.1249999999999929      41.974999999999994      51.100000000000001
   237   1      7.2999999999999901      40.149999999999991      54.749999999999993
   238   1      7.2999999999999901      41.974999999999994      56.574999999999996
   239   1      9.1249999999999929      40.149999999999991      56.574999999999996
   240   1      9.1249999999999929      41.974999999999994      54.749999999999993
   241   1      7.2999999999999901      40.149999999999991      58.399999999999991
   242   1      7.2999999999999901      41.974999999999994      60.224999999999994
   243   1      9.1249999999999929      40.149999999999991      60.224999999999994
   244   1      9.1249999999999929      41.974999999999994      58.399999999999991
   245   1      9.1249999999999929      40.149999999999991                  63.875
   246   1      9.1249999999999929      41.974999999999994      62.049999999999997
   247   1      9.1249999999999929       43.79999999999999      31.024999999999999
   248   1      7.2999999999999901      45.624999999999993      34.674999999999997
   249   1      9.1249999999999929       43.79999999999999      34.674999999999997
   250   1      9.1249999999999929      45.624999999999993      32.849999999999994
   251   1      7.2999999999999901       43.79999999999999      36.499999999999993
   252   1      7.2999999999999901      45.624999999999993      38.324999999999996
   253   1      9.1249999999999929       43.79999999999999      38.324999999999996
   254   1      9.1249999999999929      45.624999999999993      36.499999999999993
   255   1      7.2999999999999901       43.79999999999999      40.149999999999991
   256   1      7.2999999999999901      45.624999999999993      41.974999999999994
   257   1      9.1249999999999929       43.79999999999999      41.974999999999994
   258   1      9.1249999999999929      45.624999999999993      40.149999999999991
   259   1      7.2999999999999901       43.79999999999999       43.79999999999999
   260   1      7.2999999999999901      45.624999999999993      45.624999999999993
   261   1      9.1249999999999929       43.79999999999999      45.624999999999993
   262   1      9.1249999999999929      45.624999999999993       43.79999999999999
   263   1      7.2999999999999901       43.79999999999999      47.449999999999989
   264   1      7.2999999999999901      45.624999999999993      49.274999999999991
   265   1      9.1249999999999929       43.79999999999999      49.274999999999991
   266   1      9.1249999999999929      45.624999999999993      47.449999999999989
   267   1      7.2999999999999901       43.79999999999999      51.100000000000001
   268   1      7.2999999999999901      45.624999999999993       52.92499999999999
   269   1      9.1249999999999929       43.79999999999999       52.92499999999999
   270   1      9.1249999999999929      45.624999999999993      51.100000000000001
   271   1      7.2999999999999901       43.79999999999999      54.749999999999993
   272   1      7.2999999999999901      45.624999999999993      56.574999999999996
   273   1      9.1249999999999929       43.79999999999999      56.574999999999996
   274   1      9.1249999999999929      45.624999999999993      54.749999999999993
   275   1      7.2999999999999901       43.79999999999999      58.399999999999991
   276   1      7.2999999999999901      45.624999999999993      60.224999999999994
   277   1      9.1249999999999929       43.79999999999999      60.224999999999994
   278   1      9.1249999999999929      45.624999999999993      58.399999999999991
   279   1      9.1249999999999929       43.79999999999999                  63.875
   280   1      9.1249999999999929      45.624999999999993      62.049999999999997
   281   1      9.1249999999999929      47.449999999999989      31.024999999999999
   282   1      7.2999999999999901      49.274999999999991      34.674999999999997
   283   1      9.1249999999999929      47.449999999999989      34.674999999999997
   284   1      9.1249999999999929      49.274999999999991      32.849999999999994
   285   1      7.2999999999999901      47.449999999999989      36.499999999999993
   286   1      7.2999999999999901      49.274999999999991      38.324999999999996
   287   1      9.1249999999999929      47.449999999999989      38.324999999999996
   288   1      9.1249999999999929      49.274999999999991      36.499999999999993
   289   1      7.2999999999999901      47.449999999999989      40.149999999999991
   290   1      7.2999999999999901      49.274999999999991      41.974999999999994
   291   1      9.1249999999999929      47.449999999999989      41.974999999999994
   292   1      9.1249999999999929      49.274999999999991      40.149999999999991
   293   1      7.2999999999999901      47.449999999999989       43.79999999999999
   294   1      7.2999999999999901      49.274999999999991      45.624999999999993
   295   1      9.1249999999999929      47.449999999999989      45.624999999999993
   296   1      9.1249999999999929      49.274999999999991       43.79999999999999
   297   1      7.2999999999999901      47.449999999999989      47.449999999999989
   298   1      7.2999999999999901      49.274999999999991      49.274999999999991
   299   1      9.1249999999999929      47.449999999999989      49.274999999999991
   300   1      9.1249999999999929      49.274999999999991      47.449999999999989
   301   1      7.2999999999999901      47.449999999999989      51.100000000000001
   302   1      7.2999999999999901      49.274999999999991       52.92499999999999
   303   1      9.1249999999999929      47.449999999999989       52.92499999999999
   304   1      9.1249999999999929      49.274999999999991      51.100000000000001
   305   1      7.2999999999999901      47.449999999999989      54.749999999999993
   306   1      7.2999999999999901      49.274999999999991      56.574999999999996
   307   1      9.1249999999999929      47.449999999999989      56.574999999999996
   308   1      9.1249999999999929      49.274999999999991      54.749999999999993
   309   1      7.2999999999999901      47.449999999999989      58.399999999999991
   310   1      7.2999999999999901      49.274999999999991      60.224999999999994
   311   1      9.1249999999999929      47.449999999999989      60.224999999999994
   312   1      9.1249999999999929      49.274999999999991      58.399999999999991
   313   1      9.1249999999999929      47.449999999999989                  63.875
   314   1      9.1249999999999929      49.274999999999991      62.049999999999997
   315   1      9.1249999999999929      51.100000000000001      31.024999999999999
   316   1      7.2999999999999901       52.92499999999999      34.674999999999997
   317   1      9.1249999999999929      51.100000000000001      34.674999999999997
   318   1      9.1249999999999929       52.92499999999999      32.849999999999994
   319   1      7.2999999999999901      51.100000000000001      36.499999999999993
   320   1      7.2999999999999901       52.92499999999999      38.324999999999996
   321   1      9.1249999999999929      51.100000000000001      38.324999999999996
   322   1      9.1249999999999929       52.92499999999999      36.499999999999993
   323   1      7.2999999999999901      51.100000000000001      40.149999999999991
   324   1      7.2999999999999901       52.92499999999999      41.974999999999994
   325   1      9.1249999999999929      51.100000000000001      41.974999999999994
   326   1      9.1249999999999929       52.92499999999999      40.149999999999991
   327   1      7.2999999999999901      51.100000000000001       43.79999999999999
   328   1      7.2999999999999901       52.92499999999999      45.624999999999993
   329   1      9.1249999999999929      51.100000000000001      45.624999999999993
   330   1      9.1249999999999929       52.92499999999999       43.79999999999999
   331   1      7.2999999999999901      51.100000000000001      47.449999999999989
   332   1      7.2999999999999901       52.92499999999999      49.274999999999991
   333   1      9.1249999999999929      51.100000000000001      49.274999999999991
   334   1      9.1249999999999929       52.92499999999999      47.449999999999989
   335   1      7.2999999999999901      51.100000000000001      51.100000000000001
   336   1      7.2999999999999901       52.92499999999999       52.92499999999999
   337   1      9.1249999999999929      51.100000000000001       52.92499999999999
   338   1      9.1249999999999929       52.92499999999999      51.100000000000001
   339   1      7.2999999999999901      51.100000000000001      54.749999999999993
   340   1      7.2999999999999901       52.92499999999999      56.574999999999996
   341   1      9.1249999999999929      51.100000000000001      56.574999999999996
   342   1      9.1249999999999929       52.92499999999999      54.749999999999993
   343   1      7.2999999999999901      51.100000000000001      58.399999999999991
   344   1      7.2999999999999901       52.92499999999999      60.224999999999994
   345   1      9.1249999999999929      51.100000000000001      60.224999999999994
   346   1      9.1249999999999929       52.92499999999999      58.399999999999991
   347   1      9.1249999999999929      51.100000000000001                  63.875
   348   1      9.1249999999999929       52.92499999999999      62.049999999999997
   349   1      9.1249999999999929      54.749999999999993      31.024999999999999
   350   1      7.2999999999999901      56.574999999999996      34.674999999999997
   351   1      9.1249999999999929      54.749999999999993      34.674999999999997
   352   1      9.1249999999999929      56.574999999999996      32.849999999999994
   353   1      7.2999999999999901      54.749999999999993      36.499999999999993
   354   1      7.2999999999999901      56.574999999999996      38.324999999999996
   355   1      9.1249999999999929      54.749999999999993      38.324999999999996
   356   1      9.1249999999999929      56.574999999999996      36.499999999999993
   357   1      7.2999999999999901      54.749999999999993      40.149999999999991
   358   1      7.2999999999999901      56.574999999999996      41.974999999999994