model_files/Fe/Fe_30000/Fe_411/data.Fe_411_fcc_29555 (written by ASE) 

29555 	 atoms 
1  atom types
0.0                      86  xlo xhi
0.0                      86  ylo yhi
0.0                      86  zlo zhi


Atoms 

     1   1      1.4349999999999952       38.74499999999999      41.614999999999995
     2   1      1.4349999999999952       38.74499999999999      44.484999999999992
     3   1      1.4349999999999952      41.614999999999995       38.74499999999999
     4   1      1.4349999999999952      41.614999999999995      41.614999999999995
     5   1      1.4349999999999952      41.614999999999995      44.484999999999992
     6   1      1.4349999999999952      41.614999999999995      47.354999999999983
     7   1      1.4349999999999952      44.484999999999992       38.74499999999999
     8   1      1.4349999999999952      44.484999999999992      41.614999999999995
     9   1      85.999999999999986       43.04999999999999       43.04999999999999
    10   1      1.4349999999999952      44.484999999999992      44.484999999999992
    11   1      1.4349999999999952      44.484999999999992      47.354999999999983
    12   1      1.4349999999999952      47.354999999999983      41.614999999999995
    13   1      1.4349999999999952      47.354999999999983      44.484999999999992
    14   1      4.3049999999999926      27.264999999999993      41.614999999999995
    15   1      4.3049999999999926      27.264999999999993      44.484999999999992
    16   1      4.3049999999999926      30.134999999999987       38.74499999999999
    17   1      4.3049999999999926      30.134999999999987      41.614999999999995
    18   1      4.3049999999999926      30.134999999999987      44.484999999999992
    19   1      4.3049999999999926      30.134999999999987      47.354999999999983
    20   1      4.3049999999999926      33.004999999999995      35.874999999999993
    21   1      4.3049999999999926      33.004999999999995       38.74499999999999
    22   1      4.3049999999999926      33.004999999999995      41.614999999999995
    23   1      2.8699999999999974      31.569999999999993       43.04999999999999
    24   1      4.3049999999999926      33.004999999999995      44.484999999999992
    25   1      4.3049999999999926      33.004999999999995      47.354999999999983
    26   1      4.3049999999999926      33.004999999999995      50.224999999999994
    27   1      4.3049999999999926      35.874999999999993      33.004999999999995
    28   1      4.3049999999999926      35.874999999999993      35.874999999999993
    29   1      4.3049999999999926      35.874999999999993       38.74499999999999
    30   1      2.8699999999999974      34.439999999999991      40.179999999999993
    31   1      4.3049999999999926      35.874999999999993      41.614999999999995
    32   1      2.8699999999999974      34.439999999999991       43.04999999999999
    33   1      4.3049999999999926      35.874999999999993      44.484999999999992
    34   1      2.8699999999999974      34.439999999999991      45.919999999999987
    35   1      4.3049999999999926      35.874999999999993      47.354999999999983
    36   1      4.3049999999999926      35.874999999999993      50.224999999999994
    37   1      4.3049999999999926      35.874999999999993      53.094999999999985
    38   1      4.3049999999999926       38.74499999999999      30.134999999999987
    39   1      4.3049999999999926       38.74499999999999      33.004999999999995
    40   1      4.3049999999999926       38.74499999999999      35.874999999999993
    41   1      2.8699999999999974      37.309999999999988      37.309999999999988
    42   1      4.3049999999999926       38.74499999999999       38.74499999999999
    43   1      2.8699999999999974      37.309999999999988      40.179999999999993
    44   1      4.3049999999999926       38.74499999999999      41.614999999999995
    45   1      2.8699999999999974      37.309999999999988       43.04999999999999
    46   1      4.3049999999999926       38.74499999999999      44.484999999999992
    47   1      2.8699999999999974      37.309999999999988      45.919999999999987
    48   1      4.3049999999999926       38.74499999999999      47.354999999999983
    49   1      2.8699999999999974      37.309999999999988      48.789999999999992
    50   1      4.3049999999999926       38.74499999999999      50.224999999999994
    51   1      4.3049999999999926       38.74499999999999      53.094999999999985
    52   1      4.3049999999999926       38.74499999999999      55.964999999999989
    53   1      4.3049999999999926      41.614999999999995      27.264999999999993
    54   1      4.3049999999999926      41.614999999999995      30.134999999999987
    55   1      4.3049999999999926      41.614999999999995      33.004999999999995
    56   1      2.8699999999999974      40.179999999999993      34.439999999999991
    57   1      4.3049999999999926      41.614999999999995      35.874999999999993
    58   1      2.8699999999999974      40.179999999999993      37.309999999999988
    59   1      4.3049999999999926      41.614999999999995       38.74499999999999
    60   1      2.8699999999999974      40.179999999999993      40.179999999999993
    61   1      4.3049999999999926      41.614999999999995      41.614999999999995
    62   1      2.8699999999999974      40.179999999999993       43.04999999999999
    63   1      4.3049999999999926      41.614999999999995      44.484999999999992
    64   1      2.8699999999999974      40.179999999999993      45.919999999999987
    65   1      4.3049999999999926      41.614999999999995      47.354999999999983
    66   1      2.8699999999999974      40.179999999999993      48.789999999999992
    67   1      4.3049999999999926      41.614999999999995      50.224999999999994
    68   1      2.8699999999999974      40.179999999999993      51.659999999999989
    69   1      4.3049999999999926      41.614999999999995      53.094999999999985
    70   1      4.3049999999999926      41.614999999999995      55.964999999999989
    71   1      4.3049999999999926      41.614999999999995      58.834999999999994
    72   1      4.3049999999999926      44.484999999999992      27.264999999999993
    73   1      4.3049999999999926      44.484999999999992      30.134999999999987
    74   1      2.8699999999999974       43.04999999999999      31.569999999999993
    75   1      4.3049999999999926      44.484999999999992      33.004999999999995
    76   1      2.8699999999999974       43.04999999999999      34.439999999999991
    77   1      4.3049999999999926      44.484999999999992      35.874999999999993
    78   1      2.8699999999999974       43.04999999999999      37.309999999999988
    79   1      4.3049999999999926      44.484999999999992       38.74499999999999
    80   1      2.8699999999999974       43.04999999999999      40.179999999999993
    81   1      4.3049999999999926      44.484999999999992      41.614999999999995
    82   1      2.8699999999999974       43.04999999999999       43.04999999999999
    83   1      4.3049999999999926      44.484999999999992      44.484999999999992
    84   1      2.8699999999999974       43.04999999999999      45.919999999999987
    85   1      4.3049999999999926      44.484999999999992      47.354999999999983
    86   1      2.8699999999999974       43.04999999999999      48.789999999999992
    87   1      4.3049999999999926      44.484999999999992      50.224999999999994
    88   1      2.8699999999999974       43.04999999999999      51.659999999999989
    89   1      4.3049999999999926      44.484999999999992      53.094999999999985
    90   1      2.8699999999999974       43.04999999999999      54.529999999999987
    91   1      4.3049999999999926      44.484999999999992      55.964999999999989
    92   1      4.3049999999999926      44.484999999999992      58.834999999999994
    93   1      4.3049999999999926      47.354999999999983      30.134999999999987
    94   1      4.3049999999999926      47.354999999999983      33.004999999999995
    95   1      2.8699999999999974      45.919999999999987      34.439999999999991
    96   1      4.3049999999999926      47.354999999999983      35.874999999999993
    97   1      2.8699999999999974      45.919999999999987      37.309999999999988
    98   1      4.3049999999999926      47.354999999999983       38.74499999999999
    99   1      2.8699999999999974      45.919999999999987      40.179999999999993
   100   1      4.3049999999999926      47.354999999999983      41.614999999999995
   101   1      2.8699999999999974      45.919999999999987       43.04999999999999
   102   1      4.3049999999999926      47.354999999999983      44.484999999999992
   103   1      2.8699999999999974      45.919999999999987      45.919999999999987
   104   1      4.3049999999999926      47.354999999999983      47.354999999999983
   105   1      2.8699999999999974      45.919999999999987      48.789999999999992
   106   1      4.3049999999999926      47.354999999999983      50.224999999999994
   107   1      2.8699999999999974      45.919999999999987      51.659999999999989
   108   1      4.3049999999999926      47.354999999999983      53.094999999999985
   109   1      4.3049999999999926      47.354999999999983      55.964999999999989
   110   1      4.3049999999999926      50.224999999999994      33.004999999999995
   111   1      4.3049999999999926      50.224999999999994      35.874999999999993
   112   1      2.8699999999999974      48.789999999999992      37.309999999999988
   113   1      4.3049999999999926      50.224999999999994       38.74499999999999
   114   1      2.8699999999999974      48.789999999999992      40.179999999999993
   115   1      4.3049999999999926      50.224999999999994      41.614999999999995
   116   1      2.8699999999999974      48.789999999999992       43.04999999999999
   117   1      4.3049999999999926      50.224999999999994      44.484999999999992
   118   1      2.8699999999999974      48.789999999999992      45.919999999999987
   119   1      4.3049999999999926      50.224999999999994      47.354999999999983
   120   1      2.8699999999999974      48.789999999999992      48.789999999999992
   121   1      4.3049999999999926      50.224999999999994      50.224999999999994
   122   1      4.3049999999999926      50.224999999999994      53.094999999999985
   123   1      4.3049999999999926      53.094999999999985      35.874999999999993
   124   1      4.3049999999999926      53.094999999999985       38.74499999999999
   125   1      2.8699999999999974      51.659999999999989      40.179999999999993
   126   1      4.3049999999999926      53.094999999999985      41.614999999999995
   127   1      2.8699999999999974      51.659999999999989       43.04999999999999
   128   1      4.3049999999999926      53.094999999999985      44.484999999999992
   129   1      2.8699999999999974      51.659999999999989      45.919999999999987
   130   1      4.3049999999999926      53.094999999999985      47.354999999999983
   131   1      4.3049999999999926      53.094999999999985      50.224999999999994
   132   1      4.3049999999999926      55.964999999999989       38.74499999999999
   133   1      4.3049999999999926      55.964999999999989      41.614999999999995
   134   1      2.8699999999999974      54.529999999999987       43.04999999999999
   135   1      4.3049999999999926      55.964999999999989      44.484999999999992
   136   1      4.3049999999999926      55.964999999999989      47.354999999999983
   137   1      4.3049999999999926      58.834999999999994      41.614999999999995
   138   1      4.3049999999999926      58.834999999999994      44.484999999999992
   139   1      7.1749999999999972      15.784999999999993      41.614999999999995
   140   1      7.1749999999999972      15.784999999999993      44.484999999999992
   141   1      7.1749999999999972       18.65499999999999       38.74499999999999
   142   1      7.1749999999999972       18.65499999999999      41.614999999999995
   143   1      7.1749999999999972       18.65499999999999      44.484999999999992
   144   1      7.1749999999999972       18.65499999999999      47.354999999999983
   145   1      7.1749999999999972      21.524999999999995      35.874999999999993
   146   1      7.1749999999999972      21.524999999999995       38.74499999999999
   147   1      7.1749999999999972      21.524999999999995      41.614999999999995
   148   1      5.7399999999999949      20.089999999999993       43.04999999999999
   149   1      7.1749999999999972      21.524999999999995      44.484999999999992
   150   1      7.1749999999999972      21.524999999999995      47.354999999999983
   151   1      7.1749999999999972      21.524999999999995      50.224999999999994
   152   1      7.1749999999999972      24.394999999999989      33.004999999999995
   153   1      7.1749999999999972      24.394999999999989      35.874999999999993
   154   1      7.1749999999999972      24.394999999999989       38.74499999999999
   155   1      5.7399999999999949      22.959999999999994      40.179999999999993
   156   1      7.1749999999999972      24.394999999999989      41.614999999999995
   157   1      5.7399999999999949      22.959999999999994       43.04999999999999
   158   1      7.1749999999999972      24.394999999999989      44.484999999999992
   159   1      5.7399999999999949      22.959999999999994      45.919999999999987
   160   1      7.1749999999999972      24.394999999999989      47.354999999999983
   161   1      7.1749999999999972      24.394999999999989      50.224999999999994
   162   1      7.1749999999999972      24.394999999999989      53.094999999999985
   163   1      7.1749999999999972      27.264999999999993      30.134999999999987
   164   1      7.1749999999999972      27.264999999999993      33.004999999999995
   165   1      7.1749999999999972      27.264999999999993      35.874999999999993
   166   1      5.7399999999999949      25.829999999999991      37.309999999999988
   167   1      7.1749999999999972      27.264999999999993       38.74499999999999
   168   1      5.7399999999999949      25.829999999999991      40.179999999999993
   169   1      7.1749999999999972      27.264999999999993      41.614999999999995
   170   1      5.7399999999999949      25.829999999999991       43.04999999999999
   171   1      7.1749999999999972      27.264999999999993      44.484999999999992
   172   1      5.7399999999999949      25.829999999999991      45.919999999999987
   173   1      7.1749999999999972      27.264999999999993      47.354999999999983
   174   1      5.7399999999999949      25.829999999999991      48.789999999999992
   175   1      7.1749999999999972      27.264999999999993      50.224999999999994
   176   1      7.1749999999999972      27.264999999999993      53.094999999999985
   177   1      7.1749999999999972      27.264999999999993      55.964999999999989
   178   1      7.1749999999999972      30.134999999999987      27.264999999999993
   179   1      7.1749999999999972      30.134999999999987      30.134999999999987
   180   1      7.1749999999999972      30.134999999999987      33.004999999999995
   181   1      5.7399999999999949      28.699999999999992      34.439999999999991
   182   1      7.1749999999999972      30.134999999999987      35.874999999999993
   183   1      5.7399999999999949      28.699999999999992      37.309999999999988
   184   1      7.1749999999999972      30.134999999999987       38.74499999999999
   185   1      5.7399999999999949      28.699999999999992      40.179999999999993
   186   1      7.1749999999999972      30.134999999999987      41.614999999999995
   187   1      5.7399999999999949      28.699999999999992       43.04999999999999
   188   1      7.1749999999999972      30.134999999999987      44.484999999999992
   189   1      5.7399999999999949      28.699999999999992      45.919999999999987
   190   1      7.1749999999999972      30.134999999999987      47.354999999999983
   191   1      5.7399999999999949      28.699999999999992      48.789999999999992
   192   1      7.1749999999999972      30.134999999999987      50.224999999999994
   193   1      5.7399999999999949      28.699999999999992      51.659999999999989
   194   1      7.1749999999999972      30.134999999999987      53.094999999999985
   195   1      7.1749999999999972      30.134999999999987      55.964999999999989
   196   1      7.1749999999999972      30.134999999999987      58.834999999999994
   197   1      7.1749999999999972      33.004999999999995      24.394999999999989
   198   1      7.1749999999999972      33.004999999999995      27.264999999999993
   199   1      7.1749999999999972      33.004999999999995      30.134999999999987
   200   1      5.7399999999999949      31.569999999999993      31.569999999999993
   201   1      7.1749999999999972      33.004999999999995      33.004999999999995
   202   1      5.7399999999999949      31.569999999999993      34.439999999999991
   203   1      7.1749999999999972      33.004999999999995      35.874999999999993
   204   1      5.7399999999999949      31.569999999999993      37.309999999999988
   205   1      7.1749999999999972      33.004999999999995       38.74499999999999
   206   1      5.7399999999999949      31.569999999999993      40.179999999999993
   207   1      7.1749999999999972      33.004999999999995      41.614999999999995
   208   1      5.7399999999999949      31.569999999999993       43.04999999999999
   209   1      7.1749999999999972      33.004999999999995      44.484999999999992
   210   1      5.7399999999999949      31.569999999999993      45.919999999999987
   211   1      7.1749999999999972      33.004999999999995      47.354999999999983
   212   1      5.7399999999999949      31.569999999999993      48.789999999999992
   213   1      7.1749999999999972      33.004999999999995      50.224999999999994
   214   1      5.7399999999999949      31.569999999999993      51.659999999999989
   215   1      7.1749999999999972      33.004999999999995      53.094999999999985
   216   1      5.7399999999999949      31.569999999999993      54.529999999999987
   217   1      7.1749999999999972      33.004999999999995      55.964999999999989
   218   1      7.1749999999999972      33.004999999999995      58.834999999999994
   219   1      7.1749999999999972      33.004999999999995      61.704999999999984
   220   1      7.1749999999999972      35.874999999999993      21.524999999999995
   221   1      7.1749999999999972      35.874999999999993      24.394999999999989
   222   1      7.1749999999999972      35.874999999999993      27.264999999999993
   223   1      5.7399999999999949      34.439999999999991      28.699999999999992
   224   1      7.1749999999999972      35.874999999999993      30.134999999999987
   225   1      5.7399999999999949      34.439999999999991      31.569999999999993
   226   1      7.1749999999999972      35.874999999999993      33.004999999999995
   227   1      5.7399999999999949      34.439999999999991      34.439999999999991
   228   1      7.1749999999999972      35.874999999999993      35.874999999999993
   229   1      5.7399999999999949      34.439999999999991      37.309999999999988
   230   1      7.1749999999999972      35.874999999999993       38.74499999999999
   231   1      5.7399999999999949      34.439999999999991      40.179999999999993
   232   1      7.1749999999999972      35.874999999999993      41.614999999999995
   233   1      5.7399999999999949      34.439999999999991       43.04999999999999
   234   1      7.1749999999999972      35.874999999999993      44.484999999999992
   235   1      5.7399999999999949      34.439999999999991      45.919999999999987
   236   1      7.1749999999999972      35.874999999999993      47.354999999999983
   237   1      5.7399999999999949      34.439999999999991      48.789999999999992
   238   1      7.1749999999999972      35.874999999999993      50.224999999999994
   239   1      5.7399999999999949      34.439999999999991      51.659999999999989
   240   1      7.1749999999999972      35.874999999999993      53.094999999999985
   241   1      5.7399999999999949      34.439999999999991      54.529999999999987
   242   1      7.1749999999999972      35.874999999999993      55.964999999999989
   243   1      5.7399999999999949      34.439999999999991      57.399999999999991
   244   1      7.1749999999999972      35.874999999999993      58.834999999999994
   245   1      7.1749999999999972      35.874999999999993      61.704999999999984
   246   1      7.1749999999999972      35.874999999999993      64.574999999999989
   247   1      7.1749999999999972       38.74499999999999       18.65499999999999
   248   1      7.1749999999999972       38.74499999999999      21.524999999999995
   249   1      7.1749999999999972       38.74499999999999      24.394999999999989
   250   1      5.7399999999999949      37.309999999999988      25.829999999999991
   251   1      7.1749999999999972       38.74499999999999      27.264999999999993
   252   1      5.7399999999999949      37.309999999999988      28.699999999999992
   253   1      7.1749999999999972       38.74499999999999      30.134999999999987
   254   1      5.7399999999999949      37.309999999999988      31.569999999999993
   255   1      7.1749999999999972       38.74499999999999      33.004999999999995
   256   1      5.7399999999999949      37.309999999999988      34.439999999999991
   257   1      7.1749999999999972       38.74499999999999      35.874999999999993
   258   1      5.7399999999999949      37.309999999999988      37.309999999999988
   259   1      7.1749999999999972       38.74499999999999       38.74499999999999
   260   1      5.7399999999999949      37.309999999999988      40.179999999999993
   261   1      7.1749999999999972       38.74499999999999      41.614999999999995
   262   1      5.7399999999999949      37.309999999999988       43.04999999999999
   263   1      7.1749999999999972       38.74499999999999      44.484999999999992
   264   1      5.7399999999999949      37.309999999999988      45.919999999999987
   265   1      7.1749999999999972       38.74499999999999      47.354999999999983
   266   1      5.7399999999999949      37.309999999999988      48.789999999999992
   267   1      7.1749999999999972       38.74499999999999      50.224999999999994
   268   1      5.7399999999999949      37.309999999999988      51.659999999999989
   269   1      7.1749999999999972       38.74499999999999      53.094999999999985
   270   1      5.7399999999999949      37.309999999999988      54.529999999999987
   271   1      7.1749999999999972       38.74499999999999      55.964999999999989
   272   1      5.7399999999999949      37.309999999999988      57.399999999999991
   273   1      7.1749999999999972       38.74499999999999      58.834999999999994
   274   1      5.7399999999999949      37.309999999999988      60.269999999999989
   275   1      7.1749999999999972       38.74499999999999      61.704999999999984
   276   1      7.1749999999999972       38.74499999999999      64.574999999999989
   277   1      7.1749999999999972       38.74499999999999      67.444999999999993
   278   1      7.1749999999999972      41.614999999999995      15.784999999999993
   279   1      7.1749999999999972      41.614999999999995       18.65499999999999
   280   1      7.1749999999999972      41.614999999999995      21.524999999999995
   281   1      5.7399999999999949      40.179999999999993      22.959999999999994
   282   1      7.1749999999999972      41.614999999999995      24.394999999999989
   283   1      5.7399999999999949      40.179999999999993      25.829999999999991
   284   1      7.1749999999999972      41.614999999999995      27.264999999999993
   285   1      5.7399999999999949      40.179999999999993      28.699999999999992
   286   1      7.1749999999999972      41.614999999999995      30.134999999999987
   287   1      5.7399999999999949      40.179999999999993      31.569999999999993
   288   1      7.1749999999999972      41.614999999999995      33.004999999999995
   289   1      5.7399999999999949      40.179999999999993      34.439999999999991
   290   1      7.1749999999999972      41.614999999999995      35.874999999999993
   291   1      5.7399999999999949      40.179999999999993      37.309999999999988
   292   1      7.1749999999999972      41.614999999999995       38.74499999999999
   293   1      5.7399999999999949      40.179999999999993      40.179999999999993
   294   1      7.1749999999999972      41.614999999999995      41.614999999999995
   295   1      5.7399999999999949      40.179999999999993       43.04999999999999
   296   1      7.1749999999999972      41.614999999999995      44.484999999999992
   297   1      5.7399999999999949      40.179999999999993      45.919999999999987
   298   1      7.1749999999999972      41.614999999999995      47.354999999999983
   299   1      5.7399999999999949      40.179999999999993      48.789999999999992
   300   1      7.1749999999999972      41.614999999999995      50.224999999999994
   301   1      5.7399999999999949      40.179999999999993      51.659999999999989
   302   1      7.1749999999999972      41.614999999999995      53.094999999999985
   303   1      5.7399999999999949      40.179999999999993      54.529999999999987
   304   1      7.1749999999999972      41.614999999999995      55.964999999999989
   305   1      5.7399999999999949      40.179999999999993      57.399999999999991
   306   1      7.1749999999999972      41.614999999999995      58.834999999999994
   307   1      5.7399999999999949      40.179999999999993      60.269999999999989
   308   1      7.1749999999999972      41.614999999999995      61.704999999999984
   309   1      5.7399999999999949      40.179999999999993      63.139999999999986
   310   1      7.1749999999999972      41.614999999999995      64.574999999999989
   311   1      7.1749999999999972      41.614999999999995      67.444999999999993
   312   1      7.1749999999999972      41.614999999999995      70.314999999999984
   313   1      7.1749999999999972      44.484999999999992      15.784999999999993
   314   1      7.1749999999999972      44.484999999999992       18.65499999999999
   315   1      5.7399999999999949       43.04999999999999      20.089999999999993
   316   1      7.1749999999999972      44.484999999999992      21.524999999999995
   317   1      5.7399999999999949       43.04999999999999      22.959999999999994
   318   1      7.1749999999999972      44.484999999999992      24.394999999999989
   319   1      5.7399999999999949       43.04999999999999      25.829999999999991
   320   1      7.1749999999999972      44.484999999999992      27.264999999999993
   321   1      5.7399999999999949       43.04999999999999      28.699999999999992
   322   1      7.1749999999999972      44.484999999999992      30.134999999999987
   323   1      5.7399999999999949       43.04999999999999      31.569999999999993
   324   1      7.1749999999999972      44.484999999999992      33.004999999999995
   325   1      5.7399999999999949       43.04999999999999      34.439999999999991
   326   1      7.1749999999999972      44.484999999999992      35.874999999999993
   327   1      5.7399999999999949       43.04999999999999      37.309999999999988
   328   1      7.1749999999999972      44.484999999999992       38.74499999999999
   329   1      5.7399999999999949       43.04999999999999      40.179999999999993
   330   1      7.1749999999999972      44.484999999999992      41.614999999999995
   331   1      5.7399999999999949       43.04999999999999       43.04999999999999
   332   1      7.1749999999999972      44.484999999999992      44.484999999999992
   333   1      5.7399999999999949       43.04999999999999      45.919999999999987
   334   1      7.1749999999999972      44.484999999999992      47.354999999999983
   335   1      5.7399999999999949       43.04999999999999      48.789999999999992
   336   1      7.1749999999999972      44.484999999999992      50.224999999999994
   337   1      5.7399999999999949       43.04999999999999      51.659999999999989
   338   1      7.1749999999999972      44.484999999999992      53.094999999999985
   339   1      5.7399999999999949       43.04999999999999      54.529999999999987
   340   1      7.1749999999999972      44.484999999999992      55.964999999999989
   341   1      5.7399999999999949       43.04999999999999      57.399999999999991
   342   1      7.1749999999999972      44.484999999999992      58.834999999999994
   343   1      5.7399999999999949       43.04999999999999      60.269999999999989
   344   1      7.1749999999999972      44.484999999999992      61.704999999999984
   345   1      5.7399999999999949       43.04999999999999      63.139999999999986
   346   1      7.1749999999999972      44.484999999999992      64.574999999999989
   347   1      5.7399999999999949       43.04999999999999      66.009999999999991
   348   1      7.1749999999999972      44.484999999999992      67.444999999999993
   349   1      7.1749999999999972      44.484999999999992      70.314999999999984
   350   1      7.1749999999999972      47.354999999999983       18.65499999999999
   351   1      7.1749999999999972      47.354999999999983      21.524999999999995
   352   1      5.7399999999999949      45.919999999999987      22.959999999999994
   353   1      7.1749999999999972      47.354999999999983      24.394999999999989
   354   1      5.7399999999999949      45.919999999999987      25.829999999999991
   355   1      7.1749999999999972      47.354999999999983      27.264999999999993
   356   1      5.7399999999999949      45.919999999999987      28.699999999999992
   357   1      7.1749999999999972      47.354999999999983      30.134999999999987
   358   1      5.7399999999999949      45.919999999999987      31.569999999999993