model_files/Ag/Ag_30000/Ag_552/data.Ag_552_fcc_30217 (written by ASE) 

30217 	 atoms 
1  atom types
0.0                     130  xlo xhi
0.0                     130  ylo yhi
0.0                     130  zlo zhi


Atoms 

     1   1      2.0449999999999946      63.395000000000003      65.440000000000012
     2   1      2.0449999999999946      65.440000000000012      63.395000000000003
     3   1                       0      65.440000000000012      65.440000000000012
     4   1      2.0449999999999946      65.440000000000012      67.484999999999999
     5   1      2.0449999999999946      67.484999999999999      65.440000000000012
     6   1       6.134999999999998                  59.305      61.349999999999994
     7   1       6.134999999999998                  59.305      65.440000000000012
     8   1       6.134999999999998                  59.305      69.530000000000001
     9   1       6.134999999999998      61.349999999999994                  59.305
    10   1      4.0899999999999972      61.349999999999994      61.349999999999994
    11   1      4.0899999999999972      63.395000000000003      63.395000000000003
    12   1       6.134999999999998      61.349999999999994      63.395000000000003
    13   1       6.134999999999998      63.395000000000003      61.349999999999994
    14   1      4.0899999999999972      61.349999999999994      65.440000000000012
    15   1      4.0899999999999972      63.395000000000003      67.484999999999999
    16   1       6.134999999999998      61.349999999999994      67.484999999999999
    17   1       6.134999999999998      63.395000000000003      65.440000000000012
    18   1      4.0899999999999972      61.349999999999994      69.530000000000001
    19   1       6.134999999999998      61.349999999999994      71.575000000000003
    20   1       6.134999999999998      63.395000000000003      69.530000000000001
    21   1       6.134999999999998      65.440000000000012                  59.305
    22   1      4.0899999999999972      65.440000000000012      61.349999999999994
    23   1      4.0899999999999972      67.484999999999999      63.395000000000003
    24   1       6.134999999999998      65.440000000000012      63.395000000000003
    25   1       6.134999999999998      67.484999999999999      61.349999999999994
    26   1      4.0899999999999972      65.440000000000012      65.440000000000012
    27   1      4.0899999999999972      67.484999999999999      67.484999999999999
    28   1       6.134999999999998      65.440000000000012      67.484999999999999
    29   1       6.134999999999998      67.484999999999999      65.440000000000012
    30   1      4.0899999999999972      65.440000000000012      69.530000000000001
    31   1       6.134999999999998      65.440000000000012      71.575000000000003
    32   1       6.134999999999998      67.484999999999999      69.530000000000001
    33   1       6.134999999999998      69.530000000000001                  59.305
    34   1      4.0899999999999972      69.530000000000001      61.349999999999994
    35   1       6.134999999999998      69.530000000000001      63.395000000000003
    36   1       6.134999999999998      71.575000000000003      61.349999999999994
    37   1      4.0899999999999972      69.530000000000001      65.440000000000012
    38   1       6.134999999999998      69.530000000000001      67.484999999999999
    39   1       6.134999999999998      71.575000000000003      65.440000000000012
    40   1      4.0899999999999972      69.530000000000001      69.530000000000001
    41   1       6.134999999999998      69.530000000000001      71.575000000000003
    42   1       6.134999999999998      71.575000000000003      69.530000000000001
    43   1      10.224999999999994      55.215000000000003      61.349999999999994
    44   1      10.224999999999994      55.215000000000003      65.440000000000012
    45   1      10.224999999999994      55.215000000000003      69.530000000000001
    46   1      8.1799999999999944                  59.305                  59.305
    47   1      10.224999999999994      57.259999999999991                  59.305
    48   1      10.224999999999994                  59.305      57.259999999999991
    49   1      8.1799999999999944      57.259999999999991      61.349999999999994
    50   1      8.1799999999999944                  59.305      63.395000000000003
    51   1      10.224999999999994      57.259999999999991      63.395000000000003
    52   1      10.224999999999994                  59.305      61.349999999999994
    53   1      8.1799999999999944      57.259999999999991      65.440000000000012
    54   1      8.1799999999999944                  59.305      67.484999999999999
    55   1      10.224999999999994      57.259999999999991      67.484999999999999
    56   1      10.224999999999994                  59.305      65.440000000000012
    57   1      8.1799999999999944      57.259999999999991      69.530000000000001
    58   1      8.1799999999999944                  59.305      71.575000000000003
    59   1      10.224999999999994      57.259999999999991      71.575000000000003
    60   1      10.224999999999994                  59.305      69.530000000000001
    61   1      10.224999999999994                  59.305      73.620000000000005
    62   1      10.224999999999994      61.349999999999994      55.215000000000003
    63   1      8.1799999999999944      61.349999999999994      57.259999999999991
    64   1      8.1799999999999944      63.395000000000003                  59.305
    65   1      10.224999999999994      61.349999999999994                  59.305
    66   1      10.224999999999994      63.395000000000003      57.259999999999991
    67   1      8.1799999999999944      61.349999999999994      61.349999999999994
    68   1      8.1799999999999944      63.395000000000003      63.395000000000003
    69   1      10.224999999999994      61.349999999999994      63.395000000000003
    70   1      10.224999999999994      63.395000000000003      61.349999999999994
    71   1      8.1799999999999944      61.349999999999994      65.440000000000012
    72   1      8.1799999999999944      63.395000000000003      67.484999999999999
    73   1      10.224999999999994      61.349999999999994      67.484999999999999
    74   1      10.224999999999994      63.395000000000003      65.440000000000012
    75   1      8.1799999999999944      61.349999999999994      69.530000000000001
    76   1      8.1799999999999944      63.395000000000003      71.575000000000003
    77   1      10.224999999999994      61.349999999999994      71.575000000000003
    78   1      10.224999999999994      63.395000000000003      69.530000000000001
    79   1      8.1799999999999944      61.349999999999994      73.620000000000005
    80   1      10.224999999999994      61.349999999999994      75.664999999999992
    81   1      10.224999999999994      63.395000000000003      73.620000000000005
    82   1      10.224999999999994      65.440000000000012      55.215000000000003
    83   1      8.1799999999999944      65.440000000000012      57.259999999999991
    84   1      8.1799999999999944      67.484999999999999                  59.305
    85   1      10.224999999999994      65.440000000000012                  59.305
    86   1      10.224999999999994      67.484999999999999      57.259999999999991
    87   1      8.1799999999999944      65.440000000000012      61.349999999999994
    88   1      8.1799999999999944      67.484999999999999      63.395000000000003
    89   1      10.224999999999994      65.440000000000012      63.395000000000003
    90   1      10.224999999999994      67.484999999999999      61.349999999999994
    91   1      8.1799999999999944      65.440000000000012      65.440000000000012
    92   1      8.1799999999999944      67.484999999999999      67.484999999999999
    93   1      10.224999999999994      65.440000000000012      67.484999999999999
    94   1      10.224999999999994      67.484999999999999      65.440000000000012
    95   1      8.1799999999999944      65.440000000000012      69.530000000000001
    96   1      8.1799999999999944      67.484999999999999      71.575000000000003
    97   1      10.224999999999994      65.440000000000012      71.575000000000003
    98   1      10.224999999999994      67.484999999999999      69.530000000000001
    99   1      8.1799999999999944      65.440000000000012      73.620000000000005
   100   1      10.224999999999994      65.440000000000012      75.664999999999992
   101   1      10.224999999999994      67.484999999999999      73.620000000000005
   102   1      10.224999999999994      69.530000000000001      55.215000000000003
   103   1      8.1799999999999944      69.530000000000001      57.259999999999991
   104   1      8.1799999999999944      71.575000000000003                  59.305
   105   1      10.224999999999994      69.530000000000001                  59.305
   106   1      10.224999999999994      71.575000000000003      57.259999999999991
   107   1      8.1799999999999944      69.530000000000001      61.349999999999994
   108   1      8.1799999999999944      71.575000000000003      63.395000000000003
   109   1      10.224999999999994      69.530000000000001      63.395000000000003
   110   1      10.224999999999994      71.575000000000003      61.349999999999994
   111   1      8.1799999999999944      69.530000000000001      65.440000000000012
   112   1      8.1799999999999944      71.575000000000003      67.484999999999999
   113   1      10.224999999999994      69.530000000000001      67.484999999999999
   114   1      10.224999999999994      71.575000000000003      65.440000000000012
   115   1      8.1799999999999944      69.530000000000001      69.530000000000001
   116   1      8.1799999999999944      71.575000000000003      71.575000000000003
   117   1      10.224999999999994      69.530000000000001      71.575000000000003
   118   1      10.224999999999994      71.575000000000003      69.530000000000001
   119   1      8.1799999999999944      69.530000000000001      73.620000000000005
   120   1      10.224999999999994      69.530000000000001      75.664999999999992
   121   1      10.224999999999994      71.575000000000003      73.620000000000005
   122   1      10.224999999999994      73.620000000000005                  59.305
   123   1      8.1799999999999944      73.620000000000005      61.349999999999994
   124   1      10.224999999999994      73.620000000000005      63.395000000000003
   125   1      10.224999999999994      75.664999999999992      61.349999999999994
   126   1      8.1799999999999944      73.620000000000005      65.440000000000012
   127   1      10.224999999999994      73.620000000000005      67.484999999999999
   128   1      10.224999999999994      75.664999999999992      65.440000000000012
   129   1      8.1799999999999944      73.620000000000005      69.530000000000001
   130   1      10.224999999999994      73.620000000000005      71.575000000000003
   131   1      10.224999999999994      75.664999999999992      69.530000000000001
   132   1      14.314999999999998      51.125000000000007      61.349999999999994
   133   1      14.314999999999998      51.125000000000007      65.440000000000012
   134   1      14.314999999999998      51.125000000000007      69.530000000000001
   135   1      12.269999999999996      55.215000000000003      55.215000000000003
   136   1      14.314999999999998      53.169999999999995      55.215000000000003
   137   1      14.314999999999998      55.215000000000003      53.169999999999995
   138   1      12.269999999999996      55.215000000000003                  59.305
   139   1      14.314999999999998      53.169999999999995                  59.305
   140   1      14.314999999999998      55.215000000000003      57.259999999999991
   141   1      12.269999999999996      53.169999999999995      61.349999999999994
   142   1      12.269999999999996      55.215000000000003      63.395000000000003
   143   1      14.314999999999998      53.169999999999995      63.395000000000003
   144   1      14.314999999999998      55.215000000000003      61.349999999999994
   145   1      12.269999999999996      53.169999999999995      65.440000000000012
   146   1      12.269999999999996      55.215000000000003      67.484999999999999
   147   1      14.314999999999998      53.169999999999995      67.484999999999999
   148   1      14.314999999999998      55.215000000000003      65.440000000000012
   149   1      12.269999999999996      53.169999999999995      69.530000000000001
   150   1      12.269999999999996      55.215000000000003      71.575000000000003
   151   1      14.314999999999998      53.169999999999995      71.575000000000003
   152   1      14.314999999999998      55.215000000000003      69.530000000000001
   153   1      12.269999999999996      55.215000000000003      75.664999999999992
   154   1      14.314999999999998      53.169999999999995      75.664999999999992
   155   1      14.314999999999998      55.215000000000003      73.620000000000005
   156   1      14.314999999999998      55.215000000000003      77.709999999999994
   157   1      12.269999999999996                  59.305      55.215000000000003
   158   1      14.314999999999998      57.259999999999991      55.215000000000003
   159   1      14.314999999999998                  59.305      53.169999999999995
   160   1      12.269999999999996      57.259999999999991      57.259999999999991
   161   1      12.269999999999996                  59.305                  59.305
   162   1      14.314999999999998      57.259999999999991                  59.305
   163   1      14.314999999999998                  59.305      57.259999999999991
   164   1      12.269999999999996      57.259999999999991      61.349999999999994
   165   1      12.269999999999996                  59.305      63.395000000000003
   166   1      14.314999999999998      57.259999999999991      63.395000000000003
   167   1      14.314999999999998                  59.305      61.349999999999994
   168   1      12.269999999999996      57.259999999999991      65.440000000000012
   169   1      12.269999999999996                  59.305      67.484999999999999
   170   1      14.314999999999998      57.259999999999991      67.484999999999999
   171   1      14.314999999999998                  59.305      65.440000000000012
   172   1      12.269999999999996      57.259999999999991      69.530000000000001
   173   1      12.269999999999996                  59.305      71.575000000000003
   174   1      14.314999999999998      57.259999999999991      71.575000000000003
   175   1      14.314999999999998                  59.305      69.530000000000001
   176   1      12.269999999999996      57.259999999999991      73.620000000000005
   177   1      12.269999999999996                  59.305      75.664999999999992
   178   1      14.314999999999998      57.259999999999991      75.664999999999992
   179   1      14.314999999999998                  59.305      73.620000000000005
   180   1      14.314999999999998                  59.305      77.709999999999994
   181   1      14.314999999999998      61.349999999999994      51.125000000000007
   182   1      12.269999999999996      61.349999999999994      53.169999999999995
   183   1      12.269999999999996      63.395000000000003      55.215000000000003
   184   1      14.314999999999998      61.349999999999994      55.215000000000003
   185   1      14.314999999999998      63.395000000000003      53.169999999999995
   186   1      12.269999999999996      61.349999999999994      57.259999999999991
   187   1      12.269999999999996      63.395000000000003                  59.305
   188   1      14.314999999999998      61.349999999999994                  59.305
   189   1      14.314999999999998      63.395000000000003      57.259999999999991
   190   1      12.269999999999996      61.349999999999994      61.349999999999994
   191   1      12.269999999999996      63.395000000000003      63.395000000000003
   192   1      14.314999999999998      61.349999999999994      63.395000000000003
   193   1      14.314999999999998      63.395000000000003      61.349999999999994
   194   1      12.269999999999996      61.349999999999994      65.440000000000012
   195   1      12.269999999999996      63.395000000000003      67.484999999999999
   196   1      14.314999999999998      61.349999999999994      67.484999999999999
   197   1      14.314999999999998      63.395000000000003      65.440000000000012
   198   1      12.269999999999996      61.349999999999994      69.530000000000001
   199   1      12.269999999999996      63.395000000000003      71.575000000000003
   200   1      14.314999999999998      61.349999999999994      71.575000000000003
   201   1      14.314999999999998      63.395000000000003      69.530000000000001
   202   1      12.269999999999996      61.349999999999994      73.620000000000005
   203   1      12.269999999999996      63.395000000000003      75.664999999999992
   204   1      14.314999999999998      61.349999999999994      75.664999999999992
   205   1      14.314999999999998      63.395000000000003      73.620000000000005
   206   1      12.269999999999996      61.349999999999994      77.709999999999994
   207   1      14.314999999999998      61.349999999999994       79.75500000000001
   208   1      14.314999999999998      63.395000000000003      77.709999999999994
   209   1      14.314999999999998      65.440000000000012      51.125000000000007
   210   1      12.269999999999996      65.440000000000012      53.169999999999995
   211   1      12.269999999999996      67.484999999999999      55.215000000000003
   212   1      14.314999999999998      65.440000000000012      55.215000000000003
   213   1      14.314999999999998      67.484999999999999      53.169999999999995
   214   1      12.269999999999996      65.440000000000012      57.259999999999991
   215   1      12.269999999999996      67.484999999999999                  59.305
   216   1      14.314999999999998      65.440000000000012                  59.305
   217   1      14.314999999999998      67.484999999999999      57.259999999999991
   218   1      12.269999999999996      65.440000000000012      61.349999999999994
   219   1      12.269999999999996      67.484999999999999      63.395000000000003
   220   1      14.314999999999998      65.440000000000012      63.395000000000003
   221   1      14.314999999999998      67.484999999999999      61.349999999999994
   222   1      12.269999999999996      65.440000000000012      65.440000000000012
   223   1      12.269999999999996      67.484999999999999      67.484999999999999
   224   1      14.314999999999998      65.440000000000012      67.484999999999999
   225   1      14.314999999999998      67.484999999999999      65.440000000000012
   226   1      12.269999999999996      65.440000000000012      69.530000000000001
   227   1      12.269999999999996      67.484999999999999      71.575000000000003
   228   1      14.314999999999998      65.440000000000012      71.575000000000003
   229   1      14.314999999999998      67.484999999999999      69.530000000000001
   230   1      12.269999999999996      65.440000000000012      73.620000000000005
   231   1      12.269999999999996      67.484999999999999      75.664999999999992
   232   1      14.314999999999998      65.440000000000012      75.664999999999992
   233   1      14.314999999999998      67.484999999999999      73.620000000000005
   234   1      12.269999999999996      65.440000000000012      77.709999999999994
   235   1      14.314999999999998      65.440000000000012       79.75500000000001
   236   1      14.314999999999998      67.484999999999999      77.709999999999994
   237   1      14.314999999999998      69.530000000000001      51.125000000000007
   238   1      12.269999999999996      69.530000000000001      53.169999999999995
   239   1      12.269999999999996      71.575000000000003      55.215000000000003
   240   1      14.314999999999998      69.530000000000001      55.215000000000003
   241   1      14.314999999999998      71.575000000000003      53.169999999999995
   242   1      12.269999999999996      69.530000000000001      57.259999999999991
   243   1      12.269999999999996      71.575000000000003                  59.305
   244   1      14.314999999999998      69.530000000000001                  59.305
   245   1      14.314999999999998      71.575000000000003      57.259999999999991
   246   1      12.269999999999996      69.530000000000001      61.349999999999994
   247   1      12.269999999999996      71.575000000000003      63.395000000000003
   248   1      14.314999999999998      69.530000000000001      63.395000000000003
   249   1      14.314999999999998      71.575000000000003      61.349999999999994
   250   1      12.269999999999996      69.530000000000001      65.440000000000012
   251   1      12.269999999999996      71.575000000000003      67.484999999999999
   252   1      14.314999999999998      69.530000000000001      67.484999999999999
   253   1      14.314999999999998      71.575000000000003      65.440000000000012
   254   1      12.269999999999996      69.530000000000001      69.530000000000001
   255   1      12.269999999999996      71.575000000000003      71.575000000000003
   256   1      14.314999999999998      69.530000000000001      71.575000000000003
   257   1      14.314999999999998      71.575000000000003      69.530000000000001
   258   1      12.269999999999996      69.530000000000001      73.620000000000005
   259   1      12.269999999999996      71.575000000000003      75.664999999999992
   260   1      14.314999999999998      69.530000000000001      75.664999999999992
   261   1      14.314999999999998      71.575000000000003      73.620000000000005
   262   1      12.269999999999996      69.530000000000001      77.709999999999994
   263   1      14.314999999999998      69.530000000000001       79.75500000000001
   264   1      14.314999999999998      71.575000000000003      77.709999999999994
   265   1      12.269999999999996      75.664999999999992      55.215000000000003
   266   1      14.314999999999998      73.620000000000005      55.215000000000003
   267   1      14.314999999999998      75.664999999999992      53.169999999999995
   268   1      12.269999999999996      73.620000000000005      57.259999999999991
   269   1      12.269999999999996      75.664999999999992                  59.305
   270   1      14.314999999999998      73.620000000000005                  59.305
   271   1      14.314999999999998      75.664999999999992      57.259999999999991
   272   1      12.269999999999996      73.620000000000005      61.349999999999994
   273   1      12.269999999999996      75.664999999999992      63.395000000000003
   274   1      14.314999999999998      73.620000000000005      63.395000000000003
   275   1      14.314999999999998      75.664999999999992      61.349999999999994
   276   1      12.269999999999996      73.620000000000005      65.440000000000012
   277   1      12.269999999999996      75.664999999999992      67.484999999999999
   278   1      14.314999999999998      73.620000000000005      67.484999999999999
   279   1      14.314999999999998      75.664999999999992      65.440000000000012
   280   1      12.269999999999996      73.620000000000005      69.530000000000001
   281   1      12.269999999999996      75.664999999999992      71.575000000000003
   282   1      14.314999999999998      73.620000000000005      71.575000000000003
   283   1      14.314999999999998      75.664999999999992      69.530000000000001
   284   1      12.269999999999996      73.620000000000005      73.620000000000005
   285   1      12.269999999999996      75.664999999999992      75.664999999999992
   286   1      14.314999999999998      73.620000000000005      75.664999999999992
   287   1      14.314999999999998      75.664999999999992      73.620000000000005
   288   1      14.314999999999998      75.664999999999992      77.709999999999994
   289   1      14.314999999999998      77.709999999999994      55.215000000000003
   290   1      14.314999999999998      77.709999999999994                  59.305
   291   1      12.269999999999996      77.709999999999994      61.349999999999994
   292   1      14.314999999999998      77.709999999999994      63.395000000000003
   293   1      14.314999999999998       79.75500000000001      61.349999999999994
   294   1      12.269999999999996      77.709999999999994      65.440000000000012
   295   1      14.314999999999998      77.709999999999994      67.484999999999999
   296   1      14.314999999999998       79.75500000000001      65.440000000000012
   297   1      12.269999999999996      77.709999999999994      69.530000000000001
   298   1      14.314999999999998      77.709999999999994      71.575000000000003
   299   1      14.314999999999998       79.75500000000001      69.530000000000001
   300   1      14.314999999999998      77.709999999999994      75.664999999999992
   301   1      18.404999999999994      47.034999999999997      61.349999999999994
   302   1      18.404999999999994      47.034999999999997      65.440000000000012
   303   1      18.404999999999994      47.034999999999997      69.530000000000001
   304   1      16.360000000000003      51.125000000000007      55.215000000000003
   305   1      18.404999999999994      49.079999999999998      55.215000000000003
   306   1      18.404999999999994      51.125000000000007      53.169999999999995
   307   1      16.360000000000003      51.125000000000007                  59.305
   308   1      18.404999999999994      49.079999999999998                  59.305
   309   1      18.404999999999994      51.125000000000007      57.259999999999991
   310   1      16.360000000000003      49.079999999999998      61.349999999999994
   311   1      16.360000000000003      51.125000000000007      63.395000000000003
   312   1      18.404999999999994      49.079999999999998      63.395000000000003
   313   1      18.404999999999994      51.125000000000007      61.349999999999994
   314   1      16.360000000000003      49.079999999999998      65.440000000000012
   315   1      16.360000000000003      51.125000000000007      67.484999999999999
   316   1      18.404999999999994      49.079999999999998      67.484999999999999
   317   1      18.404999999999994      51.125000000000007      65.440000000000012
   318   1      16.360000000000003      49.079999999999998      69.530000000000001
   319   1      16.360000000000003      51.125000000000007      71.575000000000003
   320   1      18.404999999999994      49.079999999999998      71.575000000000003
   321   1      18.404999999999994      51.125000000000007      69.530000000000001
   322   1      16.360000000000003      51.125000000000007      75.664999999999992
   323   1      18.404999999999994      49.079999999999998      75.664999999999992
   324   1      18.404999999999994      51.125000000000007      73.620000000000005
   325   1      18.404999999999994      51.125000000000007      77.709999999999994
   326   1      16.360000000000003      55.215000000000003      51.125000000000007
   327   1      18.404999999999994      53.169999999999995      51.125000000000007
   328   1      18.404999999999994      55.215000000000003      49.079999999999998
   329   1      16.360000000000003      53.169999999999995      53.169999999999995
   330   1      16.360000000000003      55.215000000000003      55.215000000000003
   331   1      18.404999999999994      53.169999999999995      55.215000000000003
   332   1      18.404999999999994      55.215000000000003      53.169999999999995
   333   1      16.360000000000003      53.169999999999995      57.259999999999991
   334   1      16.360000000000003      55.215000000000003                  59.305
   335   1      18.404999999999994      53.169999999999995                  59.305
   336   1      18.404999999999994      55.215000000000003      57.259999999999991
   337   1      16.360000000000003      53.169999999999995      61.349999999999994
   338   1      16.360000000000003      55.215000000000003      63.395000000000003
   339   1      18.404999999999994      53.169999999999995      63.395000000000003
   340   1      18.404999999999994      55.215000000000003      61.349999999999994
   341   1      16.360000000000003      53.169999999999995      65.440000000000012
   342   1      16.360000000000003      55.215000000000003      67.484999999999999
   343   1      18.404999999999994      53.169999999999995      67.484999999999999
   344   1      18.404999999999994      55.215000000000003      65.440000000000012
   345   1      16.360000000000003      53.169999999999995      69.530000000000001
   346   1      16.360000000000003      55.215000000000003      71.575000000000003
   347   1      18.404999999999994      53.169999999999995      71.575000000000003
   348   1      18.404999999999994      55.215000000000003      69.530000000000001
   349   1      16.360000000000003      53.169999999999995      73.620000000000005
   350   1      16.360000000000003      55.215000000000003      75.664999999999992
   351   1      18.404999999999994      53.169999999999995      75.664999999999992
   352   1      18.404999999999994      55.215000000000003      73.620000000000005
   353   1      16.360000000000003      53.169999999999995      77.709999999999994
   354   1      16.360000000000003      55.215000000000003       79.75500000000001
   355   1      18.404999999999994      53.169999999999995       79.75500000000001
   356   1      18.404999999999994      55.215000000000003      77.709999999999994
   357   1      18.404999999999994      55.215000000000003      81.799999999999997
   358   1      16.360000000000003                  59.305      51.125000000000007