model_files/Ni/Ni_30000/Ni_210/data.Ni_210_fcc_30389 (written by ASE) 

30389 	 atoms 
1  atom types
0.0                      88  xlo xhi
0.0                      88  ylo yhi
0.0                      88  zlo zhi


Atoms 

     1   1  7.1054273576010019e-15      42.240000000000009      44.000000000000007
     2   1  7.1054273576010019e-15      44.000000000000007      42.240000000000009
     3   1  7.1054273576010019e-15      44.000000000000007      45.760000000000005
     4   1  7.1054273576010019e-15      45.760000000000005      44.000000000000007
     5   1      3.5200000000000102       35.20000000000001      36.960000000000008
     6   1      3.5200000000000102       35.20000000000001      40.480000000000011
     7   1      3.5200000000000102       35.20000000000001      44.000000000000007
     8   1      3.5200000000000102       35.20000000000001       47.52000000000001
     9   1      3.5200000000000102       35.20000000000001      51.040000000000006
    10   1      3.5200000000000102      36.960000000000008       35.20000000000001
    11   1      1.7600000000000122      38.720000000000006      38.720000000000006
    12   1      3.5200000000000102      36.960000000000008      38.720000000000006
    13   1      3.5200000000000102      38.720000000000006      36.960000000000008
    14   1      1.7600000000000122      38.720000000000006      42.240000000000009
    15   1      3.5200000000000102      36.960000000000008      42.240000000000009
    16   1      3.5200000000000102      38.720000000000006      40.480000000000011
    17   1      1.7600000000000122      38.720000000000006      45.760000000000005
    18   1      3.5200000000000102      36.960000000000008      45.760000000000005
    19   1      3.5200000000000102      38.720000000000006      44.000000000000007
    20   1      1.7600000000000122      38.720000000000006      49.280000000000015
    21   1      3.5200000000000102      36.960000000000008      49.280000000000015
    22   1      3.5200000000000102      38.720000000000006       47.52000000000001
    23   1      3.5200000000000102      36.960000000000008      52.800000000000011
    24   1      3.5200000000000102      38.720000000000006      51.040000000000006
    25   1      3.5200000000000102      40.480000000000011       35.20000000000001
    26   1      1.7600000000000122      42.240000000000009      38.720000000000006
    27   1      3.5200000000000102      40.480000000000011      38.720000000000006
    28   1      3.5200000000000102      42.240000000000009      36.960000000000008
    29   1      1.7600000000000122      40.480000000000011      40.480000000000011
    30   1      1.7600000000000122      42.240000000000009      42.240000000000009
    31   1      3.5200000000000102      40.480000000000011      42.240000000000009
    32   1      3.5200000000000102      42.240000000000009      40.480000000000011
    33   1      1.7600000000000122      40.480000000000011      44.000000000000007
    34   1      1.7600000000000122      42.240000000000009      45.760000000000005
    35   1      3.5200000000000102      40.480000000000011      45.760000000000005
    36   1      3.5200000000000102      42.240000000000009      44.000000000000007
    37   1      1.7600000000000122      40.480000000000011       47.52000000000001
    38   1      1.7600000000000122      42.240000000000009      49.280000000000015
    39   1      3.5200000000000102      40.480000000000011      49.280000000000015
    40   1      3.5200000000000102      42.240000000000009       47.52000000000001
    41   1      3.5200000000000102      40.480000000000011      52.800000000000011
    42   1      3.5200000000000102      42.240000000000009      51.040000000000006
    43   1      3.5200000000000102      44.000000000000007       35.20000000000001
    44   1      1.7600000000000122      45.760000000000005      38.720000000000006
    45   1      3.5200000000000102      44.000000000000007      38.720000000000006
    46   1      3.5200000000000102      45.760000000000005      36.960000000000008
    47   1      1.7600000000000122      44.000000000000007      40.480000000000011
    48   1      1.7600000000000122      45.760000000000005      42.240000000000009
    49   1      3.5200000000000102      44.000000000000007      42.240000000000009
    50   1      3.5200000000000102      45.760000000000005      40.480000000000011
    51   1      1.7600000000000122      44.000000000000007      44.000000000000007
    52   1      1.7600000000000122      45.760000000000005      45.760000000000005
    53   1      3.5200000000000102      44.000000000000007      45.760000000000005
    54   1      3.5200000000000102      45.760000000000005      44.000000000000007
    55   1      1.7600000000000122      44.000000000000007       47.52000000000001
    56   1      1.7600000000000122      45.760000000000005      49.280000000000015
    57   1      3.5200000000000102      44.000000000000007      49.280000000000015
    58   1      3.5200000000000102      45.760000000000005       47.52000000000001
    59   1      3.5200000000000102      44.000000000000007      52.800000000000011
    60   1      3.5200000000000102      45.760000000000005      51.040000000000006
    61   1      3.5200000000000102       47.52000000000001       35.20000000000001
    62   1      1.7600000000000122      49.280000000000015      38.720000000000006
    63   1      3.5200000000000102       47.52000000000001      38.720000000000006
    64   1      3.5200000000000102      49.280000000000015      36.960000000000008
    65   1      1.7600000000000122       47.52000000000001      40.480000000000011
    66   1      1.7600000000000122      49.280000000000015      42.240000000000009
    67   1      3.5200000000000102       47.52000000000001      42.240000000000009
    68   1      3.5200000000000102      49.280000000000015      40.480000000000011
    69   1      1.7600000000000122       47.52000000000001      44.000000000000007
    70   1      1.7600000000000122      49.280000000000015      45.760000000000005
    71   1      3.5200000000000102       47.52000000000001      45.760000000000005
    72   1      3.5200000000000102      49.280000000000015      44.000000000000007
    73   1      1.7600000000000122       47.52000000000001       47.52000000000001
    74   1      1.7600000000000122      49.280000000000015      49.280000000000015
    75   1      3.5200000000000102       47.52000000000001      49.280000000000015
    76   1      3.5200000000000102      49.280000000000015       47.52000000000001
    77   1      3.5200000000000102       47.52000000000001      52.800000000000011
    78   1      3.5200000000000102      49.280000000000015      51.040000000000006
    79   1      3.5200000000000102      51.040000000000006       35.20000000000001
    80   1      3.5200000000000102      51.040000000000006      38.720000000000006
    81   1      3.5200000000000102      52.800000000000011      36.960000000000008
    82   1      3.5200000000000102      51.040000000000006      42.240000000000009
    83   1      3.5200000000000102      52.800000000000011      40.480000000000011
    84   1      3.5200000000000102      51.040000000000006      45.760000000000005
    85   1      3.5200000000000102      52.800000000000011      44.000000000000007
    86   1      3.5200000000000102      51.040000000000006      49.280000000000015
    87   1      3.5200000000000102      52.800000000000011       47.52000000000001
    88   1      3.5200000000000102      51.040000000000006      52.800000000000011
    89   1      3.5200000000000102      52.800000000000011      51.040000000000006
    90   1      7.0400000000000134      28.160000000000011      29.920000000000012
    91   1      7.0400000000000134      28.160000000000011      33.440000000000012
    92   1      7.0400000000000134      28.160000000000011      36.960000000000008
    93   1      7.0400000000000134      28.160000000000011      40.480000000000011
    94   1      7.0400000000000134      28.160000000000011      44.000000000000007
    95   1      7.0400000000000134      28.160000000000011       47.52000000000001
    96   1      7.0400000000000134      28.160000000000011      51.040000000000006
    97   1      7.0400000000000134      28.160000000000011      54.560000000000009
    98   1      7.0400000000000134      28.160000000000011      58.080000000000013
    99   1      7.0400000000000134      29.920000000000012      28.160000000000011
   100   1      5.2800000000000082      31.680000000000007      31.680000000000007
   101   1      7.0400000000000134      29.920000000000012      31.680000000000007
   102   1      7.0400000000000134      31.680000000000007      29.920000000000012
   103   1      5.2800000000000082      31.680000000000007       35.20000000000001
   104   1      7.0400000000000134      29.920000000000012       35.20000000000001
   105   1      7.0400000000000134      31.680000000000007      33.440000000000012
   106   1      5.2800000000000082      31.680000000000007      38.720000000000006
   107   1      7.0400000000000134      29.920000000000012      38.720000000000006
   108   1      7.0400000000000134      31.680000000000007      36.960000000000008
   109   1      5.2800000000000082      31.680000000000007      42.240000000000009
   110   1      7.0400000000000134      29.920000000000012      42.240000000000009
   111   1      7.0400000000000134      31.680000000000007      40.480000000000011
   112   1      5.2800000000000082      31.680000000000007      45.760000000000005
   113   1      7.0400000000000134      29.920000000000012      45.760000000000005
   114   1      7.0400000000000134      31.680000000000007      44.000000000000007
   115   1      5.2800000000000082      31.680000000000007      49.280000000000015
   116   1      7.0400000000000134      29.920000000000012      49.280000000000015
   117   1      7.0400000000000134      31.680000000000007       47.52000000000001
   118   1      5.2800000000000082      31.680000000000007      52.800000000000011
   119   1      7.0400000000000134      29.920000000000012      52.800000000000011
   120   1      7.0400000000000134      31.680000000000007      51.040000000000006
   121   1      5.2800000000000082      31.680000000000007      56.320000000000007
   122   1      7.0400000000000134      29.920000000000012      56.320000000000007
   123   1      7.0400000000000134      31.680000000000007      54.560000000000009
   124   1      7.0400000000000134      29.920000000000012      59.840000000000018
   125   1      7.0400000000000134      31.680000000000007      58.080000000000013
   126   1      7.0400000000000134      33.440000000000012      28.160000000000011
   127   1      5.2800000000000082       35.20000000000001      31.680000000000007
   128   1      7.0400000000000134      33.440000000000012      31.680000000000007
   129   1      7.0400000000000134       35.20000000000001      29.920000000000012
   130   1      5.2800000000000082      33.440000000000012      33.440000000000012
   131   1      5.2800000000000082       35.20000000000001       35.20000000000001
   132   1      7.0400000000000134      33.440000000000012       35.20000000000001
   133   1      7.0400000000000134       35.20000000000001      33.440000000000012
   134   1      5.2800000000000082      33.440000000000012      36.960000000000008
   135   1      5.2800000000000082       35.20000000000001      38.720000000000006
   136   1      7.0400000000000134      33.440000000000012      38.720000000000006
   137   1      7.0400000000000134       35.20000000000001      36.960000000000008
   138   1      5.2800000000000082      33.440000000000012      40.480000000000011
   139   1      5.2800000000000082       35.20000000000001      42.240000000000009
   140   1      7.0400000000000134      33.440000000000012      42.240000000000009
   141   1      7.0400000000000134       35.20000000000001      40.480000000000011
   142   1      5.2800000000000082      33.440000000000012      44.000000000000007
   143   1      5.2800000000000082       35.20000000000001      45.760000000000005
   144   1      7.0400000000000134      33.440000000000012      45.760000000000005
   145   1      7.0400000000000134       35.20000000000001      44.000000000000007
   146   1      5.2800000000000082      33.440000000000012       47.52000000000001
   147   1      5.2800000000000082       35.20000000000001      49.280000000000015
   148   1      7.0400000000000134      33.440000000000012      49.280000000000015
   149   1      7.0400000000000134       35.20000000000001       47.52000000000001
   150   1      5.2800000000000082      33.440000000000012      51.040000000000006
   151   1      5.2800000000000082       35.20000000000001      52.800000000000011
   152   1      7.0400000000000134      33.440000000000012      52.800000000000011
   153   1      7.0400000000000134       35.20000000000001      51.040000000000006
   154   1      5.2800000000000082      33.440000000000012      54.560000000000009
   155   1      5.2800000000000082       35.20000000000001      56.320000000000007
   156   1      7.0400000000000134      33.440000000000012      56.320000000000007
   157   1      7.0400000000000134       35.20000000000001      54.560000000000009
   158   1      7.0400000000000134      33.440000000000012      59.840000000000018
   159   1      7.0400000000000134       35.20000000000001      58.080000000000013
   160   1      7.0400000000000134      36.960000000000008      28.160000000000011
   161   1      5.2800000000000082      38.720000000000006      31.680000000000007
   162   1      7.0400000000000134      36.960000000000008      31.680000000000007
   163   1      7.0400000000000134      38.720000000000006      29.920000000000012
   164   1      5.2800000000000082      36.960000000000008      33.440000000000012
   165   1      5.2800000000000082      38.720000000000006       35.20000000000001
   166   1      7.0400000000000134      36.960000000000008       35.20000000000001
   167   1      7.0400000000000134      38.720000000000006      33.440000000000012
   168   1      5.2800000000000082      36.960000000000008      36.960000000000008
   169   1      5.2800000000000082      38.720000000000006      38.720000000000006
   170   1      7.0400000000000134      36.960000000000008      38.720000000000006
   171   1      7.0400000000000134      38.720000000000006      36.960000000000008
   172   1      5.2800000000000082      36.960000000000008      40.480000000000011
   173   1      5.2800000000000082      38.720000000000006      42.240000000000009
   174   1      7.0400000000000134      36.960000000000008      42.240000000000009
   175   1      7.0400000000000134      38.720000000000006      40.480000000000011
   176   1      5.2800000000000082      36.960000000000008      44.000000000000007
   177   1      5.2800000000000082      38.720000000000006      45.760000000000005
   178   1      7.0400000000000134      36.960000000000008      45.760000000000005
   179   1      7.0400000000000134      38.720000000000006      44.000000000000007
   180   1      5.2800000000000082      36.960000000000008       47.52000000000001
   181   1      5.2800000000000082      38.720000000000006      49.280000000000015
   182   1      7.0400000000000134      36.960000000000008      49.280000000000015
   183   1      7.0400000000000134      38.720000000000006       47.52000000000001
   184   1      5.2800000000000082      36.960000000000008      51.040000000000006
   185   1      5.2800000000000082      38.720000000000006      52.800000000000011
   186   1      7.0400000000000134      36.960000000000008      52.800000000000011
   187   1      7.0400000000000134      38.720000000000006      51.040000000000006
   188   1      5.2800000000000082      36.960000000000008      54.560000000000009
   189   1      5.2800000000000082      38.720000000000006      56.320000000000007
   190   1      7.0400000000000134      36.960000000000008      56.320000000000007
   191   1      7.0400000000000134      38.720000000000006      54.560000000000009
   192   1      7.0400000000000134      36.960000000000008      59.840000000000018
   193   1      7.0400000000000134      38.720000000000006      58.080000000000013
   194   1      7.0400000000000134      40.480000000000011      28.160000000000011
   195   1      5.2800000000000082      42.240000000000009      31.680000000000007
   196   1      7.0400000000000134      40.480000000000011      31.680000000000007
   197   1      7.0400000000000134      42.240000000000009      29.920000000000012
   198   1      5.2800000000000082      40.480000000000011      33.440000000000012
   199   1      5.2800000000000082      42.240000000000009       35.20000000000001
   200   1      7.0400000000000134      40.480000000000011       35.20000000000001
   201   1      7.0400000000000134      42.240000000000009      33.440000000000012
   202   1      5.2800000000000082      40.480000000000011      36.960000000000008
   203   1      5.2800000000000082      42.240000000000009      38.720000000000006
   204   1      7.0400000000000134      40.480000000000011      38.720000000000006
   205   1      7.0400000000000134      42.240000000000009      36.960000000000008
   206   1      5.2800000000000082      40.480000000000011      40.480000000000011
   207   1      5.2800000000000082      42.240000000000009      42.240000000000009
   208   1      7.0400000000000134      40.480000000000011      42.240000000000009
   209   1      7.0400000000000134      42.240000000000009      40.480000000000011
   210   1      5.2800000000000082      40.480000000000011      44.000000000000007
   211   1      5.2800000000000082      42.240000000000009      45.760000000000005
   212   1      7.0400000000000134      40.480000000000011      45.760000000000005
   213   1      7.0400000000000134      42.240000000000009      44.000000000000007
   214   1      5.2800000000000082      40.480000000000011       47.52000000000001
   215   1      5.2800000000000082      42.240000000000009      49.280000000000015
   216   1      7.0400000000000134      40.480000000000011      49.280000000000015
   217   1      7.0400000000000134      42.240000000000009       47.52000000000001
   218   1      5.2800000000000082      40.480000000000011      51.040000000000006
   219   1      5.2800000000000082      42.240000000000009      52.800000000000011
   220   1      7.0400000000000134      40.480000000000011      52.800000000000011
   221   1      7.0400000000000134      42.240000000000009      51.040000000000006
   222   1      5.2800000000000082      40.480000000000011      54.560000000000009
   223   1      5.2800000000000082      42.240000000000009      56.320000000000007
   224   1      7.0400000000000134      40.480000000000011      56.320000000000007
   225   1      7.0400000000000134      42.240000000000009      54.560000000000009
   226   1      7.0400000000000134      40.480000000000011      59.840000000000018
   227   1      7.0400000000000134      42.240000000000009      58.080000000000013
   228   1      7.0400000000000134      44.000000000000007      28.160000000000011
   229   1      5.2800000000000082      45.760000000000005      31.680000000000007
   230   1      7.0400000000000134      44.000000000000007      31.680000000000007
   231   1      7.0400000000000134      45.760000000000005      29.920000000000012
   232   1      5.2800000000000082      44.000000000000007      33.440000000000012
   233   1      5.2800000000000082      45.760000000000005       35.20000000000001
   234   1      7.0400000000000134      44.000000000000007       35.20000000000001
   235   1      7.0400000000000134      45.760000000000005      33.440000000000012
   236   1      5.2800000000000082      44.000000000000007      36.960000000000008
   237   1      5.2800000000000082      45.760000000000005      38.720000000000006
   238   1      7.0400000000000134      44.000000000000007      38.720000000000006
   239   1      7.0400000000000134      45.760000000000005      36.960000000000008
   240   1      5.2800000000000082      44.000000000000007      40.480000000000011
   241   1      5.2800000000000082      45.760000000000005      42.240000000000009
   242   1      7.0400000000000134      44.000000000000007      42.240000000000009
   243   1      7.0400000000000134      45.760000000000005      40.480000000000011
   244   1      5.2800000000000082      44.000000000000007      44.000000000000007
   245   1      5.2800000000000082      45.760000000000005      45.760000000000005
   246   1      7.0400000000000134      44.000000000000007      45.760000000000005
   247   1      7.0400000000000134      45.760000000000005      44.000000000000007
   248   1      5.2800000000000082      44.000000000000007       47.52000000000001
   249   1      5.2800000000000082      45.760000000000005      49.280000000000015
   250   1      7.0400000000000134      44.000000000000007      49.280000000000015
   251   1      7.0400000000000134      45.760000000000005       47.52000000000001
   252   1      5.2800000000000082      44.000000000000007      51.040000000000006
   253   1      5.2800000000000082      45.760000000000005      52.800000000000011
   254   1      7.0400000000000134      44.000000000000007      52.800000000000011
   255   1      7.0400000000000134      45.760000000000005      51.040000000000006
   256   1      5.2800000000000082      44.000000000000007      54.560000000000009
   257   1      5.2800000000000082      45.760000000000005      56.320000000000007
   258   1      7.0400000000000134      44.000000000000007      56.320000000000007
   259   1      7.0400000000000134      45.760000000000005      54.560000000000009
   260   1      7.0400000000000134      44.000000000000007      59.840000000000018
   261   1      7.0400000000000134      45.760000000000005      58.080000000000013
   262   1      7.0400000000000134       47.52000000000001      28.160000000000011
   263   1      5.2800000000000082      49.280000000000015      31.680000000000007
   264   1      7.0400000000000134       47.52000000000001      31.680000000000007
   265   1      7.0400000000000134      49.280000000000015      29.920000000000012
   266   1      5.2800000000000082       47.52000000000001      33.440000000000012
   267   1      5.2800000000000082      49.280000000000015       35.20000000000001
   268   1      7.0400000000000134       47.52000000000001       35.20000000000001
   269   1      7.0400000000000134      49.280000000000015      33.440000000000012
   270   1      5.2800000000000082       47.52000000000001      36.960000000000008
   271   1      5.2800000000000082      49.280000000000015      38.720000000000006
   272   1      7.0400000000000134       47.52000000000001      38.720000000000006
   273   1      7.0400000000000134      49.280000000000015      36.960000000000008
   274   1      5.2800000000000082       47.52000000000001      40.480000000000011
   275   1      5.2800000000000082      49.280000000000015      42.240000000000009
   276   1      7.0400000000000134       47.52000000000001      42.240000000000009
   277   1      7.0400000000000134      49.280000000000015      40.480000000000011
   278   1      5.2800000000000082       47.52000000000001      44.000000000000007
   279   1      5.2800000000000082      49.280000000000015      45.760000000000005
   280   1      7.0400000000000134       47.52000000000001      45.760000000000005
   281   1      7.0400000000000134      49.280000000000015      44.000000000000007
   282   1      5.2800000000000082       47.52000000000001       47.52000000000001
   283   1      5.2800000000000082      49.280000000000015      49.280000000000015
   284   1      7.0400000000000134       47.52000000000001      49.280000000000015
   285   1      7.0400000000000134      49.280000000000015       47.52000000000001
   286   1      5.2800000000000082       47.52000000000001      51.040000000000006
   287   1      5.2800000000000082      49.280000000000015      52.800000000000011
   288   1      7.0400000000000134       47.52000000000001      52.800000000000011
   289   1      7.0400000000000134      49.280000000000015      51.040000000000006
   290   1      5.2800000000000082       47.52000000000001      54.560000000000009
   291   1      5.2800000000000082      49.280000000000015      56.320000000000007
   292   1      7.0400000000000134       47.52000000000001      56.320000000000007
   293   1      7.0400000000000134      49.280000000000015      54.560000000000009
   294   1      7.0400000000000134       47.52000000000001      59.840000000000018
   295   1      7.0400000000000134      49.280000000000015      58.080000000000013
   296   1      7.0400000000000134      51.040000000000006      28.160000000000011
   297   1      5.2800000000000082      52.800000000000011      31.680000000000007
   298   1      7.0400000000000134      51.040000000000006      31.680000000000007
   299   1      7.0400000000000134      52.800000000000011      29.920000000000012
   300   1      5.2800000000000082      51.040000000000006      33.440000000000012
   301   1      5.2800000000000082      52.800000000000011       35.20000000000001
   302   1      7.0400000000000134      51.040000000000006       35.20000000000001
   303   1      7.0400000000000134      52.800000000000011      33.440000000000012
   304   1      5.2800000000000082      51.040000000000006      36.960000000000008
   305   1      5.2800000000000082      52.800000000000011      38.720000000000006
   306   1      7.0400000000000134      51.040000000000006      38.720000000000006
   307   1      7.0400000000000134      52.800000000000011      36.960000000000008
   308   1      5.2800000000000082      51.040000000000006      40.480000000000011
   309   1      5.2800000000000082      52.800000000000011      42.240000000000009
   310   1      7.0400000000000134      51.040000000000006      42.240000000000009
   311   1      7.0400000000000134      52.800000000000011      40.480000000000011
   312   1      5.2800000000000082      51.040000000000006      44.000000000000007
   313   1      5.2800000000000082      52.800000000000011      45.760000000000005
   314   1      7.0400000000000134      51.040000000000006      45.760000000000005
   315   1      7.0400000000000134      52.800000000000011      44.000000000000007
   316   1      5.2800000000000082      51.040000000000006       47.52000000000001
   317   1      5.2800000000000082      52.800000000000011      49.280000000000015
   318   1      7.0400000000000134      51.040000000000006      49.280000000000015
   319   1      7.0400000000000134      52.800000000000011       47.52000000000001
   320   1      5.2800000000000082      51.040000000000006      51.040000000000006
   321   1      5.2800000000000082      52.800000000000011      52.800000000000011
   322   1      7.0400000000000134      51.040000000000006      52.800000000000011
   323   1      7.0400000000000134      52.800000000000011      51.040000000000006
   324   1      5.2800000000000082      51.040000000000006      54.560000000000009
   325   1      5.2800000000000082      52.800000000000011      56.320000000000007
   326   1      7.0400000000000134      51.040000000000006      56.320000000000007
   327   1      7.0400000000000134      52.800000000000011      54.560000000000009
   328   1      7.0400000000000134      51.040000000000006      59.840000000000018
   329   1      7.0400000000000134      52.800000000000011      58.080000000000013
   330   1      7.0400000000000134      54.560000000000009      28.160000000000011
   331   1      5.2800000000000082      56.320000000000007      31.680000000000007
   332   1      7.0400000000000134      54.560000000000009      31.680000000000007
   333   1      7.0400000000000134      56.320000000000007      29.920000000000012
   334   1      5.2800000000000082      54.560000000000009      33.440000000000012
   335   1      5.2800000000000082      56.320000000000007       35.20000000000001
   336   1      7.0400000000000134      54.560000000000009       35.20000000000001
   337   1      7.0400000000000134      56.320000000000007      33.440000000000012
   338   1      5.2800000000000082      54.560000000000009      36.960000000000008
   339   1      5.2800000000000082      56.320000000000007      38.720000000000006
   340   1      7.0400000000000134      54.560000000000009      38.720000000000006
   341   1      7.0400000000000134      56.320000000000007      36.960000000000008
   342   1      5.2800000000000082      54.560000000000009      40.480000000000011
   343   1      5.2800000000000082      56.320000000000007      42.240000000000009
   344   1      7.0400000000000134      54.560000000000009      42.240000000000009
   345   1      7.0400000000000134      56.320000000000007      40.480000000000011
   346   1      5.2800000000000082      54.560000000000009      44.000000000000007
   347   1      5.2800000000000082      56.320000000000007      45.760000000000005
   348   1      7.0400000000000134      54.560000000000009      45.760000000000005
   349   1      7.0400000000000134      56.320000000000007      44.000000000000007
   350   1      5.2800000000000082      54.560000000000009       47.52000000000001
   351   1      5.2800000000000082      56.320000000000007      49.280000000000015
   352   1      7.0400000000000134      54.560000000000009      49.280000000000015
   353   1      7.0400000000000134      56.320000000000007       47.52000000000001
   354   1      5.2800000000000082      54.560000000000009      51.040000000000006
   355   1      5.2800000000000082      56.320000000000007      52.800000000000011
   356   1      7.0400000000000134      54.560000000000009      52.800000000000011
   357   1      7.0400000000000134      56.320000000000007      51.040000000000006
   358   1      5.2800000000000082      54.560000000000009      54.560000000000009