model_files/Au/Au_30000/Au_530/data.Au_530_fcc_29831 (written by ASE) 

29831 	 atoms 
1  atom types
0.0                     106  xlo xhi
0.0                     106  ylo yhi
0.0                     106  zlo zhi


Atoms 

     1   1      105.99999999999999      50.999999999999986      50.999999999999986
     2   1      2.0399999999999849      48.959999999999987      50.999999999999986
     3   1      2.0399999999999849      50.999999999999986      48.959999999999987
     4   1      105.99999999999999      50.999999999999986      55.079999999999984
     5   1      2.0399999999999849      48.959999999999987      55.079999999999984
     6   1      2.0399999999999849      50.999999999999986      53.039999999999992
     7   1      2.0399999999999849      50.999999999999986       57.11999999999999
     8   1      105.99999999999999      55.079999999999984      50.999999999999986
     9   1      2.0399999999999849      53.039999999999992      50.999999999999986
    10   1      2.0399999999999849      55.079999999999984      48.959999999999987
    11   1      105.99999999999999      53.039999999999992      53.039999999999992
    12   1      105.99999999999999      55.079999999999984      55.079999999999984
    13   1      2.0399999999999849      53.039999999999992      55.079999999999984
    14   1      2.0399999999999849      55.079999999999984      53.039999999999992
    15   1      2.0399999999999849      55.079999999999984       57.11999999999999
    16   1      2.0399999999999849       57.11999999999999      50.999999999999986
    17   1      2.0399999999999849       57.11999999999999      55.079999999999984
    18   1      6.1199999999999903       40.79999999999999      42.839999999999989
    19   1      6.1199999999999903      42.839999999999989       40.79999999999999
    20   1      6.1199999999999903       40.79999999999999      46.919999999999987
    21   1      6.1199999999999903      42.839999999999989      44.879999999999988
    22   1      6.1199999999999903       40.79999999999999      50.999999999999986
    23   1      6.1199999999999903      42.839999999999989      48.959999999999987
    24   1      6.1199999999999903       40.79999999999999      55.079999999999984
    25   1      6.1199999999999903      42.839999999999989      53.039999999999992
    26   1      6.1199999999999903       40.79999999999999      59.159999999999982
    27   1      6.1199999999999903      42.839999999999989       57.11999999999999
    28   1      6.1199999999999903       40.79999999999999      63.239999999999988
    29   1      6.1199999999999903      42.839999999999989      61.199999999999989
    30   1      6.1199999999999903      42.839999999999989      65.279999999999987
    31   1      6.1199999999999903      44.879999999999988      42.839999999999989
    32   1      6.1199999999999903      46.919999999999987       40.79999999999999
    33   1      4.0799999999999841      44.879999999999988      44.879999999999988
    34   1      4.0799999999999841      46.919999999999987      46.919999999999987
    35   1      6.1199999999999903      44.879999999999988      46.919999999999987
    36   1      6.1199999999999903      46.919999999999987      44.879999999999988
    37   1      4.0799999999999841      44.879999999999988      48.959999999999987
    38   1      4.0799999999999841      46.919999999999987      50.999999999999986
    39   1      6.1199999999999903      44.879999999999988      50.999999999999986
    40   1      6.1199999999999903      46.919999999999987      48.959999999999987
    41   1      4.0799999999999841      44.879999999999988      53.039999999999992
    42   1      4.0799999999999841      46.919999999999987      55.079999999999984
    43   1      6.1199999999999903      44.879999999999988      55.079999999999984
    44   1      6.1199999999999903      46.919999999999987      53.039999999999992
    45   1      4.0799999999999841      44.879999999999988       57.11999999999999
    46   1      4.0799999999999841      46.919999999999987      59.159999999999982
    47   1      6.1199999999999903      44.879999999999988      59.159999999999982
    48   1      6.1199999999999903      46.919999999999987       57.11999999999999
    49   1      4.0799999999999841      44.879999999999988      61.199999999999989
    50   1      6.1199999999999903      44.879999999999988      63.239999999999988
    51   1      6.1199999999999903      46.919999999999987      61.199999999999989
    52   1      6.1199999999999903      46.919999999999987      65.279999999999987
    53   1      6.1199999999999903      48.959999999999987      42.839999999999989
    54   1      6.1199999999999903      50.999999999999986       40.79999999999999
    55   1      4.0799999999999841      48.959999999999987      44.879999999999988
    56   1      4.0799999999999841      50.999999999999986      46.919999999999987
    57   1      6.1199999999999903      48.959999999999987      46.919999999999987
    58   1      6.1199999999999903      50.999999999999986      44.879999999999988
    59   1      4.0799999999999841      48.959999999999987      48.959999999999987
    60   1      4.0799999999999841      50.999999999999986      50.999999999999986
    61   1      6.1199999999999903      48.959999999999987      50.999999999999986
    62   1      6.1199999999999903      50.999999999999986      48.959999999999987
    63   1      4.0799999999999841      48.959999999999987      53.039999999999992
    64   1      4.0799999999999841      50.999999999999986      55.079999999999984
    65   1      6.1199999999999903      48.959999999999987      55.079999999999984
    66   1      6.1199999999999903      50.999999999999986      53.039999999999992
    67   1      4.0799999999999841      48.959999999999987       57.11999999999999
    68   1      4.0799999999999841      50.999999999999986      59.159999999999982
    69   1      6.1199999999999903      48.959999999999987      59.159999999999982
    70   1      6.1199999999999903      50.999999999999986       57.11999999999999
    71   1      4.0799999999999841      48.959999999999987      61.199999999999989
    72   1      6.1199999999999903      48.959999999999987      63.239999999999988
    73   1      6.1199999999999903      50.999999999999986      61.199999999999989
    74   1      6.1199999999999903      50.999999999999986      65.279999999999987
    75   1      6.1199999999999903      53.039999999999992      42.839999999999989
    76   1      6.1199999999999903      55.079999999999984       40.79999999999999
    77   1      4.0799999999999841      53.039999999999992      44.879999999999988
    78   1      4.0799999999999841      55.079999999999984      46.919999999999987
    79   1      6.1199999999999903      53.039999999999992      46.919999999999987
    80   1      6.1199999999999903      55.079999999999984      44.879999999999988
    81   1      4.0799999999999841      53.039999999999992      48.959999999999987
    82   1      4.0799999999999841      55.079999999999984      50.999999999999986
    83   1      6.1199999999999903      53.039999999999992      50.999999999999986
    84   1      6.1199999999999903      55.079999999999984      48.959999999999987
    85   1      4.0799999999999841      53.039999999999992      53.039999999999992
    86   1      4.0799999999999841      55.079999999999984      55.079999999999984
    87   1      6.1199999999999903      53.039999999999992      55.079999999999984
    88   1      6.1199999999999903      55.079999999999984      53.039999999999992
    89   1      4.0799999999999841      53.039999999999992       57.11999999999999
    90   1      4.0799999999999841      55.079999999999984      59.159999999999982
    91   1      6.1199999999999903      53.039999999999992      59.159999999999982
    92   1      6.1199999999999903      55.079999999999984       57.11999999999999
    93   1      4.0799999999999841      53.039999999999992      61.199999999999989
    94   1      6.1199999999999903      53.039999999999992      63.239999999999988
    95   1      6.1199999999999903      55.079999999999984      61.199999999999989
    96   1      6.1199999999999903      55.079999999999984      65.279999999999987
    97   1      6.1199999999999903       57.11999999999999      42.839999999999989
    98   1      6.1199999999999903      59.159999999999982       40.79999999999999
    99   1      4.0799999999999841       57.11999999999999      44.879999999999988
   100   1      4.0799999999999841      59.159999999999982      46.919999999999987
   101   1      6.1199999999999903       57.11999999999999      46.919999999999987
   102   1      6.1199999999999903      59.159999999999982      44.879999999999988
   103   1      4.0799999999999841       57.11999999999999      48.959999999999987
   104   1      4.0799999999999841      59.159999999999982      50.999999999999986
   105   1      6.1199999999999903       57.11999999999999      50.999999999999986
   106   1      6.1199999999999903      59.159999999999982      48.959999999999987
   107   1      4.0799999999999841       57.11999999999999      53.039999999999992
   108   1      4.0799999999999841      59.159999999999982      55.079999999999984
   109   1      6.1199999999999903       57.11999999999999      55.079999999999984
   110   1      6.1199999999999903      59.159999999999982      53.039999999999992
   111   1      4.0799999999999841       57.11999999999999       57.11999999999999
   112   1      4.0799999999999841      59.159999999999982      59.159999999999982
   113   1      6.1199999999999903       57.11999999999999      59.159999999999982
   114   1      6.1199999999999903      59.159999999999982       57.11999999999999
   115   1      4.0799999999999841       57.11999999999999      61.199999999999989
   116   1      6.1199999999999903       57.11999999999999      63.239999999999988
   117   1      6.1199999999999903      59.159999999999982      61.199999999999989
   118   1      6.1199999999999903      59.159999999999982      65.279999999999987
   119   1      6.1199999999999903      61.199999999999989      42.839999999999989
   120   1      6.1199999999999903      63.239999999999988       40.79999999999999
   121   1      4.0799999999999841      61.199999999999989      44.879999999999988
   122   1      6.1199999999999903      61.199999999999989      46.919999999999987
   123   1      6.1199999999999903      63.239999999999988      44.879999999999988
   124   1      4.0799999999999841      61.199999999999989      48.959999999999987
   125   1      6.1199999999999903      61.199999999999989      50.999999999999986
   126   1      6.1199999999999903      63.239999999999988      48.959999999999987
   127   1      4.0799999999999841      61.199999999999989      53.039999999999992
   128   1      6.1199999999999903      61.199999999999989      55.079999999999984
   129   1      6.1199999999999903      63.239999999999988      53.039999999999992
   130   1      4.0799999999999841      61.199999999999989       57.11999999999999
   131   1      6.1199999999999903      61.199999999999989      59.159999999999982
   132   1      6.1199999999999903      63.239999999999988       57.11999999999999
   133   1      4.0799999999999841      61.199999999999989      61.199999999999989
   134   1      6.1199999999999903      61.199999999999989      63.239999999999988
   135   1      6.1199999999999903      63.239999999999988      61.199999999999989
   136   1      6.1199999999999903      63.239999999999988      65.279999999999987
   137   1      6.1199999999999903      65.279999999999987      42.839999999999989
   138   1      6.1199999999999903      65.279999999999987      46.919999999999987
   139   1      6.1199999999999903      65.279999999999987      50.999999999999986
   140   1      6.1199999999999903      65.279999999999987      55.079999999999984
   141   1      6.1199999999999903      65.279999999999987      59.159999999999982
   142   1      6.1199999999999903      65.279999999999987      63.239999999999988
   143   1      10.199999999999989      34.679999999999986      36.719999999999985
   144   1      10.199999999999989      34.679999999999986       40.79999999999999
   145   1      10.199999999999989      34.679999999999986      44.879999999999988
   146   1      10.199999999999989      34.679999999999986      48.959999999999987
   147   1      10.199999999999989      34.679999999999986      53.039999999999992
   148   1      10.199999999999989      34.679999999999986       57.11999999999999
   149   1      10.199999999999989      34.679999999999986      61.199999999999989
   150   1      10.199999999999989      34.679999999999986      65.279999999999987
   151   1      10.199999999999989      34.679999999999986      69.359999999999985
   152   1      10.199999999999989      36.719999999999985      34.679999999999986
   153   1      8.1599999999999895      38.759999999999984      38.759999999999984
   154   1      10.199999999999989      36.719999999999985      38.759999999999984
   155   1      10.199999999999989      38.759999999999984      36.719999999999985
   156   1      8.1599999999999895      38.759999999999984      42.839999999999989
   157   1      10.199999999999989      36.719999999999985      42.839999999999989
   158   1      10.199999999999989      38.759999999999984       40.79999999999999
   159   1      8.1599999999999895      38.759999999999984      46.919999999999987
   160   1      10.199999999999989      36.719999999999985      46.919999999999987
   161   1      10.199999999999989      38.759999999999984      44.879999999999988
   162   1      8.1599999999999895      38.759999999999984      50.999999999999986
   163   1      10.199999999999989      36.719999999999985      50.999999999999986
   164   1      10.199999999999989      38.759999999999984      48.959999999999987
   165   1      8.1599999999999895      38.759999999999984      55.079999999999984
   166   1      10.199999999999989      36.719999999999985      55.079999999999984
   167   1      10.199999999999989      38.759999999999984      53.039999999999992
   168   1      8.1599999999999895      38.759999999999984      59.159999999999982
   169   1      10.199999999999989      36.719999999999985      59.159999999999982
   170   1      10.199999999999989      38.759999999999984       57.11999999999999
   171   1      8.1599999999999895      38.759999999999984      63.239999999999988
   172   1      10.199999999999989      36.719999999999985      63.239999999999988
   173   1      10.199999999999989      38.759999999999984      61.199999999999989
   174   1      8.1599999999999895      38.759999999999984      67.319999999999993
   175   1      10.199999999999989      36.719999999999985      67.319999999999993
   176   1      10.199999999999989      38.759999999999984      65.279999999999987
   177   1      10.199999999999989      36.719999999999985      71.399999999999977
   178   1      10.199999999999989      38.759999999999984      69.359999999999985
   179   1      10.199999999999989       40.79999999999999      34.679999999999986
   180   1      8.1599999999999895      42.839999999999989      38.759999999999984
   181   1      10.199999999999989       40.79999999999999      38.759999999999984
   182   1      10.199999999999989      42.839999999999989      36.719999999999985
   183   1      8.1599999999999895       40.79999999999999       40.79999999999999
   184   1      8.1599999999999895      42.839999999999989      42.839999999999989
   185   1      10.199999999999989       40.79999999999999      42.839999999999989
   186   1      10.199999999999989      42.839999999999989       40.79999999999999
   187   1      8.1599999999999895       40.79999999999999      44.879999999999988
   188   1      8.1599999999999895      42.839999999999989      46.919999999999987
   189   1      10.199999999999989       40.79999999999999      46.919999999999987
   190   1      10.199999999999989      42.839999999999989      44.879999999999988
   191   1      8.1599999999999895       40.79999999999999      48.959999999999987
   192   1      8.1599999999999895      42.839999999999989      50.999999999999986
   193   1      10.199999999999989       40.79999999999999      50.999999999999986
   194   1      10.199999999999989      42.839999999999989      48.959999999999987
   195   1      8.1599999999999895       40.79999999999999      53.039999999999992
   196   1      8.1599999999999895      42.839999999999989      55.079999999999984
   197   1      10.199999999999989       40.79999999999999      55.079999999999984
   198   1      10.199999999999989      42.839999999999989      53.039999999999992
   199   1      8.1599999999999895       40.79999999999999       57.11999999999999
   200   1      8.1599999999999895      42.839999999999989      59.159999999999982
   201   1      10.199999999999989       40.79999999999999      59.159999999999982
   202   1      10.199999999999989      42.839999999999989       57.11999999999999
   203   1      8.1599999999999895       40.79999999999999      61.199999999999989
   204   1      8.1599999999999895      42.839999999999989      63.239999999999988
   205   1      10.199999999999989       40.79999999999999      63.239999999999988
   206   1      10.199999999999989      42.839999999999989      61.199999999999989
   207   1      8.1599999999999895       40.79999999999999      65.279999999999987
   208   1      8.1599999999999895      42.839999999999989      67.319999999999993
   209   1      10.199999999999989       40.79999999999999      67.319999999999993
   210   1      10.199999999999989      42.839999999999989      65.279999999999987
   211   1      10.199999999999989       40.79999999999999      71.399999999999977
   212   1      10.199999999999989      42.839999999999989      69.359999999999985
   213   1      10.199999999999989      44.879999999999988      34.679999999999986
   214   1      8.1599999999999895      46.919999999999987      38.759999999999984
   215   1      10.199999999999989      44.879999999999988      38.759999999999984
   216   1      10.199999999999989      46.919999999999987      36.719999999999985
   217   1      8.1599999999999895      44.879999999999988       40.79999999999999
   218   1      8.1599999999999895      46.919999999999987      42.839999999999989
   219   1      10.199999999999989      44.879999999999988      42.839999999999989
   220   1      10.199999999999989      46.919999999999987       40.79999999999999
   221   1      8.1599999999999895      44.879999999999988      44.879999999999988
   222   1      8.1599999999999895      46.919999999999987      46.919999999999987
   223   1      10.199999999999989      44.879999999999988      46.919999999999987
   224   1      10.199999999999989      46.919999999999987      44.879999999999988
   225   1      8.1599999999999895      44.879999999999988      48.959999999999987
   226   1      8.1599999999999895      46.919999999999987      50.999999999999986
   227   1      10.199999999999989      44.879999999999988      50.999999999999986
   228   1      10.199999999999989      46.919999999999987      48.959999999999987
   229   1      8.1599999999999895      44.879999999999988      53.039999999999992
   230   1      8.1599999999999895      46.919999999999987      55.079999999999984
   231   1      10.199999999999989      44.879999999999988      55.079999999999984
   232   1      10.199999999999989      46.919999999999987      53.039999999999992
   233   1      8.1599999999999895      44.879999999999988       57.11999999999999
   234   1      8.1599999999999895      46.919999999999987      59.159999999999982
   235   1      10.199999999999989      44.879999999999988      59.159999999999982
   236   1      10.199999999999989      46.919999999999987       57.11999999999999
   237   1      8.1599999999999895      44.879999999999988      61.199999999999989
   238   1      8.1599999999999895      46.919999999999987      63.239999999999988
   239   1      10.199999999999989      44.879999999999988      63.239999999999988
   240   1      10.199999999999989      46.919999999999987      61.199999999999989
   241   1      8.1599999999999895      44.879999999999988      65.279999999999987
   242   1      8.1599999999999895      46.919999999999987      67.319999999999993
   243   1      10.199999999999989      44.879999999999988      67.319999999999993
   244   1      10.199999999999989      46.919999999999987      65.279999999999987
   245   1      10.199999999999989      44.879999999999988      71.399999999999977
   246   1      10.199999999999989      46.919999999999987      69.359999999999985
   247   1      10.199999999999989      48.959999999999987      34.679999999999986
   248   1      8.1599999999999895      50.999999999999986      38.759999999999984
   249   1      10.199999999999989      48.959999999999987      38.759999999999984
   250   1      10.199999999999989      50.999999999999986      36.719999999999985
   251   1      8.1599999999999895      48.959999999999987       40.79999999999999
   252   1      8.1599999999999895      50.999999999999986      42.839999999999989
   253   1      10.199999999999989      48.959999999999987      42.839999999999989
   254   1      10.199999999999989      50.999999999999986       40.79999999999999
   255   1      8.1599999999999895      48.959999999999987      44.879999999999988
   256   1      8.1599999999999895      50.999999999999986      46.919999999999987
   257   1      10.199999999999989      48.959999999999987      46.919999999999987
   258   1      10.199999999999989      50.999999999999986      44.879999999999988
   259   1      8.1599999999999895      48.959999999999987      48.959999999999987
   260   1      8.1599999999999895      50.999999999999986      50.999999999999986
   261   1      10.199999999999989      48.959999999999987      50.999999999999986
   262   1      10.199999999999989      50.999999999999986      48.959999999999987
   263   1      8.1599999999999895      48.959999999999987      53.039999999999992
   264   1      8.1599999999999895      50.999999999999986      55.079999999999984
   265   1      10.199999999999989      48.959999999999987      55.079999999999984
   266   1      10.199999999999989      50.999999999999986      53.039999999999992
   267   1      8.1599999999999895      48.959999999999987       57.11999999999999
   268   1      8.1599999999999895      50.999999999999986      59.159999999999982
   269   1      10.199999999999989      48.959999999999987      59.159999999999982
   270   1      10.199999999999989      50.999999999999986       57.11999999999999
   271   1      8.1599999999999895      48.959999999999987      61.199999999999989
   272   1      8.1599999999999895      50.999999999999986      63.239999999999988
   273   1      10.199999999999989      48.959999999999987      63.239999999999988
   274   1      10.199999999999989      50.999999999999986      61.199999999999989
   275   1      8.1599999999999895      48.959999999999987      65.279999999999987
   276   1      8.1599999999999895      50.999999999999986      67.319999999999993
   277   1      10.199999999999989      48.959999999999987      67.319999999999993
   278   1      10.199999999999989      50.999999999999986      65.279999999999987
   279   1      10.199999999999989      48.959999999999987      71.399999999999977
   280   1      10.199999999999989      50.999999999999986      69.359999999999985
   281   1      10.199999999999989      53.039999999999992      34.679999999999986
   282   1      8.1599999999999895      55.079999999999984      38.759999999999984
   283   1      10.199999999999989      53.039999999999992      38.759999999999984
   284   1      10.199999999999989      55.079999999999984      36.719999999999985
   285   1      8.1599999999999895      53.039999999999992       40.79999999999999
   286   1      8.1599999999999895      55.079999999999984      42.839999999999989
   287   1      10.199999999999989      53.039999999999992      42.839999999999989
   288   1      10.199999999999989      55.079999999999984       40.79999999999999
   289   1      8.1599999999999895      53.039999999999992      44.879999999999988
   290   1      8.1599999999999895      55.079999999999984      46.919999999999987
   291   1      10.199999999999989      53.039999999999992      46.919999999999987
   292   1      10.199999999999989      55.079999999999984      44.879999999999988
   293   1      8.1599999999999895      53.039999999999992      48.959999999999987
   294   1      8.1599999999999895      55.079999999999984      50.999999999999986
   295   1      10.199999999999989      53.039999999999992      50.999999999999986
   296   1      10.199999999999989      55.079999999999984      48.959999999999987
   297   1      8.1599999999999895      53.039999999999992      53.039999999999992
   298   1      8.1599999999999895      55.079999999999984      55.079999999999984
   299   1      10.199999999999989      53.039999999999992      55.079999999999984
   300   1      10.199999999999989      55.079999999999984      53.039999999999992
   301   1      8.1599999999999895      53.039999999999992       57.11999999999999
   302   1      8.1599999999999895      55.079999999999984      59.159999999999982
   303   1      10.199999999999989      53.039999999999992      59.159999999999982
   304   1      10.199999999999989      55.079999999999984       57.11999999999999
   305   1      8.1599999999999895      53.039999999999992      61.199999999999989
   306   1      8.1599999999999895      55.079999999999984      63.239999999999988
   307   1      10.199999999999989      53.039999999999992      63.239999999999988
   308   1      10.199999999999989      55.079999999999984      61.199999999999989
   309   1      8.1599999999999895      53.039999999999992      65.279999999999987
   310   1      8.1599999999999895      55.079999999999984      67.319999999999993
   311   1      10.199999999999989      53.039999999999992      67.319999999999993
   312   1      10.199999999999989      55.079999999999984      65.279999999999987
   313   1      10.199999999999989      53.039999999999992      71.399999999999977
   314   1      10.199999999999989      55.079999999999984      69.359999999999985
   315   1      10.199999999999989       57.11999999999999      34.679999999999986
   316   1      8.1599999999999895      59.159999999999982      38.759999999999984
   317   1      10.199999999999989       57.11999999999999      38.759999999999984
   318   1      10.199999999999989      59.159999999999982      36.719999999999985
   319   1      8.1599999999999895       57.11999999999999       40.79999999999999
   320   1      8.1599999999999895      59.159999999999982      42.839999999999989
   321   1      10.199999999999989       57.11999999999999      42.839999999999989
   322   1      10.199999999999989      59.159999999999982       40.79999999999999
   323   1      8.1599999999999895       57.11999999999999      44.879999999999988
   324   1      8.1599999999999895      59.159999999999982      46.919999999999987
   325   1      10.199999999999989       57.11999999999999      46.919999999999987
   326   1      10.199999999999989      59.159999999999982      44.879999999999988
   327   1      8.1599999999999895       57.11999999999999      48.959999999999987
   328   1      8.1599999999999895      59.159999999999982      50.999999999999986
   329   1      10.199999999999989       57.11999999999999      50.999999999999986
   330   1      10.199999999999989      59.159999999999982      48.959999999999987
   331   1      8.1599999999999895       57.11999999999999      53.039999999999992
   332   1      8.1599999999999895      59.159999999999982      55.079999999999984
   333   1      10.199999999999989       57.11999999999999      55.079999999999984
   334   1      10.199999999999989      59.159999999999982      53.039999999999992
   335   1      8.1599999999999895       57.11999999999999       57.11999999999999
   336   1      8.1599999999999895      59.159999999999982      59.159999999999982
   337   1      10.199999999999989       57.11999999999999      59.159999999999982
   338   1      10.199999999999989      59.159999999999982       57.11999999999999
   339   1      8.1599999999999895       57.11999999999999      61.199999999999989
   340   1      8.1599999999999895      59.159999999999982      63.239999999999988
   341   1      10.199999999999989       57.11999999999999      63.239999999999988
   342   1      10.199999999999989      59.159999999999982      61.199999999999989
   343   1      8.1599999999999895       57.11999999999999      65.279999999999987
   344   1      8.1599999999999895      59.159999999999982      67.319999999999993
   345   1      10.199999999999989       57.11999999999999      67.319999999999993
   346   1      10.199999999999989      59.159999999999982      65.279999999999987
   347   1      10.199999999999989       57.11999999999999      71.399999999999977
   348   1      10.199999999999989      59.159999999999982      69.359999999999985
   349   1      10.199999999999989      61.199999999999989      34.679999999999986
   350   1      8.1599999999999895      63.239999999999988      38.759999999999984
   351   1      10.199999999999989      61.199999999999989      38.759999999999984
   352   1      10.199999999999989      63.239999999999988      36.719999999999985
   353   1      8.1599999999999895      61.199999999999989       40.79999999999999
   354   1      8.1599999999999895      63.239999999999988      42.839999999999989
   355   1      10.199999999999989      61.199999999999989      42.839999999999989
   356   1      10.199999999999989      63.239999999999988       40.79999999999999
   357   1      8.1599999999999895      61.199999999999989      44.879999999999988
   358   1      8.1599999999999895      63.239999999999988      46.919999999999987