model_files/PtNi/PtNi_30000/PtNi_210/PtNi_210_fcc_30389_temp.data (written by ASE) 

30389 	 atoms 
2  atom types
0.0                      97  xlo xhi
0.0                      97  ylo yhi
0.0                      97  zlo zhi


Atoms 

     1   1  7.1054273576010019e-15      45.960000000000008      47.875000000000007
     2   1  7.1054273576010019e-15      47.875000000000007      45.960000000000008
     3   1  7.1054273576010019e-15      47.875000000000007      49.790000000000006
     4   1  7.1054273576010019e-15      49.790000000000006      47.875000000000007
     5   1      3.8300000000000058      38.300000000000004      40.215000000000011
     6   1      3.8300000000000058      38.300000000000004      44.045000000000009
     7   1      3.8300000000000058      38.300000000000004      47.875000000000007
     8   1      3.8300000000000058      38.300000000000004       51.70500000000002
     9   1      3.8300000000000058      38.300000000000004      55.535000000000011
    10   1      3.8300000000000058      40.215000000000011      38.300000000000004
    11   1      1.9150000000000063       42.13000000000001       42.13000000000001
    12   1      3.8300000000000058      40.215000000000011       42.13000000000001
    13   1      3.8300000000000058       42.13000000000001      40.215000000000011
    14   1      1.9150000000000063       42.13000000000001      45.960000000000008
    15   1      3.8300000000000058      40.215000000000011      45.960000000000008
    16   1      3.8300000000000058       42.13000000000001      44.045000000000009
    17   1      1.9150000000000063       42.13000000000001      49.790000000000006
    18   1      3.8300000000000058      40.215000000000011      49.790000000000006
    19   1      3.8300000000000058       42.13000000000001      47.875000000000007
    20   1      1.9150000000000063       42.13000000000001      53.620000000000005
    21   1      3.8300000000000058      40.215000000000011      53.620000000000005
    22   1      3.8300000000000058       42.13000000000001       51.70500000000002
    23   1      3.8300000000000058      40.215000000000011       57.45000000000001
    24   1      3.8300000000000058       42.13000000000001      55.535000000000011
    25   1      3.8300000000000058      44.045000000000009      38.300000000000004
    26   1      1.9150000000000063      45.960000000000008       42.13000000000001
    27   1      3.8300000000000058      44.045000000000009       42.13000000000001
    28   1      3.8300000000000058      45.960000000000008      40.215000000000011
    29   1      1.9150000000000063      44.045000000000009      44.045000000000009
    30   1      1.9150000000000063      45.960000000000008      45.960000000000008
    31   1      3.8300000000000058      44.045000000000009      45.960000000000008
    32   1      3.8300000000000058      45.960000000000008      44.045000000000009
    33   1      1.9150000000000063      44.045000000000009      47.875000000000007
    34   1      1.9150000000000063      45.960000000000008      49.790000000000006
    35   1      3.8300000000000058      44.045000000000009      49.790000000000006
    36   1      3.8300000000000058      45.960000000000008      47.875000000000007
    37   1      1.9150000000000063      44.045000000000009       51.70500000000002
    38   1      1.9150000000000063      45.960000000000008      53.620000000000005
    39   1      3.8300000000000058      44.045000000000009      53.620000000000005
    40   1      3.8300000000000058      45.960000000000008       51.70500000000002
    41   1      3.8300000000000058      44.045000000000009       57.45000000000001
    42   1      3.8300000000000058      45.960000000000008      55.535000000000011
    43   1      3.8300000000000058      47.875000000000007      38.300000000000004
    44   1      1.9150000000000063      49.790000000000006       42.13000000000001
    45   1      3.8300000000000058      47.875000000000007       42.13000000000001
    46   1      3.8300000000000058      49.790000000000006      40.215000000000011
    47   1      1.9150000000000063      47.875000000000007      44.045000000000009
    48   1      1.9150000000000063      49.790000000000006      45.960000000000008
    49   1      3.8300000000000058      47.875000000000007      45.960000000000008
    50   1      3.8300000000000058      49.790000000000006      44.045000000000009
    51   1      1.9150000000000063      47.875000000000007      47.875000000000007
    52   1      1.9150000000000063      49.790000000000006      49.790000000000006
    53   1      3.8300000000000058      47.875000000000007      49.790000000000006
    54   1      3.8300000000000058      49.790000000000006      47.875000000000007
    55   1      1.9150000000000063      47.875000000000007       51.70500000000002
    56   1      1.9150000000000063      49.790000000000006      53.620000000000005
    57   1      3.8300000000000058      47.875000000000007      53.620000000000005
    58   1      3.8300000000000058      49.790000000000006       51.70500000000002
    59   1      3.8300000000000058      47.875000000000007       57.45000000000001
    60   1      3.8300000000000058      49.790000000000006      55.535000000000011
    61   1      3.8300000000000058       51.70500000000002      38.300000000000004
    62   1      1.9150000000000063      53.620000000000005       42.13000000000001
    63   1      3.8300000000000058       51.70500000000002       42.13000000000001
    64   1      3.8300000000000058      53.620000000000005      40.215000000000011
    65   1      1.9150000000000063       51.70500000000002      44.045000000000009
    66   1      1.9150000000000063      53.620000000000005      45.960000000000008
    67   1      3.8300000000000058       51.70500000000002      45.960000000000008
    68   1      3.8300000000000058      53.620000000000005      44.045000000000009
    69   1      1.9150000000000063       51.70500000000002      47.875000000000007
    70   1      1.9150000000000063      53.620000000000005      49.790000000000006
    71   1      3.8300000000000058       51.70500000000002      49.790000000000006
    72   1      3.8300000000000058      53.620000000000005      47.875000000000007
    73   1      1.9150000000000063       51.70500000000002       51.70500000000002
    74   1      1.9150000000000063      53.620000000000005      53.620000000000005
    75   1      3.8300000000000058       51.70500000000002      53.620000000000005
    76   1      3.8300000000000058      53.620000000000005       51.70500000000002
    77   1      3.8300000000000058       51.70500000000002       57.45000000000001
    78   1      3.8300000000000058      53.620000000000005      55.535000000000011
    79   1      3.8300000000000058      55.535000000000011      38.300000000000004
    80   1      3.8300000000000058      55.535000000000011       42.13000000000001
    81   1      3.8300000000000058       57.45000000000001      40.215000000000011
    82   1      3.8300000000000058      55.535000000000011      45.960000000000008
    83   1      3.8300000000000058       57.45000000000001      44.045000000000009
    84   1      3.8300000000000058      55.535000000000011      49.790000000000006
    85   1      3.8300000000000058       57.45000000000001      47.875000000000007
    86   1      3.8300000000000058      55.535000000000011      53.620000000000005
    87   1      3.8300000000000058       57.45000000000001       51.70500000000002
    88   1      3.8300000000000058      55.535000000000011       57.45000000000001
    89   1      3.8300000000000058       57.45000000000001      55.535000000000011
    90   1      7.6600000000000028      30.640000000000008      32.555000000000007
    91   1      7.6600000000000028      30.640000000000008      36.385000000000005
    92   1      7.6600000000000028      30.640000000000008      40.215000000000011
    93   1      7.6600000000000028      30.640000000000008      44.045000000000009
    94   1      7.6600000000000028      30.640000000000008      47.875000000000007
    95   1      7.6600000000000028      30.640000000000008       51.70500000000002
    96   1      7.6600000000000028      30.640000000000008      55.535000000000011
    97   1      7.6600000000000028      30.640000000000008      59.365000000000016
    98   1      7.6600000000000028      30.640000000000008      63.195000000000007
    99   1      7.6600000000000028      32.555000000000007      30.640000000000008
   100   1      5.7450000000000117      34.470000000000006      34.470000000000006
   101   1      7.6600000000000028      32.555000000000007      34.470000000000006
   102   1      7.6600000000000028      34.470000000000006      32.555000000000007
   103   1      5.7450000000000117      34.470000000000006      38.300000000000004
   104   1      7.6600000000000028      32.555000000000007      38.300000000000004
   105   1      7.6600000000000028      34.470000000000006      36.385000000000005
   106   1      5.7450000000000117      34.470000000000006       42.13000000000001
   107   1      7.6600000000000028      32.555000000000007       42.13000000000001
   108   1      7.6600000000000028      34.470000000000006      40.215000000000011
   109   1      5.7450000000000117      34.470000000000006      45.960000000000008
   110   1      7.6600000000000028      32.555000000000007      45.960000000000008
   111   1      7.6600000000000028      34.470000000000006      44.045000000000009
   112   1      5.7450000000000117      34.470000000000006      49.790000000000006
   113   1      7.6600000000000028      32.555000000000007      49.790000000000006
   114   1      7.6600000000000028      34.470000000000006      47.875000000000007
   115   1      5.7450000000000117      34.470000000000006      53.620000000000005
   116   1      7.6600000000000028      32.555000000000007      53.620000000000005
   117   1      7.6600000000000028      34.470000000000006       51.70500000000002
   118   1      5.7450000000000117      34.470000000000006       57.45000000000001
   119   1      7.6600000000000028      32.555000000000007       57.45000000000001
   120   1      7.6600000000000028      34.470000000000006      55.535000000000011
   121   1      5.7450000000000117      34.470000000000006      61.280000000000001
   122   1      7.6600000000000028      32.555000000000007      61.280000000000001
   123   1      7.6600000000000028      34.470000000000006      59.365000000000016
   124   1      7.6600000000000028      32.555000000000007      65.110000000000014
   125   1      7.6600000000000028      34.470000000000006      63.195000000000007
   126   1      7.6600000000000028      36.385000000000005      30.640000000000008
   127   1      5.7450000000000117      38.300000000000004      34.470000000000006
   128   1      7.6600000000000028      36.385000000000005      34.470000000000006
   129   1      7.6600000000000028      38.300000000000004      32.555000000000007
   130   1      5.7450000000000117      36.385000000000005      36.385000000000005
   131   1      5.7450000000000117      38.300000000000004      38.300000000000004
   132   1      7.6600000000000028      36.385000000000005      38.300000000000004
   133   1      7.6600000000000028      38.300000000000004      36.385000000000005
   134   1      5.7450000000000117      36.385000000000005      40.215000000000011
   135   1      5.7450000000000117      38.300000000000004       42.13000000000001
   136   1      7.6600000000000028      36.385000000000005       42.13000000000001
   137   1      7.6600000000000028      38.300000000000004      40.215000000000011
   138   1      5.7450000000000117      36.385000000000005      44.045000000000009
   139   1      5.7450000000000117      38.300000000000004      45.960000000000008
   140   1      7.6600000000000028      36.385000000000005      45.960000000000008
   141   1      7.6600000000000028      38.300000000000004      44.045000000000009
   142   1      5.7450000000000117      36.385000000000005      47.875000000000007
   143   1      5.7450000000000117      38.300000000000004      49.790000000000006
   144   1      7.6600000000000028      36.385000000000005      49.790000000000006
   145   1      7.6600000000000028      38.300000000000004      47.875000000000007
   146   1      5.7450000000000117      36.385000000000005       51.70500000000002
   147   1      5.7450000000000117      38.300000000000004      53.620000000000005
   148   1      7.6600000000000028      36.385000000000005      53.620000000000005
   149   1      7.6600000000000028      38.300000000000004       51.70500000000002
   150   1      5.7450000000000117      36.385000000000005      55.535000000000011
   151   1      5.7450000000000117      38.300000000000004       57.45000000000001
   152   1      7.6600000000000028      36.385000000000005       57.45000000000001
   153   1      7.6600000000000028      38.300000000000004      55.535000000000011
   154   1      5.7450000000000117      36.385000000000005      59.365000000000016
   155   1      5.7450000000000117      38.300000000000004      61.280000000000001
   156   1      7.6600000000000028      36.385000000000005      61.280000000000001
   157   1      7.6600000000000028      38.300000000000004      59.365000000000016
   158   1      7.6600000000000028      36.385000000000005      65.110000000000014
   159   1      7.6600000000000028      38.300000000000004      63.195000000000007
   160   1      7.6600000000000028      40.215000000000011      30.640000000000008
   161   1      5.7450000000000117       42.13000000000001      34.470000000000006
   162   1      7.6600000000000028      40.215000000000011      34.470000000000006
   163   1      7.6600000000000028       42.13000000000001      32.555000000000007
   164   1      5.7450000000000117      40.215000000000011      36.385000000000005
   165   1      5.7450000000000117       42.13000000000001      38.300000000000004
   166   1      7.6600000000000028      40.215000000000011      38.300000000000004
   167   1      7.6600000000000028       42.13000000000001      36.385000000000005
   168   1      5.7450000000000117      40.215000000000011      40.215000000000011
   169   1      5.7450000000000117       42.13000000000001       42.13000000000001
   170   1      7.6600000000000028      40.215000000000011       42.13000000000001
   171   1      7.6600000000000028       42.13000000000001      40.215000000000011
   172   1      5.7450000000000117      40.215000000000011      44.045000000000009
   173   1      5.7450000000000117       42.13000000000001      45.960000000000008
   174   1      7.6600000000000028      40.215000000000011      45.960000000000008
   175   1      7.6600000000000028       42.13000000000001      44.045000000000009
   176   1      5.7450000000000117      40.215000000000011      47.875000000000007
   177   1      5.7450000000000117       42.13000000000001      49.790000000000006
   178   1      7.6600000000000028      40.215000000000011      49.790000000000006
   179   1      7.6600000000000028       42.13000000000001      47.875000000000007
   180   1      5.7450000000000117      40.215000000000011       51.70500000000002
   181   1      5.7450000000000117       42.13000000000001      53.620000000000005
   182   1      7.6600000000000028      40.215000000000011      53.620000000000005
   183   1      7.6600000000000028       42.13000000000001       51.70500000000002
   184   1      5.7450000000000117      40.215000000000011      55.535000000000011
   185   1      5.7450000000000117       42.13000000000001       57.45000000000001
   186   1      7.6600000000000028      40.215000000000011       57.45000000000001
   187   1      7.6600000000000028       42.13000000000001      55.535000000000011
   188   1      5.7450000000000117      40.215000000000011      59.365000000000016
   189   1      5.7450000000000117       42.13000000000001      61.280000000000001
   190   1      7.6600000000000028      40.215000000000011      61.280000000000001
   191   1      7.6600000000000028       42.13000000000001      59.365000000000016
   192   1      7.6600000000000028      40.215000000000011      65.110000000000014
   193   1      7.6600000000000028       42.13000000000001      63.195000000000007
   194   1      7.6600000000000028      44.045000000000009      30.640000000000008
   195   1      5.7450000000000117      45.960000000000008      34.470000000000006
   196   1      7.6600000000000028      44.045000000000009      34.470000000000006
   197   1      7.6600000000000028      45.960000000000008      32.555000000000007
   198   1      5.7450000000000117      44.045000000000009      36.385000000000005
   199   1      5.7450000000000117      45.960000000000008      38.300000000000004
   200   1      7.6600000000000028      44.045000000000009      38.300000000000004
   201   1      7.6600000000000028      45.960000000000008      36.385000000000005
   202   1      5.7450000000000117      44.045000000000009      40.215000000000011
   203   1      5.7450000000000117      45.960000000000008       42.13000000000001
   204   1      7.6600000000000028      44.045000000000009       42.13000000000001
   205   1      7.6600000000000028      45.960000000000008      40.215000000000011
   206   1      5.7450000000000117      44.045000000000009      44.045000000000009
   207   1      5.7450000000000117      45.960000000000008      45.960000000000008
   208   1      7.6600000000000028      44.045000000000009      45.960000000000008
   209   1      7.6600000000000028      45.960000000000008      44.045000000000009
   210   1      5.7450000000000117      44.045000000000009      47.875000000000007
   211   1      5.7450000000000117      45.960000000000008      49.790000000000006
   212   1      7.6600000000000028      44.045000000000009      49.790000000000006
   213   1      7.6600000000000028      45.960000000000008      47.875000000000007
   214   1      5.7450000000000117      44.045000000000009       51.70500000000002
   215   1      5.7450000000000117      45.960000000000008      53.620000000000005
   216   1      7.6600000000000028      44.045000000000009      53.620000000000005
   217   1      7.6600000000000028      45.960000000000008       51.70500000000002
   218   1      5.7450000000000117      44.045000000000009      55.535000000000011
   219   1      5.7450000000000117      45.960000000000008       57.45000000000001
   220   1      7.6600000000000028      44.045000000000009       57.45000000000001
   221   1      7.6600000000000028      45.960000000000008      55.535000000000011
   222   1      5.7450000000000117      44.045000000000009      59.365000000000016
   223   1      5.7450000000000117      45.960000000000008      61.280000000000001
   224   1      7.6600000000000028      44.045000000000009      61.280000000000001
   225   1      7.6600000000000028      45.960000000000008      59.365000000000016
   226   1      7.6600000000000028      44.045000000000009      65.110000000000014
   227   1      7.6600000000000028      45.960000000000008      63.195000000000007
   228   1      7.6600000000000028      47.875000000000007      30.640000000000008
   229   1      5.7450000000000117      49.790000000000006      34.470000000000006
   230   1      7.6600000000000028      47.875000000000007      34.470000000000006
   231   1      7.6600000000000028      49.790000000000006      32.555000000000007
   232   1      5.7450000000000117      47.875000000000007      36.385000000000005
   233   1      5.7450000000000117      49.790000000000006      38.300000000000004
   234   1      7.6600000000000028      47.875000000000007      38.300000000000004
   235   1      7.6600000000000028      49.790000000000006      36.385000000000005
   236   1      5.7450000000000117      47.875000000000007      40.215000000000011
   237   1      5.7450000000000117      49.790000000000006       42.13000000000001
   238   1      7.6600000000000028      47.875000000000007       42.13000000000001
   239   1      7.6600000000000028      49.790000000000006      40.215000000000011
   240   1      5.7450000000000117      47.875000000000007      44.045000000000009
   241   1      5.7450000000000117      49.790000000000006      45.960000000000008
   242   1      7.6600000000000028      47.875000000000007      45.960000000000008
   243   1      7.6600000000000028      49.790000000000006      44.045000000000009
   244   1      5.7450000000000117      47.875000000000007      47.875000000000007
   245   1      5.7450000000000117      49.790000000000006      49.790000000000006
   246   1      7.6600000000000028      47.875000000000007      49.790000000000006
   247   1      7.6600000000000028      49.790000000000006      47.875000000000007
   248   1      5.7450000000000117      47.875000000000007       51.70500000000002
   249   1      5.7450000000000117      49.790000000000006      53.620000000000005
   250   1      7.6600000000000028      47.875000000000007      53.620000000000005
   251   1      7.6600000000000028      49.790000000000006       51.70500000000002
   252   1      5.7450000000000117      47.875000000000007      55.535000000000011
   253   1      5.7450000000000117      49.790000000000006       57.45000000000001
   254   1      7.6600000000000028      47.875000000000007       57.45000000000001
   255   1      7.6600000000000028      49.790000000000006      55.535000000000011
   256   1      5.7450000000000117      47.875000000000007      59.365000000000016
   257   1      5.7450000000000117      49.790000000000006      61.280000000000001
   258   1      7.6600000000000028      47.875000000000007      61.280000000000001
   259   1      7.6600000000000028      49.790000000000006      59.365000000000016
   260   1      7.6600000000000028      47.875000000000007      65.110000000000014
   261   1      7.6600000000000028      49.790000000000006      63.195000000000007
   262   1      7.6600000000000028       51.70500000000002      30.640000000000008
   263   1      5.7450000000000117      53.620000000000005      34.470000000000006
   264   1      7.6600000000000028       51.70500000000002      34.470000000000006
   265   1      7.6600000000000028      53.620000000000005      32.555000000000007
   266   1      5.7450000000000117       51.70500000000002      36.385000000000005
   267   1      5.7450000000000117      53.620000000000005      38.300000000000004
   268   1      7.6600000000000028       51.70500000000002      38.300000000000004
   269   1      7.6600000000000028      53.620000000000005      36.385000000000005
   270   1      5.7450000000000117       51.70500000000002      40.215000000000011
   271   1      5.7450000000000117      53.620000000000005       42.13000000000001
   272   1      7.6600000000000028       51.70500000000002       42.13000000000001
   273   1      7.6600000000000028      53.620000000000005      40.215000000000011
   274   1      5.7450000000000117       51.70500000000002      44.045000000000009
   275   1      5.7450000000000117      53.620000000000005      45.960000000000008
   276   1      7.6600000000000028       51.70500000000002      45.960000000000008
   277   1      7.6600000000000028      53.620000000000005      44.045000000000009
   278   1      5.7450000000000117       51.70500000000002      47.875000000000007
   279   1      5.7450000000000117      53.620000000000005      49.790000000000006
   280   1      7.6600000000000028       51.70500000000002      49.790000000000006
   281   1      7.6600000000000028      53.620000000000005      47.875000000000007
   282   1      5.7450000000000117       51.70500000000002       51.70500000000002
   283   1      5.7450000000000117      53.620000000000005      53.620000000000005
   284   1      7.6600000000000028       51.70500000000002      53.620000000000005
   285   1      7.6600000000000028      53.620000000000005       51.70500000000002
   286   1      5.7450000000000117       51.70500000000002      55.535000000000011
   287   1      5.7450000000000117      53.620000000000005       57.45000000000001
   288   1      7.6600000000000028       51.70500000000002       57.45000000000001
   289   1      7.6600000000000028      53.620000000000005      55.535000000000011
   290   1      5.7450000000000117       51.70500000000002      59.365000000000016
   291   1      5.7450000000000117      53.620000000000005      61.280000000000001
   292   1      7.6600000000000028       51.70500000000002      61.280000000000001
   293   1      7.6600000000000028      53.620000000000005      59.365000000000016
   294   1      7.6600000000000028       51.70500000000002      65.110000000000014
   295   1      7.6600000000000028      53.620000000000005      63.195000000000007
   296   1      7.6600000000000028      55.535000000000011      30.640000000000008
   297   1      5.7450000000000117       57.45000000000001      34.470000000000006
   298   1      7.6600000000000028      55.535000000000011      34.470000000000006
   299   1      7.6600000000000028       57.45000000000001      32.555000000000007
   300   1      5.7450000000000117      55.535000000000011      36.385000000000005
   301   1      5.7450000000000117       57.45000000000001      38.300000000000004
   302   1      7.6600000000000028      55.535000000000011      38.300000000000004
   303   1      7.6600000000000028       57.45000000000001      36.385000000000005
   304   1      5.7450000000000117      55.535000000000011      40.215000000000011
   305   1      5.7450000000000117       57.45000000000001       42.13000000000001
   306   1      7.6600000000000028      55.535000000000011       42.13000000000001
   307   1      7.6600000000000028       57.45000000000001      40.215000000000011
   308   1      5.7450000000000117      55.535000000000011      44.045000000000009
   309   1      5.7450000000000117       57.45000000000001      45.960000000000008
   310   1      7.6600000000000028      55.535000000000011      45.960000000000008
   311   1      7.6600000000000028       57.45000000000001      44.045000000000009
   312   1      5.7450000000000117      55.535000000000011      47.875000000000007
   313   1      5.7450000000000117       57.45000000000001      49.790000000000006
   314   1      7.6600000000000028      55.535000000000011      49.790000000000006
   315   1      7.6600000000000028       57.45000000000001      47.875000000000007
   316   1      5.7450000000000117      55.535000000000011       51.70500000000002
   317   1      5.7450000000000117       57.45000000000001      53.620000000000005
   318   1      7.6600000000000028      55.535000000000011      53.620000000000005
   319   1      7.6600000000000028       57.45000000000001       51.70500000000002
   320   1      5.7450000000000117      55.535000000000011      55.535000000000011
   321   1      5.7450000000000117       57.45000000000001       57.45000000000001
   322   1      7.6600000000000028      55.535000000000011       57.45000000000001
   323   1      7.6600000000000028       57.45000000000001      55.535000000000011
   324   1      5.7450000000000117      55.535000000000011      59.365000000000016
   325   1      5.7450000000000117       57.45000000000001      61.280000000000001
   326   1      7.6600000000000028      55.535000000000011      61.280000000000001
   327   1      7.6600000000000028       57.45000000000001      59.365000000000016
   328   1      7.6600000000000028      55.535000000000011      65.110000000000014
   329   1      7.6600000000000028       57.45000000000001      63.195000000000007
   330   1      7.6600000000000028      59.365000000000016      30.640000000000008
   331   1      5.7450000000000117      61.280000000000001      34.470000000000006
   332   1      7.6600000000000028      59.365000000000016      34.470000000000006
   333   1      7.6600000000000028      61.280000000000001      32.555000000000007
   334   1      5.7450000000000117      59.365000000000016      36.385000000000005
   335   1      5.7450000000000117      61.280000000000001      38.300000000000004
   336   1      7.6600000000000028      59.365000000000016      38.300000000000004
   337   1      7.6600000000000028      61.280000000000001      36.385000000000005
   338   1      5.7450000000000117      59.365000000000016      40.215000000000011
   339   1      5.7450000000000117      61.280000000000001       42.13000000000001
   340   1      7.6600000000000028      59.365000000000016       42.13000000000001
   341   1      7.6600000000000028      61.280000000000001      40.215000000000011
   342   1      5.7450000000000117      59.365000000000016      44.045000000000009
   343   1      5.7450000000000117      61.280000000000001      45.960000000000008
   344   1      7.6600000000000028      59.365000000000016      45.960000000000008
   345   1      7.6600000000000028      61.280000000000001      44.045000000000009
   346   1      5.7450000000000117      59.365000000000016      47.875000000000007
   347   1      5.7450000000000117      61.280000000000001      49.790000000000006
   348   1      7.6600000000000028      59.365000000000016      49.790000000000006
   349   1      7.6600000000000028      61.280000000000001      47.875000000000007
   350   1      5.7450000000000117      59.365000000000016       51.70500000000002
   351   1      5.7450000000000117      61.280000000000001      53.620000000000005
   352   1      7.6600000000000028      59.365000000000016      53.620000000000005
   353   1      7.6600000000000028      61.280000000000001       51.70500000000002
   354   1      5.7450000000000117      59.365000000000016      55.535000000000011
   355   1      5.7450000000000117      61.280000000000001       57.45000000000001
   356   1      7.6600000000000028      59.365000000000016       57.45000000000001
   357   1      7.6600000000000028      61.280000000000001      55.535000000000011
   358   1      5.7450000000000117      59.365000000000016      59.365000000000016