model_files/Ag/Ag_30000/Ag_540/data.Ag_540_fcc_29765 (written by ASE) 

29765 	 atoms 
1  atom types
0.0                     114  xlo xhi
0.0                     114  ylo yhi
0.0                     114  zlo zhi


Atoms 

     1   1  1.4210854715202004e-14      55.215000000000011      55.215000000000011
     2   1      2.0450000000000088      53.170000000000009      55.215000000000011
     3   1      2.0450000000000088      55.215000000000011      53.170000000000009
     4   1  1.4210854715202004e-14      55.215000000000011      59.305000000000007
     5   1      2.0450000000000088      53.170000000000009      59.305000000000007
     6   1      2.0450000000000088      55.215000000000011      57.260000000000005
     7   1      2.0450000000000088      55.215000000000011      61.350000000000009
     8   1  1.4210854715202004e-14      59.305000000000007      55.215000000000011
     9   1      2.0450000000000088      57.260000000000005      55.215000000000011
    10   1      2.0450000000000088      59.305000000000007      53.170000000000009
    11   1  1.4210854715202004e-14      57.260000000000005      57.260000000000005
    12   1  1.4210854715202004e-14      59.305000000000007      59.305000000000007
    13   1      2.0450000000000088      57.260000000000005      59.305000000000007
    14   1      2.0450000000000088      59.305000000000007      57.260000000000005
    15   1      2.0450000000000088      59.305000000000007      61.350000000000009
    16   1      2.0450000000000088      61.350000000000009      55.215000000000011
    17   1      2.0450000000000088      61.350000000000009      59.305000000000007
    18   1      4.0900000000000105      51.125000000000007      51.125000000000007
    19   1      6.1350000000000122      49.080000000000005      51.125000000000007
    20   1      6.1350000000000122      51.125000000000007      49.080000000000005
    21   1      4.0900000000000105      51.125000000000007      55.215000000000011
    22   1      6.1350000000000122      49.080000000000005      55.215000000000011
    23   1      6.1350000000000122      51.125000000000007      53.170000000000009
    24   1      4.0900000000000105      51.125000000000007      59.305000000000007
    25   1      6.1350000000000122      49.080000000000005      59.305000000000007
    26   1      6.1350000000000122      51.125000000000007      57.260000000000005
    27   1      4.0900000000000105      51.125000000000007       63.39500000000001
    28   1      6.1350000000000122      49.080000000000005       63.39500000000001
    29   1      6.1350000000000122      51.125000000000007      61.350000000000009
    30   1      6.1350000000000122      51.125000000000007      65.440000000000012
    31   1      4.0900000000000105      55.215000000000011      51.125000000000007
    32   1      6.1350000000000122      53.170000000000009      51.125000000000007
    33   1      6.1350000000000122      55.215000000000011      49.080000000000005
    34   1      4.0900000000000105      53.170000000000009      53.170000000000009
    35   1      4.0900000000000105      55.215000000000011      55.215000000000011
    36   1      6.1350000000000122      53.170000000000009      55.215000000000011
    37   1      6.1350000000000122      55.215000000000011      53.170000000000009
    38   1      4.0900000000000105      53.170000000000009      57.260000000000005
    39   1      4.0900000000000105      55.215000000000011      59.305000000000007
    40   1      6.1350000000000122      53.170000000000009      59.305000000000007
    41   1      6.1350000000000122      55.215000000000011      57.260000000000005
    42   1      4.0900000000000105      53.170000000000009      61.350000000000009
    43   1      4.0900000000000105      55.215000000000011       63.39500000000001
    44   1      6.1350000000000122      53.170000000000009       63.39500000000001
    45   1      6.1350000000000122      55.215000000000011      61.350000000000009
    46   1      6.1350000000000122      55.215000000000011      65.440000000000012
    47   1      4.0900000000000105      59.305000000000007      51.125000000000007
    48   1      6.1350000000000122      57.260000000000005      51.125000000000007
    49   1      6.1350000000000122      59.305000000000007      49.080000000000005
    50   1      4.0900000000000105      57.260000000000005      53.170000000000009
    51   1      4.0900000000000105      59.305000000000007      55.215000000000011
    52   1      6.1350000000000122      57.260000000000005      55.215000000000011
    53   1      6.1350000000000122      59.305000000000007      53.170000000000009
    54   1      4.0900000000000105      57.260000000000005      57.260000000000005
    55   1      4.0900000000000105      59.305000000000007      59.305000000000007
    56   1      6.1350000000000122      57.260000000000005      59.305000000000007
    57   1      6.1350000000000122      59.305000000000007      57.260000000000005
    58   1      4.0900000000000105      57.260000000000005      61.350000000000009
    59   1      4.0900000000000105      59.305000000000007       63.39500000000001
    60   1      6.1350000000000122      57.260000000000005       63.39500000000001
    61   1      6.1350000000000122      59.305000000000007      61.350000000000009
    62   1      6.1350000000000122      59.305000000000007      65.440000000000012
    63   1      4.0900000000000105       63.39500000000001      51.125000000000007
    64   1      6.1350000000000122      61.350000000000009      51.125000000000007
    65   1      6.1350000000000122       63.39500000000001      49.080000000000005
    66   1      4.0900000000000105      61.350000000000009      53.170000000000009
    67   1      4.0900000000000105       63.39500000000001      55.215000000000011
    68   1      6.1350000000000122      61.350000000000009      55.215000000000011
    69   1      6.1350000000000122       63.39500000000001      53.170000000000009
    70   1      4.0900000000000105      61.350000000000009      57.260000000000005
    71   1      4.0900000000000105       63.39500000000001      59.305000000000007
    72   1      6.1350000000000122      61.350000000000009      59.305000000000007
    73   1      6.1350000000000122       63.39500000000001      57.260000000000005
    74   1      4.0900000000000105      61.350000000000009      61.350000000000009
    75   1      4.0900000000000105       63.39500000000001       63.39500000000001
    76   1      6.1350000000000122      61.350000000000009       63.39500000000001
    77   1      6.1350000000000122       63.39500000000001      61.350000000000009
    78   1      6.1350000000000122       63.39500000000001      65.440000000000012
    79   1      6.1350000000000122      65.440000000000012      51.125000000000007
    80   1      6.1350000000000122      65.440000000000012      55.215000000000011
    81   1      6.1350000000000122      65.440000000000012      59.305000000000007
    82   1      6.1350000000000122      65.440000000000012       63.39500000000001
    83   1      10.225000000000009                  42.945      44.990000000000002
    84   1      10.225000000000009                  42.945      49.080000000000005
    85   1      10.225000000000009                  42.945      53.170000000000009
    86   1      10.225000000000009                  42.945      57.260000000000005
    87   1      10.225000000000009                  42.945      61.350000000000009
    88   1      10.225000000000009                  42.945      65.440000000000012
    89   1      10.225000000000009                  42.945      69.530000000000015
    90   1      10.225000000000009      44.990000000000002                  42.945
    91   1      8.1800000000000068      44.990000000000002      44.990000000000002
    92   1      8.1800000000000068      47.035000000000004      47.035000000000004
    93   1      10.225000000000009      44.990000000000002      47.035000000000004
    94   1      10.225000000000009      47.035000000000004      44.990000000000002
    95   1      8.1800000000000068      44.990000000000002      49.080000000000005
    96   1      8.1800000000000068      47.035000000000004      51.125000000000007
    97   1      10.225000000000009      44.990000000000002      51.125000000000007
    98   1      10.225000000000009      47.035000000000004      49.080000000000005
    99   1      8.1800000000000068      44.990000000000002      53.170000000000009
   100   1      8.1800000000000068      47.035000000000004      55.215000000000011
   101   1      10.225000000000009      44.990000000000002      55.215000000000011
   102   1      10.225000000000009      47.035000000000004      53.170000000000009
   103   1      8.1800000000000068      44.990000000000002      57.260000000000005
   104   1      8.1800000000000068      47.035000000000004      59.305000000000007
   105   1      10.225000000000009      44.990000000000002      59.305000000000007
   106   1      10.225000000000009      47.035000000000004      57.260000000000005
   107   1      8.1800000000000068      44.990000000000002      61.350000000000009
   108   1      8.1800000000000068      47.035000000000004       63.39500000000001
   109   1      10.225000000000009      44.990000000000002       63.39500000000001
   110   1      10.225000000000009      47.035000000000004      61.350000000000009
   111   1      8.1800000000000068      44.990000000000002      65.440000000000012
   112   1      8.1800000000000068      47.035000000000004      67.485000000000014
   113   1      10.225000000000009      44.990000000000002      67.485000000000014
   114   1      10.225000000000009      47.035000000000004      65.440000000000012
   115   1      8.1800000000000068      44.990000000000002      69.530000000000015
   116   1      10.225000000000009      44.990000000000002      71.575000000000017
   117   1      10.225000000000009      47.035000000000004      69.530000000000015
   118   1      10.225000000000009      49.080000000000005                  42.945
   119   1      8.1800000000000068      49.080000000000005      44.990000000000002
   120   1      8.1800000000000068      51.125000000000007      47.035000000000004
   121   1      10.225000000000009      49.080000000000005      47.035000000000004
   122   1      10.225000000000009      51.125000000000007      44.990000000000002
   123   1      8.1800000000000068      49.080000000000005      49.080000000000005
   124   1      8.1800000000000068      51.125000000000007      51.125000000000007
   125   1      10.225000000000009      49.080000000000005      51.125000000000007
   126   1      10.225000000000009      51.125000000000007      49.080000000000005
   127   1      8.1800000000000068      49.080000000000005      53.170000000000009
   128   1      8.1800000000000068      51.125000000000007      55.215000000000011
   129   1      10.225000000000009      49.080000000000005      55.215000000000011
   130   1      10.225000000000009      51.125000000000007      53.170000000000009
   131   1      8.1800000000000068      49.080000000000005      57.260000000000005
   132   1      8.1800000000000068      51.125000000000007      59.305000000000007
   133   1      10.225000000000009      49.080000000000005      59.305000000000007
   134   1      10.225000000000009      51.125000000000007      57.260000000000005
   135   1      8.1800000000000068      49.080000000000005      61.350000000000009
   136   1      8.1800000000000068      51.125000000000007       63.39500000000001
   137   1      10.225000000000009      49.080000000000005       63.39500000000001
   138   1      10.225000000000009      51.125000000000007      61.350000000000009
   139   1      8.1800000000000068      49.080000000000005      65.440000000000012
   140   1      8.1800000000000068      51.125000000000007      67.485000000000014
   141   1      10.225000000000009      49.080000000000005      67.485000000000014
   142   1      10.225000000000009      51.125000000000007      65.440000000000012
   143   1      8.1800000000000068      49.080000000000005      69.530000000000015
   144   1      10.225000000000009      49.080000000000005      71.575000000000017
   145   1      10.225000000000009      51.125000000000007      69.530000000000015
   146   1      10.225000000000009      53.170000000000009                  42.945
   147   1      8.1800000000000068      53.170000000000009      44.990000000000002
   148   1      8.1800000000000068      55.215000000000011      47.035000000000004
   149   1      10.225000000000009      53.170000000000009      47.035000000000004
   150   1      10.225000000000009      55.215000000000011      44.990000000000002
   151   1      8.1800000000000068      53.170000000000009      49.080000000000005
   152   1      8.1800000000000068      55.215000000000011      51.125000000000007
   153   1      10.225000000000009      53.170000000000009      51.125000000000007
   154   1      10.225000000000009      55.215000000000011      49.080000000000005
   155   1      8.1800000000000068      53.170000000000009      53.170000000000009
   156   1      8.1800000000000068      55.215000000000011      55.215000000000011
   157   1      10.225000000000009      53.170000000000009      55.215000000000011
   158   1      10.225000000000009      55.215000000000011      53.170000000000009
   159   1      8.1800000000000068      53.170000000000009      57.260000000000005
   160   1      8.1800000000000068      55.215000000000011      59.305000000000007
   161   1      10.225000000000009      53.170000000000009      59.305000000000007
   162   1      10.225000000000009      55.215000000000011      57.260000000000005
   163   1      8.1800000000000068      53.170000000000009      61.350000000000009
   164   1      8.1800000000000068      55.215000000000011       63.39500000000001
   165   1      10.225000000000009      53.170000000000009       63.39500000000001
   166   1      10.225000000000009      55.215000000000011      61.350000000000009
   167   1      8.1800000000000068      53.170000000000009      65.440000000000012
   168   1      8.1800000000000068      55.215000000000011      67.485000000000014
   169   1      10.225000000000009      53.170000000000009      67.485000000000014
   170   1      10.225000000000009      55.215000000000011      65.440000000000012
   171   1      8.1800000000000068      53.170000000000009      69.530000000000015
   172   1      10.225000000000009      53.170000000000009      71.575000000000017
   173   1      10.225000000000009      55.215000000000011      69.530000000000015
   174   1      10.225000000000009      57.260000000000005                  42.945
   175   1      8.1800000000000068      57.260000000000005      44.990000000000002
   176   1      8.1800000000000068      59.305000000000007      47.035000000000004
   177   1      10.225000000000009      57.260000000000005      47.035000000000004
   178   1      10.225000000000009      59.305000000000007      44.990000000000002
   179   1      8.1800000000000068      57.260000000000005      49.080000000000005
   180   1      8.1800000000000068      59.305000000000007      51.125000000000007
   181   1      10.225000000000009      57.260000000000005      51.125000000000007
   182   1      10.225000000000009      59.305000000000007      49.080000000000005
   183   1      8.1800000000000068      57.260000000000005      53.170000000000009
   184   1      8.1800000000000068      59.305000000000007      55.215000000000011
   185   1      10.225000000000009      57.260000000000005      55.215000000000011
   186   1      10.225000000000009      59.305000000000007      53.170000000000009
   187   1      8.1800000000000068      57.260000000000005      57.260000000000005
   188   1      8.1800000000000068      59.305000000000007      59.305000000000007
   189   1      10.225000000000009      57.260000000000005      59.305000000000007
   190   1      10.225000000000009      59.305000000000007      57.260000000000005
   191   1      8.1800000000000068      57.260000000000005      61.350000000000009
   192   1      8.1800000000000068      59.305000000000007       63.39500000000001
   193   1      10.225000000000009      57.260000000000005       63.39500000000001
   194   1      10.225000000000009      59.305000000000007      61.350000000000009
   195   1      8.1800000000000068      57.260000000000005      65.440000000000012
   196   1      8.1800000000000068      59.305000000000007      67.485000000000014
   197   1      10.225000000000009      57.260000000000005      67.485000000000014
   198   1      10.225000000000009      59.305000000000007      65.440000000000012
   199   1      8.1800000000000068      57.260000000000005      69.530000000000015
   200   1      10.225000000000009      57.260000000000005      71.575000000000017
   201   1      10.225000000000009      59.305000000000007      69.530000000000015
   202   1      10.225000000000009      61.350000000000009                  42.945
   203   1      8.1800000000000068      61.350000000000009      44.990000000000002
   204   1      8.1800000000000068       63.39500000000001      47.035000000000004
   205   1      10.225000000000009      61.350000000000009      47.035000000000004
   206   1      10.225000000000009       63.39500000000001      44.990000000000002
   207   1      8.1800000000000068      61.350000000000009      49.080000000000005
   208   1      8.1800000000000068       63.39500000000001      51.125000000000007
   209   1      10.225000000000009      61.350000000000009      51.125000000000007
   210   1      10.225000000000009       63.39500000000001      49.080000000000005
   211   1      8.1800000000000068      61.350000000000009      53.170000000000009
   212   1      8.1800000000000068       63.39500000000001      55.215000000000011
   213   1      10.225000000000009      61.350000000000009      55.215000000000011
   214   1      10.225000000000009       63.39500000000001      53.170000000000009
   215   1      8.1800000000000068      61.350000000000009      57.260000000000005
   216   1      8.1800000000000068       63.39500000000001      59.305000000000007
   217   1      10.225000000000009      61.350000000000009      59.305000000000007
   218   1      10.225000000000009       63.39500000000001      57.260000000000005
   219   1      8.1800000000000068      61.350000000000009      61.350000000000009
   220   1      8.1800000000000068       63.39500000000001       63.39500000000001
   221   1      10.225000000000009      61.350000000000009       63.39500000000001
   222   1      10.225000000000009       63.39500000000001      61.350000000000009
   223   1      8.1800000000000068      61.350000000000009      65.440000000000012
   224   1      8.1800000000000068       63.39500000000001      67.485000000000014
   225   1      10.225000000000009      61.350000000000009      67.485000000000014
   226   1      10.225000000000009       63.39500000000001      65.440000000000012
   227   1      8.1800000000000068      61.350000000000009      69.530000000000015
   228   1      10.225000000000009      61.350000000000009      71.575000000000017
   229   1      10.225000000000009       63.39500000000001      69.530000000000015
   230   1      10.225000000000009      65.440000000000012                  42.945
   231   1      8.1800000000000068      65.440000000000012      44.990000000000002
   232   1      8.1800000000000068      67.485000000000014      47.035000000000004
   233   1      10.225000000000009      65.440000000000012      47.035000000000004
   234   1      10.225000000000009      67.485000000000014      44.990000000000002
   235   1      8.1800000000000068      65.440000000000012      49.080000000000005
   236   1      8.1800000000000068      67.485000000000014      51.125000000000007
   237   1      10.225000000000009      65.440000000000012      51.125000000000007
   238   1      10.225000000000009      67.485000000000014      49.080000000000005
   239   1      8.1800000000000068      65.440000000000012      53.170000000000009
   240   1      8.1800000000000068      67.485000000000014      55.215000000000011
   241   1      10.225000000000009      65.440000000000012      55.215000000000011
   242   1      10.225000000000009      67.485000000000014      53.170000000000009
   243   1      8.1800000000000068      65.440000000000012      57.260000000000005
   244   1      8.1800000000000068      67.485000000000014      59.305000000000007
   245   1      10.225000000000009      65.440000000000012      59.305000000000007
   246   1      10.225000000000009      67.485000000000014      57.260000000000005
   247   1      8.1800000000000068      65.440000000000012      61.350000000000009
   248   1      8.1800000000000068      67.485000000000014       63.39500000000001
   249   1      10.225000000000009      65.440000000000012       63.39500000000001
   250   1      10.225000000000009      67.485000000000014      61.350000000000009
   251   1      8.1800000000000068      65.440000000000012      65.440000000000012
   252   1      8.1800000000000068      67.485000000000014      67.485000000000014
   253   1      10.225000000000009      65.440000000000012      67.485000000000014
   254   1      10.225000000000009      67.485000000000014      65.440000000000012
   255   1      8.1800000000000068      65.440000000000012      69.530000000000015
   256   1      10.225000000000009      65.440000000000012      71.575000000000017
   257   1      10.225000000000009      67.485000000000014      69.530000000000015
   258   1      10.225000000000009      69.530000000000015                  42.945
   259   1      8.1800000000000068      69.530000000000015      44.990000000000002
   260   1      10.225000000000009      69.530000000000015      47.035000000000004
   261   1      10.225000000000009      71.575000000000017      44.990000000000002
   262   1      8.1800000000000068      69.530000000000015      49.080000000000005
   263   1      10.225000000000009      69.530000000000015      51.125000000000007
   264   1      10.225000000000009      71.575000000000017      49.080000000000005
   265   1      8.1800000000000068      69.530000000000015      53.170000000000009
   266   1      10.225000000000009      69.530000000000015      55.215000000000011
   267   1      10.225000000000009      71.575000000000017      53.170000000000009
   268   1      8.1800000000000068      69.530000000000015      57.260000000000005
   269   1      10.225000000000009      69.530000000000015      59.305000000000007
   270   1      10.225000000000009      71.575000000000017      57.260000000000005
   271   1      8.1800000000000068      69.530000000000015      61.350000000000009
   272   1      10.225000000000009      69.530000000000015       63.39500000000001
   273   1      10.225000000000009      71.575000000000017      61.350000000000009
   274   1      8.1800000000000068      69.530000000000015      65.440000000000012
   275   1      10.225000000000009      69.530000000000015      67.485000000000014
   276   1      10.225000000000009      71.575000000000017      65.440000000000012
   277   1      8.1800000000000068      69.530000000000015      69.530000000000015
   278   1      10.225000000000009      69.530000000000015      71.575000000000017
   279   1      10.225000000000009      71.575000000000017      69.530000000000015
   280   1       14.31500000000001      38.855000000000011      40.899999999999999
   281   1       14.31500000000001      38.855000000000011      44.990000000000002
   282   1       14.31500000000001      38.855000000000011      49.080000000000005
   283   1       14.31500000000001      38.855000000000011      53.170000000000009
   284   1       14.31500000000001      38.855000000000011      57.260000000000005
   285   1       14.31500000000001      38.855000000000011      61.350000000000009
   286   1       14.31500000000001      38.855000000000011      65.440000000000012
   287   1       14.31500000000001      38.855000000000011      69.530000000000015
   288   1       14.31500000000001      38.855000000000011      73.620000000000005
   289   1       14.31500000000001      40.899999999999999      38.855000000000011
   290   1       12.27000000000001      40.899999999999999      40.899999999999999
   291   1       12.27000000000001                  42.945                  42.945
   292   1       14.31500000000001      40.899999999999999                  42.945
   293   1       14.31500000000001                  42.945      40.899999999999999
   294   1       12.27000000000001      40.899999999999999      44.990000000000002
   295   1       12.27000000000001                  42.945      47.035000000000004
   296   1       14.31500000000001      40.899999999999999      47.035000000000004
   297   1       14.31500000000001                  42.945      44.990000000000002
   298   1       12.27000000000001      40.899999999999999      49.080000000000005
   299   1       12.27000000000001                  42.945      51.125000000000007
   300   1       14.31500000000001      40.899999999999999      51.125000000000007
   301   1       14.31500000000001                  42.945      49.080000000000005
   302   1       12.27000000000001      40.899999999999999      53.170000000000009
   303   1       12.27000000000001                  42.945      55.215000000000011
   304   1       14.31500000000001      40.899999999999999      55.215000000000011
   305   1       14.31500000000001                  42.945      53.170000000000009
   306   1       12.27000000000001      40.899999999999999      57.260000000000005
   307   1       12.27000000000001                  42.945      59.305000000000007
   308   1       14.31500000000001      40.899999999999999      59.305000000000007
   309   1       14.31500000000001                  42.945      57.260000000000005
   310   1       12.27000000000001      40.899999999999999      61.350000000000009
   311   1       12.27000000000001                  42.945       63.39500000000001
   312   1       14.31500000000001      40.899999999999999       63.39500000000001
   313   1       14.31500000000001                  42.945      61.350000000000009
   314   1       12.27000000000001      40.899999999999999      65.440000000000012
   315   1       12.27000000000001                  42.945      67.485000000000014
   316   1       14.31500000000001      40.899999999999999      67.485000000000014
   317   1       14.31500000000001                  42.945      65.440000000000012
   318   1       12.27000000000001      40.899999999999999      69.530000000000015
   319   1       12.27000000000001                  42.945      71.575000000000017
   320   1       14.31500000000001      40.899999999999999      71.575000000000017
   321   1       14.31500000000001                  42.945      69.530000000000015
   322   1       12.27000000000001      40.899999999999999      73.620000000000005
   323   1       14.31500000000001      40.899999999999999      75.665000000000006
   324   1       14.31500000000001                  42.945      73.620000000000005
   325   1       14.31500000000001      44.990000000000002      38.855000000000011
   326   1       12.27000000000001      44.990000000000002      40.899999999999999
   327   1       12.27000000000001      47.035000000000004                  42.945
   328   1       14.31500000000001      44.990000000000002                  42.945
   329   1       14.31500000000001      47.035000000000004      40.899999999999999
   330   1       12.27000000000001      44.990000000000002      44.990000000000002
   331   1       12.27000000000001      47.035000000000004      47.035000000000004
   332   1       14.31500000000001      44.990000000000002      47.035000000000004
   333   1       14.31500000000001      47.035000000000004      44.990000000000002
   334   1       12.27000000000001      44.990000000000002      49.080000000000005
   335   1       12.27000000000001      47.035000000000004      51.125000000000007
   336   1       14.31500000000001      44.990000000000002      51.125000000000007
   337   1       14.31500000000001      47.035000000000004      49.080000000000005
   338   1       12.27000000000001      44.990000000000002      53.170000000000009
   339   1       12.27000000000001      47.035000000000004      55.215000000000011
   340   1       14.31500000000001      44.990000000000002      55.215000000000011
   341   1       14.31500000000001      47.035000000000004      53.170000000000009
   342   1       12.27000000000001      44.990000000000002      57.260000000000005
   343   1       12.27000000000001      47.035000000000004      59.305000000000007
   344   1       14.31500000000001      44.990000000000002      59.305000000000007
   345   1       14.31500000000001      47.035000000000004      57.260000000000005
   346   1       12.27000000000001      44.990000000000002      61.350000000000009
   347   1       12.27000000000001      47.035000000000004       63.39500000000001
   348   1       14.31500000000001      44.990000000000002       63.39500000000001
   349   1       14.31500000000001      47.035000000000004      61.350000000000009
   350   1       12.27000000000001      44.990000000000002      65.440000000000012
   351   1       12.27000000000001      47.035000000000004      67.485000000000014
   352   1       14.31500000000001      44.990000000000002      67.485000000000014
   353   1       14.31500000000001      47.035000000000004      65.440000000000012
   354   1       12.27000000000001      44.990000000000002      69.530000000000015
   355   1       12.27000000000001      47.035000000000004      71.575000000000017
   356   1       14.31500000000001      44.990000000000002      71.575000000000017
   357   1       14.31500000000001      47.035000000000004      69.530000000000015
   358   1       12.27000000000001      44.990000000000002      73.620000000000005