model_files/Fe/Fe_30000/Fe_543/data.Fe_543_bcc_30079 (written by ASE) 

30079 	 atoms 
1  atom types
0.0                      88  xlo xhi
0.0                      88  ylo yhi
0.0                      88  zlo zhi


Atoms 

     1   1                       0      43.049999999999997      44.484999999999985
     2   1                       0      44.484999999999985      43.049999999999997
     3   1                       0      44.484999999999985      45.919999999999995
     4   1                       0      45.919999999999995      44.484999999999985
     5   1      2.8699999999999979      40.179999999999993      44.484999999999985
     6   1      1.4349999999999952      43.049999999999997      43.049999999999997
     7   1      2.8699999999999979      41.614999999999995      43.049999999999997
     8   1      2.8699999999999979      43.049999999999997      41.614999999999995
     9   1      1.4349999999999952      41.614999999999995      44.484999999999985
    10   1      1.4349999999999952      43.049999999999997      45.919999999999995
    11   1      2.8699999999999979      41.614999999999995      45.919999999999995
    12   1      2.8699999999999979      43.049999999999997      44.484999999999985
    13   1      2.8699999999999979      43.049999999999997       47.35499999999999
    14   1      2.8699999999999979      44.484999999999985      40.179999999999993
    15   1      1.4349999999999952      44.484999999999985      41.614999999999995
    16   1      1.4349999999999952      45.919999999999995      43.049999999999997
    17   1      2.8699999999999979      44.484999999999985      43.049999999999997
    18   1      2.8699999999999979      45.919999999999995      41.614999999999995
    19   1      1.4349999999999952      44.484999999999985      44.484999999999985
    20   1      1.4349999999999952      45.919999999999995      45.919999999999995
    21   1      2.8699999999999979      44.484999999999985      45.919999999999995
    22   1      2.8699999999999979      45.919999999999995      44.484999999999985
    23   1      1.4349999999999952      44.484999999999985       47.35499999999999
    24   1      2.8699999999999979      44.484999999999985      48.789999999999992
    25   1      2.8699999999999979      45.919999999999995       47.35499999999999
    26   1      2.8699999999999979       47.35499999999999      43.049999999999997
    27   1      1.4349999999999952       47.35499999999999      44.484999999999985
    28   1      2.8699999999999979       47.35499999999999      45.919999999999995
    29   1      2.8699999999999979      48.789999999999992      44.484999999999985
    30   1      5.7399999999999958      37.309999999999995      44.484999999999985
    31   1      4.3049999999999997      40.179999999999993      43.049999999999997
    32   1      5.7399999999999958       38.74499999999999      43.049999999999997
    33   1      5.7399999999999958      40.179999999999993      41.614999999999995
    34   1      4.3049999999999997       38.74499999999999      44.484999999999985
    35   1      4.3049999999999997      40.179999999999993      45.919999999999995
    36   1      5.7399999999999958       38.74499999999999      45.919999999999995
    37   1      5.7399999999999958      40.179999999999993      44.484999999999985
    38   1      5.7399999999999958      40.179999999999993       47.35499999999999
    39   1      4.3049999999999997      43.049999999999997      40.179999999999993
    40   1      5.7399999999999958      41.614999999999995      40.179999999999993
    41   1      5.7399999999999958      43.049999999999997       38.74499999999999
    42   1      4.3049999999999997      41.614999999999995      41.614999999999995
    43   1      4.3049999999999997      43.049999999999997      43.049999999999997
    44   1      5.7399999999999958      41.614999999999995      43.049999999999997
    45   1      5.7399999999999958      43.049999999999997      41.614999999999995
    46   1      4.3049999999999997      41.614999999999995      44.484999999999985
    47   1      4.3049999999999997      43.049999999999997      45.919999999999995
    48   1      5.7399999999999958      41.614999999999995      45.919999999999995
    49   1      5.7399999999999958      43.049999999999997      44.484999999999985
    50   1      4.3049999999999997      41.614999999999995       47.35499999999999
    51   1      4.3049999999999997      43.049999999999997      48.789999999999992
    52   1      5.7399999999999958      41.614999999999995      48.789999999999992
    53   1      5.7399999999999958      43.049999999999997       47.35499999999999
    54   1      5.7399999999999958      43.049999999999997      50.224999999999994
    55   1      5.7399999999999958      44.484999999999985      37.309999999999995
    56   1      4.3049999999999997      44.484999999999985       38.74499999999999
    57   1      4.3049999999999997      45.919999999999995      40.179999999999993
    58   1      5.7399999999999958      44.484999999999985      40.179999999999993
    59   1      5.7399999999999958      45.919999999999995       38.74499999999999
    60   1      4.3049999999999997      44.484999999999985      41.614999999999995
    61   1      4.3049999999999997      45.919999999999995      43.049999999999997
    62   1      5.7399999999999958      44.484999999999985      43.049999999999997
    63   1      5.7399999999999958      45.919999999999995      41.614999999999995
    64   1      4.3049999999999997      44.484999999999985      44.484999999999985
    65   1      4.3049999999999997      45.919999999999995      45.919999999999995
    66   1      5.7399999999999958      44.484999999999985      45.919999999999995
    67   1      5.7399999999999958      45.919999999999995      44.484999999999985
    68   1      4.3049999999999997      44.484999999999985       47.35499999999999
    69   1      4.3049999999999997      45.919999999999995      48.789999999999992
    70   1      5.7399999999999958      44.484999999999985      48.789999999999992
    71   1      5.7399999999999958      45.919999999999995       47.35499999999999
    72   1      4.3049999999999997      44.484999999999985      50.224999999999994
    73   1      5.7399999999999958      44.484999999999985      51.659999999999997
    74   1      5.7399999999999958      45.919999999999995      50.224999999999994
    75   1      5.7399999999999958       47.35499999999999      40.179999999999993
    76   1      4.3049999999999997       47.35499999999999      41.614999999999995
    77   1      4.3049999999999997      48.789999999999992      43.049999999999997
    78   1      5.7399999999999958       47.35499999999999      43.049999999999997
    79   1      5.7399999999999958      48.789999999999992      41.614999999999995
    80   1      4.3049999999999997       47.35499999999999      44.484999999999985
    81   1      4.3049999999999997      48.789999999999992      45.919999999999995
    82   1      5.7399999999999958       47.35499999999999      45.919999999999995
    83   1      5.7399999999999958      48.789999999999992      44.484999999999985
    84   1      4.3049999999999997       47.35499999999999       47.35499999999999
    85   1      5.7399999999999958       47.35499999999999      48.789999999999992
    86   1      5.7399999999999958      48.789999999999992       47.35499999999999
    87   1      5.7399999999999958      50.224999999999994      43.049999999999997
    88   1      4.3049999999999997      50.224999999999994      44.484999999999985
    89   1      5.7399999999999958      50.224999999999994      45.919999999999995
    90   1      5.7399999999999958      51.659999999999997      44.484999999999985
    91   1      8.6099999999999994      34.439999999999998      41.614999999999995
    92   1      8.6099999999999994      34.439999999999998      44.484999999999985
    93   1      8.6099999999999994      34.439999999999998       47.35499999999999
    94   1      7.1749999999999972      37.309999999999995      40.179999999999993
    95   1      8.6099999999999994      35.874999999999993      40.179999999999993
    96   1      8.6099999999999994      37.309999999999995       38.74499999999999
    97   1      7.1749999999999972      37.309999999999995      43.049999999999997
    98   1      8.6099999999999994      35.874999999999993      43.049999999999997
    99   1      8.6099999999999994      37.309999999999995      41.614999999999995
   100   1      7.1749999999999972      35.874999999999993      44.484999999999985
   101   1      7.1749999999999972      37.309999999999995      45.919999999999995
   102   1      8.6099999999999994      35.874999999999993      45.919999999999995
   103   1      8.6099999999999994      37.309999999999995      44.484999999999985
   104   1      7.1749999999999972      37.309999999999995      48.789999999999992
   105   1      8.6099999999999994      35.874999999999993      48.789999999999992
   106   1      8.6099999999999994      37.309999999999995       47.35499999999999
   107   1      8.6099999999999994      37.309999999999995      50.224999999999994
   108   1      7.1749999999999972      40.179999999999993      37.309999999999995
   109   1      8.6099999999999994       38.74499999999999      37.309999999999995
   110   1      8.6099999999999994      40.179999999999993      35.874999999999993
   111   1      7.1749999999999972       38.74499999999999       38.74499999999999
   112   1      7.1749999999999972      40.179999999999993      40.179999999999993
   113   1      8.6099999999999994       38.74499999999999      40.179999999999993
   114   1      8.6099999999999994      40.179999999999993       38.74499999999999
   115   1      7.1749999999999972       38.74499999999999      41.614999999999995
   116   1      7.1749999999999972      40.179999999999993      43.049999999999997
   117   1      8.6099999999999994       38.74499999999999      43.049999999999997
   118   1      8.6099999999999994      40.179999999999993      41.614999999999995
   119   1      7.1749999999999972       38.74499999999999      44.484999999999985
   120   1      7.1749999999999972      40.179999999999993      45.919999999999995
   121   1      8.6099999999999994       38.74499999999999      45.919999999999995
   122   1      8.6099999999999994      40.179999999999993      44.484999999999985
   123   1      7.1749999999999972       38.74499999999999       47.35499999999999
   124   1      7.1749999999999972      40.179999999999993      48.789999999999992
   125   1      8.6099999999999994       38.74499999999999      48.789999999999992
   126   1      8.6099999999999994      40.179999999999993       47.35499999999999
   127   1      7.1749999999999972       38.74499999999999      50.224999999999994
   128   1      7.1749999999999972      40.179999999999993      51.659999999999997
   129   1      8.6099999999999994       38.74499999999999      51.659999999999997
   130   1      8.6099999999999994      40.179999999999993      50.224999999999994
   131   1      8.6099999999999994      40.179999999999993      53.094999999999992
   132   1      8.6099999999999994      41.614999999999995      34.439999999999998
   133   1      7.1749999999999972      43.049999999999997      37.309999999999995
   134   1      8.6099999999999994      41.614999999999995      37.309999999999995
   135   1      8.6099999999999994      43.049999999999997      35.874999999999993
   136   1      7.1749999999999972      41.614999999999995       38.74499999999999
   137   1      7.1749999999999972      43.049999999999997      40.179999999999993
   138   1      8.6099999999999994      41.614999999999995      40.179999999999993
   139   1      8.6099999999999994      43.049999999999997       38.74499999999999
   140   1      7.1749999999999972      41.614999999999995      41.614999999999995
   141   1      7.1749999999999972      43.049999999999997      43.049999999999997
   142   1      8.6099999999999994      41.614999999999995      43.049999999999997
   143   1      8.6099999999999994      43.049999999999997      41.614999999999995
   144   1      7.1749999999999972      41.614999999999995      44.484999999999985
   145   1      7.1749999999999972      43.049999999999997      45.919999999999995
   146   1      8.6099999999999994      41.614999999999995      45.919999999999995
   147   1      8.6099999999999994      43.049999999999997      44.484999999999985
   148   1      7.1749999999999972      41.614999999999995       47.35499999999999
   149   1      7.1749999999999972      43.049999999999997      48.789999999999992
   150   1      8.6099999999999994      41.614999999999995      48.789999999999992
   151   1      8.6099999999999994      43.049999999999997       47.35499999999999
   152   1      7.1749999999999972      41.614999999999995      50.224999999999994
   153   1      7.1749999999999972      43.049999999999997      51.659999999999997
   154   1      8.6099999999999994      41.614999999999995      51.659999999999997
   155   1      8.6099999999999994      43.049999999999997      50.224999999999994
   156   1      8.6099999999999994      41.614999999999995      54.530000000000001
   157   1      8.6099999999999994      43.049999999999997      53.094999999999992
   158   1      8.6099999999999994      44.484999999999985      34.439999999999998
   159   1      7.1749999999999972      44.484999999999985      35.874999999999993
   160   1      7.1749999999999972      45.919999999999995      37.309999999999995
   161   1      8.6099999999999994      44.484999999999985      37.309999999999995
   162   1      8.6099999999999994      45.919999999999995      35.874999999999993
   163   1      7.1749999999999972      44.484999999999985       38.74499999999999
   164   1      7.1749999999999972      45.919999999999995      40.179999999999993
   165   1      8.6099999999999994      44.484999999999985      40.179999999999993
   166   1      8.6099999999999994      45.919999999999995       38.74499999999999
   167   1      7.1749999999999972      44.484999999999985      41.614999999999995
   168   1      7.1749999999999972      45.919999999999995      43.049999999999997
   169   1      8.6099999999999994      44.484999999999985      43.049999999999997
   170   1      8.6099999999999994      45.919999999999995      41.614999999999995
   171   1      7.1749999999999972      44.484999999999985      44.484999999999985
   172   1      7.1749999999999972      45.919999999999995      45.919999999999995
   173   1      8.6099999999999994      44.484999999999985      45.919999999999995
   174   1      8.6099999999999994      45.919999999999995      44.484999999999985
   175   1      7.1749999999999972      44.484999999999985       47.35499999999999
   176   1      7.1749999999999972      45.919999999999995      48.789999999999992
   177   1      8.6099999999999994      44.484999999999985      48.789999999999992
   178   1      8.6099999999999994      45.919999999999995       47.35499999999999
   179   1      7.1749999999999972      44.484999999999985      50.224999999999994
   180   1      7.1749999999999972      45.919999999999995      51.659999999999997
   181   1      8.6099999999999994      44.484999999999985      51.659999999999997
   182   1      8.6099999999999994      45.919999999999995      50.224999999999994
   183   1      7.1749999999999972      44.484999999999985      53.094999999999992
   184   1      8.6099999999999994      44.484999999999985      54.530000000000001
   185   1      8.6099999999999994      45.919999999999995      53.094999999999992
   186   1      8.6099999999999994       47.35499999999999      34.439999999999998
   187   1      7.1749999999999972      48.789999999999992      37.309999999999995
   188   1      8.6099999999999994       47.35499999999999      37.309999999999995
   189   1      8.6099999999999994      48.789999999999992      35.874999999999993
   190   1      7.1749999999999972       47.35499999999999       38.74499999999999
   191   1      7.1749999999999972      48.789999999999992      40.179999999999993
   192   1      8.6099999999999994       47.35499999999999      40.179999999999993
   193   1      8.6099999999999994      48.789999999999992       38.74499999999999
   194   1      7.1749999999999972       47.35499999999999      41.614999999999995
   195   1      7.1749999999999972      48.789999999999992      43.049999999999997
   196   1      8.6099999999999994       47.35499999999999      43.049999999999997
   197   1      8.6099999999999994      48.789999999999992      41.614999999999995
   198   1      7.1749999999999972       47.35499999999999      44.484999999999985
   199   1      7.1749999999999972      48.789999999999992      45.919999999999995
   200   1      8.6099999999999994       47.35499999999999      45.919999999999995
   201   1      8.6099999999999994      48.789999999999992      44.484999999999985
   202   1      7.1749999999999972       47.35499999999999       47.35499999999999
   203   1      7.1749999999999972      48.789999999999992      48.789999999999992
   204   1      8.6099999999999994       47.35499999999999      48.789999999999992
   205   1      8.6099999999999994      48.789999999999992       47.35499999999999
   206   1      7.1749999999999972       47.35499999999999      50.224999999999994
   207   1      7.1749999999999972      48.789999999999992      51.659999999999997
   208   1      8.6099999999999994       47.35499999999999      51.659999999999997
   209   1      8.6099999999999994      48.789999999999992      50.224999999999994
   210   1      8.6099999999999994       47.35499999999999      54.530000000000001
   211   1      8.6099999999999994      48.789999999999992      53.094999999999992
   212   1      8.6099999999999994      50.224999999999994      37.309999999999995
   213   1      7.1749999999999972      50.224999999999994       38.74499999999999
   214   1      7.1749999999999972      51.659999999999997      40.179999999999993
   215   1      8.6099999999999994      50.224999999999994      40.179999999999993
   216   1      8.6099999999999994      51.659999999999997       38.74499999999999
   217   1      7.1749999999999972      50.224999999999994      41.614999999999995
   218   1      7.1749999999999972      51.659999999999997      43.049999999999997
   219   1      8.6099999999999994      50.224999999999994      43.049999999999997
   220   1      8.6099999999999994      51.659999999999997      41.614999999999995
   221   1      7.1749999999999972      50.224999999999994      44.484999999999985
   222   1      7.1749999999999972      51.659999999999997      45.919999999999995
   223   1      8.6099999999999994      50.224999999999994      45.919999999999995
   224   1      8.6099999999999994      51.659999999999997      44.484999999999985
   225   1      7.1749999999999972      50.224999999999994       47.35499999999999
   226   1      7.1749999999999972      51.659999999999997      48.789999999999992
   227   1      8.6099999999999994      50.224999999999994      48.789999999999992
   228   1      8.6099999999999994      51.659999999999997       47.35499999999999
   229   1      7.1749999999999972      50.224999999999994      50.224999999999994
   230   1      8.6099999999999994      50.224999999999994      51.659999999999997
   231   1      8.6099999999999994      51.659999999999997      50.224999999999994
   232   1      8.6099999999999994      53.094999999999992      40.179999999999993
   233   1      8.6099999999999994      53.094999999999992      43.049999999999997
   234   1      8.6099999999999994      54.530000000000001      41.614999999999995
   235   1      7.1749999999999972      53.094999999999992      44.484999999999985
   236   1      8.6099999999999994      53.094999999999992      45.919999999999995
   237   1      8.6099999999999994      54.530000000000001      44.484999999999985
   238   1      8.6099999999999994      53.094999999999992      48.789999999999992
   239   1      8.6099999999999994      54.530000000000001       47.35499999999999
   240   1      11.479999999999999      28.699999999999992      44.484999999999985
   241   1      10.044999999999995      31.569999999999997      43.049999999999997
   242   1      11.479999999999999      30.134999999999998      43.049999999999997
   243   1      11.479999999999999      31.569999999999997      41.614999999999995
   244   1      10.044999999999995      31.569999999999997      45.919999999999995
   245   1      11.479999999999999      30.134999999999998      45.919999999999995
   246   1      11.479999999999999      31.569999999999997      44.484999999999985
   247   1      11.479999999999999      31.569999999999997       47.35499999999999
   248   1      10.044999999999995      34.439999999999998      40.179999999999993
   249   1      11.479999999999999      33.004999999999995      40.179999999999993
   250   1      11.479999999999999      34.439999999999998       38.74499999999999
   251   1      10.044999999999995      33.004999999999995      41.614999999999995
   252   1      10.044999999999995      34.439999999999998      43.049999999999997
   253   1      11.479999999999999      33.004999999999995      43.049999999999997
   254   1      11.479999999999999      34.439999999999998      41.614999999999995
   255   1      10.044999999999995      33.004999999999995      44.484999999999985
   256   1      10.044999999999995      34.439999999999998      45.919999999999995
   257   1      11.479999999999999      33.004999999999995      45.919999999999995
   258   1      11.479999999999999      34.439999999999998      44.484999999999985
   259   1      10.044999999999995      33.004999999999995       47.35499999999999
   260   1      10.044999999999995      34.439999999999998      48.789999999999992
   261   1      11.479999999999999      33.004999999999995      48.789999999999992
   262   1      11.479999999999999      34.439999999999998       47.35499999999999
   263   1      11.479999999999999      34.439999999999998      50.224999999999994
   264   1      10.044999999999995      37.309999999999995      37.309999999999995
   265   1      11.479999999999999      35.874999999999993      37.309999999999995
   266   1      11.479999999999999      37.309999999999995      35.874999999999993
   267   1      10.044999999999995      35.874999999999993       38.74499999999999
   268   1      10.044999999999995      37.309999999999995      40.179999999999993
   269   1      11.479999999999999      35.874999999999993      40.179999999999993
   270   1      11.479999999999999      37.309999999999995       38.74499999999999
   271   1      10.044999999999995      35.874999999999993      41.614999999999995
   272   1      10.044999999999995      37.309999999999995      43.049999999999997
   273   1      11.479999999999999      35.874999999999993      43.049999999999997
   274   1      11.479999999999999      37.309999999999995      41.614999999999995
   275   1      10.044999999999995      35.874999999999993      44.484999999999985
   276   1      10.044999999999995      37.309999999999995      45.919999999999995
   277   1      11.479999999999999      35.874999999999993      45.919999999999995
   278   1      11.479999999999999      37.309999999999995      44.484999999999985
   279   1      10.044999999999995      35.874999999999993       47.35499999999999
   280   1      10.044999999999995      37.309999999999995      48.789999999999992
   281   1      11.479999999999999      35.874999999999993      48.789999999999992
   282   1      11.479999999999999      37.309999999999995       47.35499999999999
   283   1      10.044999999999995      35.874999999999993      50.224999999999994
   284   1      10.044999999999995      37.309999999999995      51.659999999999997
   285   1      11.479999999999999      35.874999999999993      51.659999999999997
   286   1      11.479999999999999      37.309999999999995      50.224999999999994
   287   1      11.479999999999999      37.309999999999995      53.094999999999992
   288   1      10.044999999999995      40.179999999999993      34.439999999999998
   289   1      11.479999999999999       38.74499999999999      34.439999999999998
   290   1      11.479999999999999      40.179999999999993      33.004999999999995
   291   1      10.044999999999995       38.74499999999999      35.874999999999993
   292   1      10.044999999999995      40.179999999999993      37.309999999999995
   293   1      11.479999999999999       38.74499999999999      37.309999999999995
   294   1      11.479999999999999      40.179999999999993      35.874999999999993
   295   1      10.044999999999995       38.74499999999999       38.74499999999999
   296   1      10.044999999999995      40.179999999999993      40.179999999999993
   297   1      11.479999999999999       38.74499999999999      40.179999999999993
   298   1      11.479999999999999      40.179999999999993       38.74499999999999
   299   1      10.044999999999995       38.74499999999999      41.614999999999995
   300   1      10.044999999999995      40.179999999999993      43.049999999999997
   301   1      11.479999999999999       38.74499999999999      43.049999999999997
   302   1      11.479999999999999      40.179999999999993      41.614999999999995
   303   1      10.044999999999995       38.74499999999999      44.484999999999985
   304   1      10.044999999999995      40.179999999999993      45.919999999999995
   305   1      11.479999999999999       38.74499999999999      45.919999999999995
   306   1      11.479999999999999      40.179999999999993      44.484999999999985
   307   1      10.044999999999995       38.74499999999999       47.35499999999999
   308   1      10.044999999999995      40.179999999999993      48.789999999999992
   309   1      11.479999999999999       38.74499999999999      48.789999999999992
   310   1      11.479999999999999      40.179999999999993       47.35499999999999
   311   1      10.044999999999995       38.74499999999999      50.224999999999994
   312   1      10.044999999999995      40.179999999999993      51.659999999999997
   313   1      11.479999999999999       38.74499999999999      51.659999999999997
   314   1      11.479999999999999      40.179999999999993      50.224999999999994
   315   1      10.044999999999995       38.74499999999999      53.094999999999992
   316   1      10.044999999999995      40.179999999999993      54.530000000000001
   317   1      11.479999999999999       38.74499999999999      54.530000000000001
   318   1      11.479999999999999      40.179999999999993      53.094999999999992
   319   1      11.479999999999999      40.179999999999993      55.964999999999989
   320   1      10.044999999999995      43.049999999999997      31.569999999999997
   321   1      11.479999999999999      41.614999999999995      31.569999999999997
   322   1      11.479999999999999      43.049999999999997      30.134999999999998
   323   1      10.044999999999995      41.614999999999995      33.004999999999995
   324   1      10.044999999999995      43.049999999999997      34.439999999999998
   325   1      11.479999999999999      41.614999999999995      34.439999999999998
   326   1      11.479999999999999      43.049999999999997      33.004999999999995
   327   1      10.044999999999995      41.614999999999995      35.874999999999993
   328   1      10.044999999999995      43.049999999999997      37.309999999999995
   329   1      11.479999999999999      41.614999999999995      37.309999999999995
   330   1      11.479999999999999      43.049999999999997      35.874999999999993
   331   1      10.044999999999995      41.614999999999995       38.74499999999999
   332   1      10.044999999999995      43.049999999999997      40.179999999999993
   333   1      11.479999999999999      41.614999999999995      40.179999999999993
   334   1      11.479999999999999      43.049999999999997       38.74499999999999
   335   1      10.044999999999995      41.614999999999995      41.614999999999995
   336   1      10.044999999999995      43.049999999999997      43.049999999999997
   337   1      11.479999999999999      41.614999999999995      43.049999999999997
   338   1      11.479999999999999      43.049999999999997      41.614999999999995
   339   1      10.044999999999995      41.614999999999995      44.484999999999985
   340   1      10.044999999999995      43.049999999999997      45.919999999999995
   341   1      11.479999999999999      41.614999999999995      45.919999999999995
   342   1      11.479999999999999      43.049999999999997      44.484999999999985
   343   1      10.044999999999995      41.614999999999995       47.35499999999999
   344   1      10.044999999999995      43.049999999999997      48.789999999999992
   345   1      11.479999999999999      41.614999999999995      48.789999999999992
   346   1      11.479999999999999      43.049999999999997       47.35499999999999
   347   1      10.044999999999995      41.614999999999995      50.224999999999994
   348   1      10.044999999999995      43.049999999999997      51.659999999999997
   349   1      11.479999999999999      41.614999999999995      51.659999999999997
   350   1      11.479999999999999      43.049999999999997      50.224999999999994
   351   1      10.044999999999995      41.614999999999995      53.094999999999992
   352   1      10.044999999999995      43.049999999999997      54.530000000000001
   353   1      11.479999999999999      41.614999999999995      54.530000000000001
   354   1      11.479999999999999      43.049999999999997      53.094999999999992
   355   1      10.044999999999995      41.614999999999995      55.964999999999989
   356   1      10.044999999999995      43.049999999999997      57.399999999999999
   357   1      11.479999999999999      41.614999999999995      57.399999999999999
   358   1      11.479999999999999      43.049999999999997      55.964999999999989