model_files/Co/Co_30000/Co_531/data.Co_531_hcp_29859 (written by ASE) 

29859 	 atoms 
1  atom types
0.0                      69  xlo xhi
0.0                      69  ylo yhi
0.0                      69  zlo zhi


Atoms 

     1   1      68.999999999999986      32.629999999999988      33.884999999999991
     2   1      68.999999999999986      33.884999999999991      32.629999999999988
     3   1      68.999999999999986      33.884999999999991      35.139999999999993
     4   1      68.999999999999986      35.139999999999993      33.884999999999991
     5   1      2.5099999999999909      28.864999999999988      32.629999999999988
     6   1      2.5099999999999909      30.119999999999987      31.374999999999986
     7   1      2.5099999999999909      28.864999999999988      35.139999999999993
     8   1      2.5099999999999909      30.119999999999987      33.884999999999991
     9   1      2.5099999999999909      30.119999999999987      36.394999999999989
    10   1      2.5099999999999909      31.374999999999986      30.119999999999987
    11   1      2.5099999999999909      32.629999999999988      28.864999999999988
    12   1      1.2549999999999886      31.374999999999986      31.374999999999986
    13   1      1.2549999999999886      32.629999999999988      32.629999999999988
    14   1      2.5099999999999909      31.374999999999986      32.629999999999988
    15   1      2.5099999999999909      32.629999999999988      31.374999999999986
    16   1      1.2549999999999886      31.374999999999986      33.884999999999991
    17   1      1.2549999999999886      32.629999999999988      35.139999999999993
    18   1      2.5099999999999909      31.374999999999986      35.139999999999993
    19   1      2.5099999999999909      32.629999999999988      33.884999999999991
    20   1      1.2549999999999886      31.374999999999986      36.394999999999989
    21   1      2.5099999999999909      31.374999999999986      37.649999999999991
    22   1      2.5099999999999909      32.629999999999988      36.394999999999989
    23   1      2.5099999999999909      32.629999999999988      38.904999999999987
    24   1      2.5099999999999909      33.884999999999991      30.119999999999987
    25   1      2.5099999999999909      35.139999999999993      28.864999999999988
    26   1      1.2549999999999886      33.884999999999991      31.374999999999986
    27   1      1.2549999999999886      35.139999999999993      32.629999999999988
    28   1      2.5099999999999909      33.884999999999991      32.629999999999988
    29   1      2.5099999999999909      35.139999999999993      31.374999999999986
    30   1      1.2549999999999886      33.884999999999991      33.884999999999991
    31   1      1.2549999999999886      35.139999999999993      35.139999999999993
    32   1      2.5099999999999909      33.884999999999991      35.139999999999993
    33   1      2.5099999999999909      35.139999999999993      33.884999999999991
    34   1      1.2549999999999886      33.884999999999991      36.394999999999989
    35   1      2.5099999999999909      33.884999999999991      37.649999999999991
    36   1      2.5099999999999909      35.139999999999993      36.394999999999989
    37   1      2.5099999999999909      35.139999999999993      38.904999999999987
    38   1      2.5099999999999909      36.394999999999989      30.119999999999987
    39   1      1.2549999999999886      36.394999999999989      31.374999999999986
    40   1      2.5099999999999909      36.394999999999989      32.629999999999988
    41   1      2.5099999999999909      37.649999999999991      31.374999999999986
    42   1      1.2549999999999886      36.394999999999989      33.884999999999991
    43   1      2.5099999999999909      36.394999999999989      35.139999999999993
    44   1      2.5099999999999909      37.649999999999991      33.884999999999991
    45   1      1.2549999999999886      36.394999999999989      36.394999999999989
    46   1      2.5099999999999909      36.394999999999989      37.649999999999991
    47   1      2.5099999999999909      37.649999999999991      36.394999999999989
    48   1      2.5099999999999909      38.904999999999987      32.629999999999988
    49   1      2.5099999999999909      38.904999999999987      35.139999999999993
    50   1      5.0199999999999889      25.099999999999987      31.374999999999986
    51   1      5.0199999999999889      25.099999999999987      33.884999999999991
    52   1      5.0199999999999889      25.099999999999987      36.394999999999989
    53   1      5.0199999999999889       26.35499999999999      27.609999999999989
    54   1      5.0199999999999889      27.609999999999989       26.35499999999999
    55   1      3.7649999999999899      27.609999999999989      30.119999999999987
    56   1      5.0199999999999889       26.35499999999999      30.119999999999987
    57   1      5.0199999999999889      27.609999999999989      28.864999999999988
    58   1      3.7649999999999899      27.609999999999989      32.629999999999988
    59   1      5.0199999999999889       26.35499999999999      32.629999999999988
    60   1      5.0199999999999889      27.609999999999989      31.374999999999986
    61   1      3.7649999999999899       26.35499999999999      33.884999999999991
    62   1      3.7649999999999899      27.609999999999989      35.139999999999993
    63   1      5.0199999999999889       26.35499999999999      35.139999999999993
    64   1      5.0199999999999889      27.609999999999989      33.884999999999991
    65   1      3.7649999999999899      27.609999999999989      37.649999999999991
    66   1      5.0199999999999889       26.35499999999999      37.649999999999991
    67   1      5.0199999999999889      27.609999999999989      36.394999999999989
    68   1      5.0199999999999889       26.35499999999999      40.159999999999989
    69   1      5.0199999999999889      27.609999999999989      38.904999999999987
    70   1      5.0199999999999889      27.609999999999989      41.414999999999985
    71   1      3.7649999999999899      30.119999999999987      27.609999999999989
    72   1      5.0199999999999889      28.864999999999988      27.609999999999989
    73   1      5.0199999999999889      30.119999999999987       26.35499999999999
    74   1      3.7649999999999899      28.864999999999988      28.864999999999988
    75   1      3.7649999999999899      30.119999999999987      30.119999999999987
    76   1      5.0199999999999889      28.864999999999988      30.119999999999987
    77   1      5.0199999999999889      30.119999999999987      28.864999999999988
    78   1      3.7649999999999899      28.864999999999988      31.374999999999986
    79   1      3.7649999999999899      30.119999999999987      32.629999999999988
    80   1      5.0199999999999889      28.864999999999988      32.629999999999988
    81   1      5.0199999999999889      30.119999999999987      31.374999999999986
    82   1      3.7649999999999899      28.864999999999988      33.884999999999991
    83   1      3.7649999999999899      30.119999999999987      35.139999999999993
    84   1      5.0199999999999889      28.864999999999988      35.139999999999993
    85   1      5.0199999999999889      30.119999999999987      33.884999999999991
    86   1      3.7649999999999899      28.864999999999988      36.394999999999989
    87   1      3.7649999999999899      30.119999999999987      37.649999999999991
    88   1      5.0199999999999889      28.864999999999988      37.649999999999991
    89   1      5.0199999999999889      30.119999999999987      36.394999999999989
    90   1      3.7649999999999899      28.864999999999988      38.904999999999987
    91   1      3.7649999999999899      30.119999999999987      40.159999999999989
    92   1      5.0199999999999889      28.864999999999988      40.159999999999989
    93   1      5.0199999999999889      30.119999999999987      38.904999999999987
    94   1      5.0199999999999889      30.119999999999987      41.414999999999985
    95   1      5.0199999999999889      31.374999999999986      25.099999999999987
    96   1      3.7649999999999899      32.629999999999988      27.609999999999989
    97   1      5.0199999999999889      31.374999999999986      27.609999999999989
    98   1      5.0199999999999889      32.629999999999988       26.35499999999999
    99   1      3.7649999999999899      31.374999999999986      28.864999999999988
   100   1      3.7649999999999899      32.629999999999988      30.119999999999987
   101   1      5.0199999999999889      31.374999999999986      30.119999999999987
   102   1      5.0199999999999889      32.629999999999988      28.864999999999988
   103   1      3.7649999999999899      31.374999999999986      31.374999999999986
   104   1      3.7649999999999899      32.629999999999988      32.629999999999988
   105   1      5.0199999999999889      31.374999999999986      32.629999999999988
   106   1      5.0199999999999889      32.629999999999988      31.374999999999986
   107   1      3.7649999999999899      31.374999999999986      33.884999999999991
   108   1      3.7649999999999899      32.629999999999988      35.139999999999993
   109   1      5.0199999999999889      31.374999999999986      35.139999999999993
   110   1      5.0199999999999889      32.629999999999988      33.884999999999991
   111   1      3.7649999999999899      31.374999999999986      36.394999999999989
   112   1      3.7649999999999899      32.629999999999988      37.649999999999991
   113   1      5.0199999999999889      31.374999999999986      37.649999999999991
   114   1      5.0199999999999889      32.629999999999988      36.394999999999989
   115   1      3.7649999999999899      31.374999999999986      38.904999999999987
   116   1      3.7649999999999899      32.629999999999988      40.159999999999989
   117   1      5.0199999999999889      31.374999999999986      40.159999999999989
   118   1      5.0199999999999889      32.629999999999988      38.904999999999987
   119   1      5.0199999999999889      31.374999999999986      42.669999999999987
   120   1      5.0199999999999889      32.629999999999988      41.414999999999985
   121   1      5.0199999999999889      33.884999999999991      25.099999999999987
   122   1      3.7649999999999899      33.884999999999991       26.35499999999999
   123   1      3.7649999999999899      35.139999999999993      27.609999999999989
   124   1      5.0199999999999889      33.884999999999991      27.609999999999989
   125   1      5.0199999999999889      35.139999999999993       26.35499999999999
   126   1      3.7649999999999899      33.884999999999991      28.864999999999988
   127   1      3.7649999999999899      35.139999999999993      30.119999999999987
   128   1      5.0199999999999889      33.884999999999991      30.119999999999987
   129   1      5.0199999999999889      35.139999999999993      28.864999999999988
   130   1      3.7649999999999899      33.884999999999991      31.374999999999986
   131   1      3.7649999999999899      35.139999999999993      32.629999999999988
   132   1      5.0199999999999889      33.884999999999991      32.629999999999988
   133   1      5.0199999999999889      35.139999999999993      31.374999999999986
   134   1      3.7649999999999899      33.884999999999991      33.884999999999991
   135   1      3.7649999999999899      35.139999999999993      35.139999999999993
   136   1      5.0199999999999889      33.884999999999991      35.139999999999993
   137   1      5.0199999999999889      35.139999999999993      33.884999999999991
   138   1      3.7649999999999899      33.884999999999991      36.394999999999989
   139   1      3.7649999999999899      35.139999999999993      37.649999999999991
   140   1      5.0199999999999889      33.884999999999991      37.649999999999991
   141   1      5.0199999999999889      35.139999999999993      36.394999999999989
   142   1      3.7649999999999899      33.884999999999991      38.904999999999987
   143   1      3.7649999999999899      35.139999999999993      40.159999999999989
   144   1      5.0199999999999889      33.884999999999991      40.159999999999989
   145   1      5.0199999999999889      35.139999999999993      38.904999999999987
   146   1      3.7649999999999899      33.884999999999991      41.414999999999985
   147   1      5.0199999999999889      33.884999999999991      42.669999999999987
   148   1      5.0199999999999889      35.139999999999993      41.414999999999985
   149   1      5.0199999999999889      36.394999999999989      25.099999999999987
   150   1      3.7649999999999899      37.649999999999991      27.609999999999989
   151   1      5.0199999999999889      36.394999999999989      27.609999999999989
   152   1      5.0199999999999889      37.649999999999991       26.35499999999999
   153   1      3.7649999999999899      36.394999999999989      28.864999999999988
   154   1      3.7649999999999899      37.649999999999991      30.119999999999987
   155   1      5.0199999999999889      36.394999999999989      30.119999999999987
   156   1      5.0199999999999889      37.649999999999991      28.864999999999988
   157   1      3.7649999999999899      36.394999999999989      31.374999999999986
   158   1      3.7649999999999899      37.649999999999991      32.629999999999988
   159   1      5.0199999999999889      36.394999999999989      32.629999999999988
   160   1      5.0199999999999889      37.649999999999991      31.374999999999986
   161   1      3.7649999999999899      36.394999999999989      33.884999999999991
   162   1      3.7649999999999899      37.649999999999991      35.139999999999993
   163   1      5.0199999999999889      36.394999999999989      35.139999999999993
   164   1      5.0199999999999889      37.649999999999991      33.884999999999991
   165   1      3.7649999999999899      36.394999999999989      36.394999999999989
   166   1      3.7649999999999899      37.649999999999991      37.649999999999991
   167   1      5.0199999999999889      36.394999999999989      37.649999999999991
   168   1      5.0199999999999889      37.649999999999991      36.394999999999989
   169   1      3.7649999999999899      36.394999999999989      38.904999999999987
   170   1      3.7649999999999899      37.649999999999991      40.159999999999989
   171   1      5.0199999999999889      36.394999999999989      40.159999999999989
   172   1      5.0199999999999889      37.649999999999991      38.904999999999987
   173   1      5.0199999999999889      36.394999999999989      42.669999999999987
   174   1      5.0199999999999889      37.649999999999991      41.414999999999985
   175   1      5.0199999999999889      38.904999999999987      27.609999999999989
   176   1      5.0199999999999889      40.159999999999989       26.35499999999999
   177   1      3.7649999999999899      38.904999999999987      28.864999999999988
   178   1      3.7649999999999899      40.159999999999989      30.119999999999987
   179   1      5.0199999999999889      38.904999999999987      30.119999999999987
   180   1      5.0199999999999889      40.159999999999989      28.864999999999988
   181   1      3.7649999999999899      38.904999999999987      31.374999999999986
   182   1      3.7649999999999899      40.159999999999989      32.629999999999988
   183   1      5.0199999999999889      38.904999999999987      32.629999999999988
   184   1      5.0199999999999889      40.159999999999989      31.374999999999986
   185   1      3.7649999999999899      38.904999999999987      33.884999999999991
   186   1      3.7649999999999899      40.159999999999989      35.139999999999993
   187   1      5.0199999999999889      38.904999999999987      35.139999999999993
   188   1      5.0199999999999889      40.159999999999989      33.884999999999991
   189   1      3.7649999999999899      38.904999999999987      36.394999999999989
   190   1      3.7649999999999899      40.159999999999989      37.649999999999991
   191   1      5.0199999999999889      38.904999999999987      37.649999999999991
   192   1      5.0199999999999889      40.159999999999989      36.394999999999989
   193   1      3.7649999999999899      38.904999999999987      38.904999999999987
   194   1      5.0199999999999889      38.904999999999987      40.159999999999989
   195   1      5.0199999999999889      40.159999999999989      38.904999999999987
   196   1      5.0199999999999889      40.159999999999989      41.414999999999985
   197   1      5.0199999999999889      41.414999999999985      27.609999999999989
   198   1      5.0199999999999889      41.414999999999985      30.119999999999987
   199   1      5.0199999999999889      41.414999999999985      32.629999999999988
   200   1      5.0199999999999889      42.669999999999987      31.374999999999986
   201   1      3.7649999999999899      41.414999999999985      33.884999999999991
   202   1      5.0199999999999889      41.414999999999985      35.139999999999993
   203   1      5.0199999999999889      42.669999999999987      33.884999999999991
   204   1      5.0199999999999889      41.414999999999985      37.649999999999991
   205   1      5.0199999999999889      42.669999999999987      36.394999999999989
   206   1      5.0199999999999889      41.414999999999985      40.159999999999989
   207   1      7.5299999999999905      20.079999999999988      33.884999999999991
   208   1      7.5299999999999905      22.589999999999986       26.35499999999999
   209   1      7.5299999999999905      21.334999999999987      30.119999999999987
   210   1      7.5299999999999905      22.589999999999986      28.864999999999988
   211   1      6.2749999999999915      22.589999999999986      32.629999999999988
   212   1      7.5299999999999905      21.334999999999987      32.629999999999988
   213   1      7.5299999999999905      22.589999999999986      31.374999999999986
   214   1      6.2749999999999915      22.589999999999986      35.139999999999993
   215   1      7.5299999999999905      21.334999999999987      35.139999999999993
   216   1      7.5299999999999905      22.589999999999986      33.884999999999991
   217   1      7.5299999999999905      21.334999999999987      37.649999999999991
   218   1      7.5299999999999905      22.589999999999986      36.394999999999989
   219   1      7.5299999999999905      22.589999999999986      38.904999999999987
   220   1      7.5299999999999905      22.589999999999986      41.414999999999985
   221   1      6.2749999999999915      25.099999999999987      25.099999999999987
   222   1      7.5299999999999905      23.844999999999988      25.099999999999987
   223   1      7.5299999999999905      25.099999999999987      23.844999999999988
   224   1      6.2749999999999915      25.099999999999987      27.609999999999989
   225   1      7.5299999999999905      23.844999999999988      27.609999999999989
   226   1      7.5299999999999905      25.099999999999987       26.35499999999999
   227   1      6.2749999999999915      23.844999999999988      28.864999999999988
   228   1      6.2749999999999915      25.099999999999987      30.119999999999987
   229   1      7.5299999999999905      23.844999999999988      30.119999999999987
   230   1      7.5299999999999905      25.099999999999987      28.864999999999988
   231   1      6.2749999999999915      23.844999999999988      31.374999999999986
   232   1      6.2749999999999915      25.099999999999987      32.629999999999988
   233   1      7.5299999999999905      23.844999999999988      32.629999999999988
   234   1      7.5299999999999905      25.099999999999987      31.374999999999986
   235   1      6.2749999999999915      23.844999999999988      33.884999999999991
   236   1      6.2749999999999915      25.099999999999987      35.139999999999993
   237   1      7.5299999999999905      23.844999999999988      35.139999999999993
   238   1      7.5299999999999905      25.099999999999987      33.884999999999991
   239   1      6.2749999999999915      23.844999999999988      36.394999999999989
   240   1      6.2749999999999915      25.099999999999987      37.649999999999991
   241   1      7.5299999999999905      23.844999999999988      37.649999999999991
   242   1      7.5299999999999905      25.099999999999987      36.394999999999989
   243   1      6.2749999999999915      23.844999999999988      38.904999999999987
   244   1      6.2749999999999915      25.099999999999987      40.159999999999989
   245   1      7.5299999999999905      23.844999999999988      40.159999999999989
   246   1      7.5299999999999905      25.099999999999987      38.904999999999987
   247   1      6.2749999999999915      25.099999999999987      42.669999999999987
   248   1      7.5299999999999905      23.844999999999988      42.669999999999987
   249   1      7.5299999999999905      25.099999999999987      41.414999999999985
   250   1      7.5299999999999905      25.099999999999987      43.924999999999983
   251   1      7.5299999999999905       26.35499999999999      22.589999999999986
   252   1      6.2749999999999915      27.609999999999989      25.099999999999987
   253   1      7.5299999999999905       26.35499999999999      25.099999999999987
   254   1      7.5299999999999905      27.609999999999989      23.844999999999988
   255   1      6.2749999999999915       26.35499999999999       26.35499999999999
   256   1      6.2749999999999915      27.609999999999989      27.609999999999989
   257   1      7.5299999999999905       26.35499999999999      27.609999999999989
   258   1      7.5299999999999905      27.609999999999989       26.35499999999999
   259   1      6.2749999999999915       26.35499999999999      28.864999999999988
   260   1      6.2749999999999915      27.609999999999989      30.119999999999987
   261   1      7.5299999999999905       26.35499999999999      30.119999999999987
   262   1      7.5299999999999905      27.609999999999989      28.864999999999988
   263   1      6.2749999999999915       26.35499999999999      31.374999999999986
   264   1      6.2749999999999915      27.609999999999989      32.629999999999988
   265   1      7.5299999999999905       26.35499999999999      32.629999999999988
   266   1      7.5299999999999905      27.609999999999989      31.374999999999986
   267   1      6.2749999999999915       26.35499999999999      33.884999999999991
   268   1      6.2749999999999915      27.609999999999989      35.139999999999993
   269   1      7.5299999999999905       26.35499999999999      35.139999999999993
   270   1      7.5299999999999905      27.609999999999989      33.884999999999991
   271   1      6.2749999999999915       26.35499999999999      36.394999999999989
   272   1      6.2749999999999915      27.609999999999989      37.649999999999991
   273   1      7.5299999999999905       26.35499999999999      37.649999999999991
   274   1      7.5299999999999905      27.609999999999989      36.394999999999989
   275   1      6.2749999999999915       26.35499999999999      38.904999999999987
   276   1      6.2749999999999915      27.609999999999989      40.159999999999989
   277   1      7.5299999999999905       26.35499999999999      40.159999999999989
   278   1      7.5299999999999905      27.609999999999989      38.904999999999987
   279   1      6.2749999999999915       26.35499999999999      41.414999999999985
   280   1      6.2749999999999915      27.609999999999989      42.669999999999987
   281   1      7.5299999999999905       26.35499999999999      42.669999999999987
   282   1      7.5299999999999905      27.609999999999989      41.414999999999985
   283   1      7.5299999999999905       26.35499999999999      45.179999999999986
   284   1      7.5299999999999905      27.609999999999989      43.924999999999983
   285   1      7.5299999999999905      28.864999999999988      22.589999999999986
   286   1      7.5299999999999905      30.119999999999987      21.334999999999987
   287   1      6.2749999999999915      28.864999999999988      23.844999999999988
   288   1      6.2749999999999915      30.119999999999987      25.099999999999987
   289   1      7.5299999999999905      28.864999999999988      25.099999999999987
   290   1      7.5299999999999905      30.119999999999987      23.844999999999988
   291   1      6.2749999999999915      28.864999999999988       26.35499999999999
   292   1      6.2749999999999915      30.119999999999987      27.609999999999989
   293   1      7.5299999999999905      28.864999999999988      27.609999999999989
   294   1      7.5299999999999905      30.119999999999987       26.35499999999999
   295   1      6.2749999999999915      28.864999999999988      28.864999999999988
   296   1      6.2749999999999915      30.119999999999987      30.119999999999987
   297   1      7.5299999999999905      28.864999999999988      30.119999999999987
   298   1      7.5299999999999905      30.119999999999987      28.864999999999988
   299   1      6.2749999999999915      28.864999999999988      31.374999999999986
   300   1      6.2749999999999915      30.119999999999987      32.629999999999988
   301   1      7.5299999999999905      28.864999999999988      32.629999999999988
   302   1      7.5299999999999905      30.119999999999987      31.374999999999986
   303   1      6.2749999999999915      28.864999999999988      33.884999999999991
   304   1      6.2749999999999915      30.119999999999987      35.139999999999993
   305   1      7.5299999999999905      28.864999999999988      35.139999999999993
   306   1      7.5299999999999905      30.119999999999987      33.884999999999991
   307   1      6.2749999999999915      28.864999999999988      36.394999999999989
   308   1      6.2749999999999915      30.119999999999987      37.649999999999991
   309   1      7.5299999999999905      28.864999999999988      37.649999999999991
   310   1      7.5299999999999905      30.119999999999987      36.394999999999989
   311   1      6.2749999999999915      28.864999999999988      38.904999999999987
   312   1      6.2749999999999915      30.119999999999987      40.159999999999989
   313   1      7.5299999999999905      28.864999999999988      40.159999999999989
   314   1      7.5299999999999905      30.119999999999987      38.904999999999987
   315   1      6.2749999999999915      28.864999999999988      41.414999999999985
   316   1      6.2749999999999915      30.119999999999987      42.669999999999987
   317   1      7.5299999999999905      28.864999999999988      42.669999999999987
   318   1      7.5299999999999905      30.119999999999987      41.414999999999985
   319   1      6.2749999999999915      28.864999999999988      43.924999999999983
   320   1      7.5299999999999905      28.864999999999988      45.179999999999986
   321   1      7.5299999999999905      30.119999999999987      43.924999999999983
   322   1      7.5299999999999905      30.119999999999987      46.434999999999988
   323   1      6.2749999999999915      32.629999999999988      22.589999999999986
   324   1      7.5299999999999905      31.374999999999986      22.589999999999986
   325   1      7.5299999999999905      32.629999999999988      21.334999999999987
   326   1      6.2749999999999915      31.374999999999986      23.844999999999988
   327   1      6.2749999999999915      32.629999999999988      25.099999999999987
   328   1      7.5299999999999905      31.374999999999986      25.099999999999987
   329   1      7.5299999999999905      32.629999999999988      23.844999999999988
   330   1      6.2749999999999915      31.374999999999986       26.35499999999999
   331   1      6.2749999999999915      32.629999999999988      27.609999999999989
   332   1      7.5299999999999905      31.374999999999986      27.609999999999989
   333   1      7.5299999999999905      32.629999999999988       26.35499999999999
   334   1      6.2749999999999915      31.374999999999986      28.864999999999988
   335   1      6.2749999999999915      32.629999999999988      30.119999999999987
   336   1      7.5299999999999905      31.374999999999986      30.119999999999987
   337   1      7.5299999999999905      32.629999999999988      28.864999999999988
   338   1      6.2749999999999915      31.374999999999986      31.374999999999986
   339   1      6.2749999999999915      32.629999999999988      32.629999999999988
   340   1      7.5299999999999905      31.374999999999986      32.629999999999988
   341   1      7.5299999999999905      32.629999999999988      31.374999999999986
   342   1      6.2749999999999915      31.374999999999986      33.884999999999991
   343   1      6.2749999999999915      32.629999999999988      35.139999999999993
   344   1      7.5299999999999905      31.374999999999986      35.139999999999993
   345   1      7.5299999999999905      32.629999999999988      33.884999999999991
   346   1      6.2749999999999915      31.374999999999986      36.394999999999989
   347   1      6.2749999999999915      32.629999999999988      37.649999999999991
   348   1      7.5299999999999905      31.374999999999986      37.649999999999991
   349   1      7.5299999999999905      32.629999999999988      36.394999999999989
   350   1      6.2749999999999915      31.374999999999986      38.904999999999987
   351   1      6.2749999999999915      32.629999999999988      40.159999999999989
   352   1      7.5299999999999905      31.374999999999986      40.159999999999989
   353   1      7.5299999999999905      32.629999999999988      38.904999999999987
   354   1      6.2749999999999915      31.374999999999986      41.414999999999985
   355   1      6.2749999999999915      32.629999999999988      42.669999999999987
   356   1      7.5299999999999905      31.374999999999986      42.669999999999987
   357   1      7.5299999999999905      32.629999999999988      41.414999999999985
   358   1      6.2749999999999915      31.374999999999986      43.924999999999983