model_files/Pd/Pd_30000/Pd_431/data.Pd_431_fcc_29685 (written by ASE) 

29685 	 atoms 
1  atom types
0.0                     108  xlo xhi
0.0                     108  ylo yhi
0.0                     108  zlo zhi


Atoms 

     1   1      1.9450000000000001                  48.625      54.459999999999994
     2   1                       0      52.514999999999993      52.514999999999993
     3   1      1.9450000000000001                   50.57      52.514999999999993
     4   1      1.9450000000000001      52.514999999999993                   50.57
     5   1                       0                   50.57      54.459999999999994
     6   1                       0      52.514999999999993      56.405000000000001
     7   1      1.9450000000000001                   50.57      56.405000000000001
     8   1      1.9450000000000001      52.514999999999993      54.459999999999994
     9   1      1.9450000000000001      52.514999999999993      58.349999999999994
    10   1      1.9450000000000001      54.459999999999994                  48.625
    11   1                       0      54.459999999999994                   50.57
    12   1                       0      56.405000000000001      52.514999999999993
    13   1      1.9450000000000001      54.459999999999994      52.514999999999993
    14   1      1.9450000000000001      56.405000000000001                   50.57
    15   1                       0      54.459999999999994      54.459999999999994
    16   1                       0      56.405000000000001      56.405000000000001
    17   1      1.9450000000000001      54.459999999999994      56.405000000000001
    18   1      1.9450000000000001      56.405000000000001      54.459999999999994
    19   1                       0      54.459999999999994      58.349999999999994
    20   1      1.9450000000000001      54.459999999999994      60.294999999999995
    21   1      1.9450000000000001      56.405000000000001      58.349999999999994
    22   1      1.9450000000000001      58.349999999999994      52.514999999999993
    23   1                       0      58.349999999999994      54.459999999999994
    24   1      1.9450000000000001      58.349999999999994      56.405000000000001
    25   1      1.9450000000000001      60.294999999999995      54.459999999999994
    26   1      5.8350000000000009      44.734999999999999                   50.57
    27   1      5.8350000000000009      44.734999999999999      54.459999999999994
    28   1      5.8350000000000009      44.734999999999999      58.349999999999994
    29   1      3.8900000000000001                  48.625                  48.625
    30   1      5.8350000000000009      46.679999999999993                  48.625
    31   1      5.8350000000000009                  48.625      46.679999999999993
    32   1      3.8900000000000001      46.679999999999993                   50.57
    33   1      3.8900000000000001                  48.625      52.514999999999993
    34   1      5.8350000000000009      46.679999999999993      52.514999999999993
    35   1      5.8350000000000009                  48.625                   50.57
    36   1      3.8900000000000001      46.679999999999993      54.459999999999994
    37   1      3.8900000000000001                  48.625      56.405000000000001
    38   1      5.8350000000000009      46.679999999999993      56.405000000000001
    39   1      5.8350000000000009                  48.625      54.459999999999994
    40   1      3.8900000000000001      46.679999999999993      58.349999999999994
    41   1      3.8900000000000001                  48.625      60.294999999999995
    42   1      5.8350000000000009      46.679999999999993      60.294999999999995
    43   1      5.8350000000000009                  48.625      58.349999999999994
    44   1      5.8350000000000009                  48.625      62.239999999999988
    45   1      5.8350000000000009                   50.57      44.734999999999999
    46   1      3.8900000000000001                   50.57      46.679999999999993
    47   1      3.8900000000000001      52.514999999999993                  48.625
    48   1      5.8350000000000009                   50.57                  48.625
    49   1      5.8350000000000009      52.514999999999993      46.679999999999993
    50   1      3.8900000000000001                   50.57                   50.57
    51   1      3.8900000000000001      52.514999999999993      52.514999999999993
    52   1      5.8350000000000009                   50.57      52.514999999999993
    53   1      5.8350000000000009      52.514999999999993                   50.57
    54   1      3.8900000000000001                   50.57      54.459999999999994
    55   1      3.8900000000000001      52.514999999999993      56.405000000000001
    56   1      5.8350000000000009                   50.57      56.405000000000001
    57   1      5.8350000000000009      52.514999999999993      54.459999999999994
    58   1      3.8900000000000001                   50.57      58.349999999999994
    59   1      3.8900000000000001      52.514999999999993      60.294999999999995
    60   1      5.8350000000000009                   50.57      60.294999999999995
    61   1      5.8350000000000009      52.514999999999993      58.349999999999994
    62   1      3.8900000000000001                   50.57      62.239999999999988
    63   1      5.8350000000000009                   50.57      64.184999999999988
    64   1      5.8350000000000009      52.514999999999993      62.239999999999988
    65   1      5.8350000000000009      54.459999999999994      44.734999999999999
    66   1      3.8900000000000001      54.459999999999994      46.679999999999993
    67   1      3.8900000000000001      56.405000000000001                  48.625
    68   1      5.8350000000000009      54.459999999999994                  48.625
    69   1      5.8350000000000009      56.405000000000001      46.679999999999993
    70   1      3.8900000000000001      54.459999999999994                   50.57
    71   1      3.8900000000000001      56.405000000000001      52.514999999999993
    72   1      5.8350000000000009      54.459999999999994      52.514999999999993
    73   1      5.8350000000000009      56.405000000000001                   50.57
    74   1      3.8900000000000001      54.459999999999994      54.459999999999994
    75   1      3.8900000000000001      56.405000000000001      56.405000000000001
    76   1      5.8350000000000009      54.459999999999994      56.405000000000001
    77   1      5.8350000000000009      56.405000000000001      54.459999999999994
    78   1      3.8900000000000001      54.459999999999994      58.349999999999994
    79   1      3.8900000000000001      56.405000000000001      60.294999999999995
    80   1      5.8350000000000009      54.459999999999994      60.294999999999995
    81   1      5.8350000000000009      56.405000000000001      58.349999999999994
    82   1      3.8900000000000001      54.459999999999994      62.239999999999988
    83   1      5.8350000000000009      54.459999999999994      64.184999999999988
    84   1      5.8350000000000009      56.405000000000001      62.239999999999988
    85   1      5.8350000000000009      58.349999999999994      44.734999999999999
    86   1      3.8900000000000001      58.349999999999994      46.679999999999993
    87   1      3.8900000000000001      60.294999999999995                  48.625
    88   1      5.8350000000000009      58.349999999999994                  48.625
    89   1      5.8350000000000009      60.294999999999995      46.679999999999993
    90   1      3.8900000000000001      58.349999999999994                   50.57
    91   1      3.8900000000000001      60.294999999999995      52.514999999999993
    92   1      5.8350000000000009      58.349999999999994      52.514999999999993
    93   1      5.8350000000000009      60.294999999999995                   50.57
    94   1      3.8900000000000001      58.349999999999994      54.459999999999994
    95   1      3.8900000000000001      60.294999999999995      56.405000000000001
    96   1      5.8350000000000009      58.349999999999994      56.405000000000001
    97   1      5.8350000000000009      60.294999999999995      54.459999999999994
    98   1      3.8900000000000001      58.349999999999994      58.349999999999994
    99   1      3.8900000000000001      60.294999999999995      60.294999999999995
   100   1      5.8350000000000009      58.349999999999994      60.294999999999995
   101   1      5.8350000000000009      60.294999999999995      58.349999999999994
   102   1      3.8900000000000001      58.349999999999994      62.239999999999988
   103   1      5.8350000000000009      58.349999999999994      64.184999999999988
   104   1      5.8350000000000009      60.294999999999995      62.239999999999988
   105   1      5.8350000000000009      62.239999999999988                  48.625
   106   1      3.8900000000000001      62.239999999999988                   50.57
   107   1      5.8350000000000009      62.239999999999988      52.514999999999993
   108   1      5.8350000000000009      64.184999999999988                   50.57
   109   1      3.8900000000000001      62.239999999999988      54.459999999999994
   110   1      5.8350000000000009      62.239999999999988      56.405000000000001
   111   1      5.8350000000000009      64.184999999999988      54.459999999999994
   112   1      3.8900000000000001      62.239999999999988      58.349999999999994
   113   1      5.8350000000000009      62.239999999999988      60.294999999999995
   114   1      5.8350000000000009      64.184999999999988      58.349999999999994
   115   1      9.7250000000000014      40.844999999999992      46.679999999999993
   116   1      7.7800000000000002      40.844999999999992      52.514999999999993
   117   1      9.7250000000000014      38.899999999999999      52.514999999999993
   118   1      9.7250000000000014      40.844999999999992                   50.57
   119   1      7.7800000000000002      40.844999999999992      56.405000000000001
   120   1      9.7250000000000014      38.899999999999999      56.405000000000001
   121   1      9.7250000000000014      40.844999999999992      54.459999999999994
   122   1      9.7250000000000014      40.844999999999992      58.349999999999994
   123   1      9.7250000000000014      40.844999999999992      62.239999999999988
   124   1      7.7800000000000002      44.734999999999999      44.734999999999999
   125   1      9.7250000000000014      42.789999999999999      44.734999999999999
   126   1      9.7250000000000014      44.734999999999999      42.789999999999999
   127   1      7.7800000000000002      42.789999999999999      46.679999999999993
   128   1      7.7800000000000002      44.734999999999999                  48.625
   129   1      9.7250000000000014      42.789999999999999                  48.625
   130   1      9.7250000000000014      44.734999999999999      46.679999999999993
   131   1      7.7800000000000002      42.789999999999999                   50.57
   132   1      7.7800000000000002      44.734999999999999      52.514999999999993
   133   1      9.7250000000000014      42.789999999999999      52.514999999999993
   134   1      9.7250000000000014      44.734999999999999                   50.57
   135   1      7.7800000000000002      42.789999999999999      54.459999999999994
   136   1      7.7800000000000002      44.734999999999999      56.405000000000001
   137   1      9.7250000000000014      42.789999999999999      56.405000000000001
   138   1      9.7250000000000014      44.734999999999999      54.459999999999994
   139   1      7.7800000000000002      42.789999999999999      58.349999999999994
   140   1      7.7800000000000002      44.734999999999999      60.294999999999995
   141   1      9.7250000000000014      42.789999999999999      60.294999999999995
   142   1      9.7250000000000014      44.734999999999999      58.349999999999994
   143   1      7.7800000000000002      42.789999999999999      62.239999999999988
   144   1      7.7800000000000002      44.734999999999999      64.184999999999988
   145   1      9.7250000000000014      42.789999999999999      64.184999999999988
   146   1      9.7250000000000014      44.734999999999999      62.239999999999988
   147   1      9.7250000000000014      44.734999999999999      66.129999999999995
   148   1      9.7250000000000014      46.679999999999993      40.844999999999992
   149   1      7.7800000000000002      46.679999999999993      42.789999999999999
   150   1      7.7800000000000002                  48.625      44.734999999999999
   151   1      9.7250000000000014      46.679999999999993      44.734999999999999
   152   1      9.7250000000000014                  48.625      42.789999999999999
   153   1      7.7800000000000002      46.679999999999993      46.679999999999993
   154   1      7.7800000000000002                  48.625                  48.625
   155   1      9.7250000000000014      46.679999999999993                  48.625
   156   1      9.7250000000000014                  48.625      46.679999999999993
   157   1      7.7800000000000002      46.679999999999993                   50.57
   158   1      7.7800000000000002                  48.625      52.514999999999993
   159   1      9.7250000000000014      46.679999999999993      52.514999999999993
   160   1      9.7250000000000014                  48.625                   50.57
   161   1      7.7800000000000002      46.679999999999993      54.459999999999994
   162   1      7.7800000000000002                  48.625      56.405000000000001
   163   1      9.7250000000000014      46.679999999999993      56.405000000000001
   164   1      9.7250000000000014                  48.625      54.459999999999994
   165   1      7.7800000000000002      46.679999999999993      58.349999999999994
   166   1      7.7800000000000002                  48.625      60.294999999999995
   167   1      9.7250000000000014      46.679999999999993      60.294999999999995
   168   1      9.7250000000000014                  48.625      58.349999999999994
   169   1      7.7800000000000002      46.679999999999993      62.239999999999988
   170   1      7.7800000000000002                  48.625      64.184999999999988
   171   1      9.7250000000000014      46.679999999999993      64.184999999999988
   172   1      9.7250000000000014                  48.625      62.239999999999988
   173   1      7.7800000000000002      46.679999999999993      66.129999999999995
   174   1      9.7250000000000014      46.679999999999993      68.074999999999989
   175   1      9.7250000000000014                  48.625      66.129999999999995
   176   1      7.7800000000000002      52.514999999999993      40.844999999999992
   177   1      9.7250000000000014                   50.57      40.844999999999992
   178   1      9.7250000000000014      52.514999999999993      38.899999999999999
   179   1      7.7800000000000002                   50.57      42.789999999999999
   180   1      7.7800000000000002      52.514999999999993      44.734999999999999
   181   1      9.7250000000000014                   50.57      44.734999999999999
   182   1      9.7250000000000014      52.514999999999993      42.789999999999999
   183   1      7.7800000000000002                   50.57      46.679999999999993
   184   1      7.7800000000000002      52.514999999999993                  48.625
   185   1      9.7250000000000014                   50.57                  48.625
   186   1      9.7250000000000014      52.514999999999993      46.679999999999993
   187   1      7.7800000000000002                   50.57                   50.57
   188   1      7.7800000000000002      52.514999999999993      52.514999999999993
   189   1      9.7250000000000014                   50.57      52.514999999999993
   190   1      9.7250000000000014      52.514999999999993                   50.57
   191   1      7.7800000000000002                   50.57      54.459999999999994
   192   1      7.7800000000000002      52.514999999999993      56.405000000000001
   193   1      9.7250000000000014                   50.57      56.405000000000001
   194   1      9.7250000000000014      52.514999999999993      54.459999999999994
   195   1      7.7800000000000002                   50.57      58.349999999999994
   196   1      7.7800000000000002      52.514999999999993      60.294999999999995
   197   1      9.7250000000000014                   50.57      60.294999999999995
   198   1      9.7250000000000014      52.514999999999993      58.349999999999994
   199   1      7.7800000000000002                   50.57      62.239999999999988
   200   1      7.7800000000000002      52.514999999999993      64.184999999999988
   201   1      9.7250000000000014                   50.57      64.184999999999988
   202   1      9.7250000000000014      52.514999999999993      62.239999999999988
   203   1      7.7800000000000002                   50.57      66.129999999999995
   204   1      7.7800000000000002      52.514999999999993      68.074999999999989
   205   1      9.7250000000000014                   50.57      68.074999999999989
   206   1      9.7250000000000014      52.514999999999993      66.129999999999995
   207   1      9.7250000000000014      52.514999999999993      70.019999999999982
   208   1      7.7800000000000002      56.405000000000001      40.844999999999992
   209   1      9.7250000000000014      54.459999999999994      40.844999999999992
   210   1      9.7250000000000014      56.405000000000001      38.899999999999999
   211   1      7.7800000000000002      54.459999999999994      42.789999999999999
   212   1      7.7800000000000002      56.405000000000001      44.734999999999999
   213   1      9.7250000000000014      54.459999999999994      44.734999999999999
   214   1      9.7250000000000014      56.405000000000001      42.789999999999999
   215   1      7.7800000000000002      54.459999999999994      46.679999999999993
   216   1      7.7800000000000002      56.405000000000001                  48.625
   217   1      9.7250000000000014      54.459999999999994                  48.625
   218   1      9.7250000000000014      56.405000000000001      46.679999999999993
   219   1      7.7800000000000002      54.459999999999994                   50.57
   220   1      7.7800000000000002      56.405000000000001      52.514999999999993
   221   1      9.7250000000000014      54.459999999999994      52.514999999999993
   222   1      9.7250000000000014      56.405000000000001                   50.57
   223   1      7.7800000000000002      54.459999999999994      54.459999999999994
   224   1      7.7800000000000002      56.405000000000001      56.405000000000001
   225   1      9.7250000000000014      54.459999999999994      56.405000000000001
   226   1      9.7250000000000014      56.405000000000001      54.459999999999994
   227   1      7.7800000000000002      54.459999999999994      58.349999999999994
   228   1      7.7800000000000002      56.405000000000001      60.294999999999995
   229   1      9.7250000000000014      54.459999999999994      60.294999999999995
   230   1      9.7250000000000014      56.405000000000001      58.349999999999994
   231   1      7.7800000000000002      54.459999999999994      62.239999999999988
   232   1      7.7800000000000002      56.405000000000001      64.184999999999988
   233   1      9.7250000000000014      54.459999999999994      64.184999999999988
   234   1      9.7250000000000014      56.405000000000001      62.239999999999988
   235   1      7.7800000000000002      54.459999999999994      66.129999999999995
   236   1      7.7800000000000002      56.405000000000001      68.074999999999989
   237   1      9.7250000000000014      54.459999999999994      68.074999999999989
   238   1      9.7250000000000014      56.405000000000001      66.129999999999995
   239   1      9.7250000000000014      56.405000000000001      70.019999999999982
   240   1      9.7250000000000014      58.349999999999994      40.844999999999992
   241   1      7.7800000000000002      58.349999999999994      42.789999999999999
   242   1      7.7800000000000002      60.294999999999995      44.734999999999999
   243   1      9.7250000000000014      58.349999999999994      44.734999999999999
   244   1      9.7250000000000014      60.294999999999995      42.789999999999999
   245   1      7.7800000000000002      58.349999999999994      46.679999999999993
   246   1      7.7800000000000002      60.294999999999995                  48.625
   247   1      9.7250000000000014      58.349999999999994                  48.625
   248   1      9.7250000000000014      60.294999999999995      46.679999999999993
   249   1      7.7800000000000002      58.349999999999994                   50.57
   250   1      7.7800000000000002      60.294999999999995      52.514999999999993
   251   1      9.7250000000000014      58.349999999999994      52.514999999999993
   252   1      9.7250000000000014      60.294999999999995                   50.57
   253   1      7.7800000000000002      58.349999999999994      54.459999999999994
   254   1      7.7800000000000002      60.294999999999995      56.405000000000001
   255   1      9.7250000000000014      58.349999999999994      56.405000000000001
   256   1      9.7250000000000014      60.294999999999995      54.459999999999994
   257   1      7.7800000000000002      58.349999999999994      58.349999999999994
   258   1      7.7800000000000002      60.294999999999995      60.294999999999995
   259   1      9.7250000000000014      58.349999999999994      60.294999999999995
   260   1      9.7250000000000014      60.294999999999995      58.349999999999994
   261   1      7.7800000000000002      58.349999999999994      62.239999999999988
   262   1      7.7800000000000002      60.294999999999995      64.184999999999988
   263   1      9.7250000000000014      58.349999999999994      64.184999999999988
   264   1      9.7250000000000014      60.294999999999995      62.239999999999988
   265   1      7.7800000000000002      58.349999999999994      66.129999999999995
   266   1      9.7250000000000014      58.349999999999994      68.074999999999989
   267   1      9.7250000000000014      60.294999999999995      66.129999999999995
   268   1      9.7250000000000014      62.239999999999988      40.844999999999992
   269   1      7.7800000000000002      62.239999999999988      42.789999999999999
   270   1      7.7800000000000002      64.184999999999988      44.734999999999999
   271   1      9.7250000000000014      62.239999999999988      44.734999999999999
   272   1      9.7250000000000014      64.184999999999988      42.789999999999999
   273   1      7.7800000000000002      62.239999999999988      46.679999999999993
   274   1      7.7800000000000002      64.184999999999988                  48.625
   275   1      9.7250000000000014      62.239999999999988                  48.625
   276   1      9.7250000000000014      64.184999999999988      46.679999999999993
   277   1      7.7800000000000002      62.239999999999988                   50.57
   278   1      7.7800000000000002      64.184999999999988      52.514999999999993
   279   1      9.7250000000000014      62.239999999999988      52.514999999999993
   280   1      9.7250000000000014      64.184999999999988                   50.57
   281   1      7.7800000000000002      62.239999999999988      54.459999999999994
   282   1      7.7800000000000002      64.184999999999988      56.405000000000001
   283   1      9.7250000000000014      62.239999999999988      56.405000000000001
   284   1      9.7250000000000014      64.184999999999988      54.459999999999994
   285   1      7.7800000000000002      62.239999999999988      58.349999999999994
   286   1      7.7800000000000002      64.184999999999988      60.294999999999995
   287   1      9.7250000000000014      62.239999999999988      60.294999999999995
   288   1      9.7250000000000014      64.184999999999988      58.349999999999994
   289   1      7.7800000000000002      62.239999999999988      62.239999999999988
   290   1      7.7800000000000002      64.184999999999988      64.184999999999988
   291   1      9.7250000000000014      62.239999999999988      64.184999999999988
   292   1      9.7250000000000014      64.184999999999988      62.239999999999988
   293   1      7.7800000000000002      62.239999999999988      66.129999999999995
   294   1      9.7250000000000014      62.239999999999988      68.074999999999989
   295   1      9.7250000000000014      64.184999999999988      66.129999999999995
   296   1      9.7250000000000014      66.129999999999995      44.734999999999999
   297   1      7.7800000000000002      66.129999999999995      46.679999999999993
   298   1      9.7250000000000014      66.129999999999995                  48.625
   299   1      9.7250000000000014      68.074999999999989      46.679999999999993
   300   1      7.7800000000000002      66.129999999999995                   50.57
   301   1      7.7800000000000002      68.074999999999989      52.514999999999993
   302   1      9.7250000000000014      66.129999999999995      52.514999999999993
   303   1      9.7250000000000014      68.074999999999989                   50.57
   304   1      7.7800000000000002      66.129999999999995      54.459999999999994
   305   1      7.7800000000000002      68.074999999999989      56.405000000000001
   306   1      9.7250000000000014      66.129999999999995      56.405000000000001
   307   1      9.7250000000000014      68.074999999999989      54.459999999999994
   308   1      7.7800000000000002      66.129999999999995      58.349999999999994
   309   1      9.7250000000000014      66.129999999999995      60.294999999999995
   310   1      9.7250000000000014      68.074999999999989      58.349999999999994
   311   1      7.7800000000000002      66.129999999999995      62.239999999999988
   312   1      9.7250000000000014      66.129999999999995      64.184999999999988
   313   1      9.7250000000000014      68.074999999999989      62.239999999999988
   314   1      9.7250000000000014      70.019999999999982      52.514999999999993
   315   1      9.7250000000000014      70.019999999999982      56.405000000000001
   316   1                  13.615      33.064999999999998      54.459999999999994
   317   1                  13.615      36.954999999999998      42.789999999999999
   318   1      11.670000000000002      36.954999999999998                  48.625
   319   1                  13.615      35.009999999999991                  48.625
   320   1                  13.615      36.954999999999998      46.679999999999993
   321   1      11.670000000000002      36.954999999999998      52.514999999999993
   322   1                  13.615      35.009999999999991      52.514999999999993
   323   1                  13.615      36.954999999999998                   50.57
   324   1      11.670000000000002      35.009999999999991      54.459999999999994
   325   1      11.670000000000002      36.954999999999998      56.405000000000001
   326   1                  13.615      35.009999999999991      56.405000000000001
   327   1                  13.615      36.954999999999998      54.459999999999994
   328   1      11.670000000000002      36.954999999999998      60.294999999999995
   329   1                  13.615      35.009999999999991      60.294999999999995
   330   1                  13.615      36.954999999999998      58.349999999999994
   331   1                  13.615      36.954999999999998      62.239999999999988
   332   1                  13.615      36.954999999999998      66.129999999999995
   333   1      11.670000000000002      40.844999999999992      40.844999999999992
   334   1                  13.615      38.899999999999999      40.844999999999992
   335   1                  13.615      40.844999999999992      38.899999999999999
   336   1      11.670000000000002      38.899999999999999      42.789999999999999
   337   1      11.670000000000002      40.844999999999992      44.734999999999999
   338   1                  13.615      38.899999999999999      44.734999999999999
   339   1                  13.615      40.844999999999992      42.789999999999999
   340   1      11.670000000000002      38.899999999999999      46.679999999999993
   341   1      11.670000000000002      40.844999999999992                  48.625
   342   1                  13.615      38.899999999999999                  48.625
   343   1                  13.615      40.844999999999992      46.679999999999993
   344   1      11.670000000000002      38.899999999999999                   50.57
   345   1      11.670000000000002      40.844999999999992      52.514999999999993
   346   1                  13.615      38.899999999999999      52.514999999999993
   347   1                  13.615      40.844999999999992                   50.57
   348   1      11.670000000000002      38.899999999999999      54.459999999999994
   349   1      11.670000000000002      40.844999999999992      56.405000000000001
   350   1                  13.615      38.899999999999999      56.405000000000001
   351   1                  13.615      40.844999999999992      54.459999999999994
   352   1      11.670000000000002      38.899999999999999      58.349999999999994
   353   1      11.670000000000002      40.844999999999992      60.294999999999995
   354   1                  13.615      38.899999999999999      60.294999999999995
   355   1                  13.615      40.844999999999992      58.349999999999994
   356   1      11.670000000000002      38.899999999999999      62.239999999999988
   357   1      11.670000000000002      40.844999999999992      64.184999999999988
   358   1                  13.615      38.899999999999999      64.184999999999988