model_files/Co/Co_3000/Co_310/data.Co_310_hcp_3111 (written by ASE) 

3111 	 atoms 
1  atom types
0.0                      27  xlo xhi
0.0                      27  ylo yhi
0.0                      27  zlo zhi


Atoms 

     1   1      1.2550000000000026      5.0200000000000014      6.2750000000000021
     2   1      1.2550000000000026      6.2750000000000021      5.0200000000000014
     3   1      1.2550000000000026      5.0200000000000014      8.7850000000000001
     4   1      1.2550000000000026      6.2750000000000021      7.5300000000000002
     5   1      1.2550000000000026      5.0200000000000014      11.295000000000002
     6   1      1.2550000000000026      6.2750000000000021      10.040000000000001
     7   1      1.2550000000000026      5.0200000000000014      13.804999999999998
     8   1      1.2550000000000026      6.2750000000000021      12.549999999999999
     9   1      1.2550000000000026      5.0200000000000014      16.315000000000001
    10   1      1.2550000000000026      6.2750000000000021                   15.06
    11   1      1.2550000000000026      5.0200000000000014      18.824999999999999
    12   1      1.2550000000000026      6.2750000000000021                   17.57
    13   1      1.2550000000000026      6.2750000000000021      20.079999999999998
    14   1      1.2550000000000026      7.5300000000000002      6.2750000000000021
    15   1      1.2550000000000026      8.7850000000000001      5.0200000000000014
    16   1  1.7763568394002505e-15      8.7850000000000001      8.7850000000000001
    17   1      1.2550000000000026      7.5300000000000002      8.7850000000000001
    18   1      1.2550000000000026      8.7850000000000001      7.5300000000000002
    19   1  1.7763568394002505e-15      8.7850000000000001      11.295000000000002
    20   1      1.2550000000000026      7.5300000000000002      11.295000000000002
    21   1      1.2550000000000026      8.7850000000000001      10.040000000000001
    22   1  1.7763568394002505e-15      8.7850000000000001      13.804999999999998
    23   1      1.2550000000000026      7.5300000000000002      13.804999999999998
    24   1      1.2550000000000026      8.7850000000000001      12.549999999999999
    25   1  1.7763568394002505e-15      8.7850000000000001      16.315000000000001
    26   1      1.2550000000000026      7.5300000000000002      16.315000000000001
    27   1      1.2550000000000026      8.7850000000000001                   15.06
    28   1      1.2550000000000026      7.5300000000000002      18.824999999999999
    29   1      1.2550000000000026      8.7850000000000001                   17.57
    30   1      1.2550000000000026      8.7850000000000001      20.079999999999998
    31   1      1.2550000000000026      10.040000000000001      6.2750000000000021
    32   1      1.2550000000000026      11.295000000000002      5.0200000000000014
    33   1  1.7763568394002505e-15      11.295000000000002      8.7850000000000001
    34   1      1.2550000000000026      10.040000000000001      8.7850000000000001
    35   1      1.2550000000000026      11.295000000000002      7.5300000000000002
    36   1  1.7763568394002505e-15      10.040000000000001      10.040000000000001
    37   1  1.7763568394002505e-15      11.295000000000002      11.295000000000002
    38   1      1.2550000000000026      10.040000000000001      11.295000000000002
    39   1      1.2550000000000026      11.295000000000002      10.040000000000001
    40   1  1.7763568394002505e-15      10.040000000000001      12.549999999999999
    41   1  1.7763568394002505e-15      11.295000000000002      13.804999999999998
    42   1      1.2550000000000026      10.040000000000001      13.804999999999998
    43   1      1.2550000000000026      11.295000000000002      12.549999999999999
    44   1  1.7763568394002505e-15      10.040000000000001                   15.06
    45   1  1.7763568394002505e-15      11.295000000000002      16.315000000000001
    46   1      1.2550000000000026      10.040000000000001      16.315000000000001
    47   1      1.2550000000000026      11.295000000000002                   15.06
    48   1      1.2550000000000026      10.040000000000001      18.824999999999999
    49   1      1.2550000000000026      11.295000000000002                   17.57
    50   1      1.2550000000000026      11.295000000000002      20.079999999999998
    51   1      1.2550000000000026      12.549999999999999      6.2750000000000021
    52   1      1.2550000000000026      13.804999999999998      5.0200000000000014
    53   1  1.7763568394002505e-15      13.804999999999998      8.7850000000000001
    54   1      1.2550000000000026      12.549999999999999      8.7850000000000001
    55   1      1.2550000000000026      13.804999999999998      7.5300000000000002
    56   1  1.7763568394002505e-15      12.549999999999999      10.040000000000001
    57   1  1.7763568394002505e-15      13.804999999999998      11.295000000000002
    58   1      1.2550000000000026      12.549999999999999      11.295000000000002
    59   1      1.2550000000000026      13.804999999999998      10.040000000000001
    60   1  1.7763568394002505e-15      12.549999999999999      12.549999999999999
    61   1  1.7763568394002505e-15      13.804999999999998      13.804999999999998
    62   1      1.2550000000000026      12.549999999999999      13.804999999999998
    63   1      1.2550000000000026      13.804999999999998      12.549999999999999
    64   1  1.7763568394002505e-15      12.549999999999999                   15.06
    65   1  1.7763568394002505e-15      13.804999999999998      16.315000000000001
    66   1      1.2550000000000026      12.549999999999999      16.315000000000001
    67   1      1.2550000000000026      13.804999999999998                   15.06
    68   1      1.2550000000000026      12.549999999999999      18.824999999999999
    69   1      1.2550000000000026      13.804999999999998                   17.57
    70   1      1.2550000000000026      13.804999999999998      20.079999999999998
    71   1      1.2550000000000026                   15.06      6.2750000000000021
    72   1      1.2550000000000026      16.315000000000001      5.0200000000000014
    73   1  1.7763568394002505e-15      16.315000000000001      8.7850000000000001
    74   1      1.2550000000000026                   15.06      8.7850000000000001
    75   1      1.2550000000000026      16.315000000000001      7.5300000000000002
    76   1  1.7763568394002505e-15                   15.06      10.040000000000001
    77   1  1.7763568394002505e-15      16.315000000000001      11.295000000000002
    78   1      1.2550000000000026                   15.06      11.295000000000002
    79   1      1.2550000000000026      16.315000000000001      10.040000000000001
    80   1  1.7763568394002505e-15                   15.06      12.549999999999999
    81   1  1.7763568394002505e-15      16.315000000000001      13.804999999999998
    82   1      1.2550000000000026                   15.06      13.804999999999998
    83   1      1.2550000000000026      16.315000000000001      12.549999999999999
    84   1  1.7763568394002505e-15                   15.06                   15.06
    85   1  1.7763568394002505e-15      16.315000000000001      16.315000000000001
    86   1      1.2550000000000026                   15.06      16.315000000000001
    87   1      1.2550000000000026      16.315000000000001                   15.06
    88   1      1.2550000000000026                   15.06      18.824999999999999
    89   1      1.2550000000000026      16.315000000000001                   17.57
    90   1      1.2550000000000026      16.315000000000001      20.079999999999998
    91   1      1.2550000000000026                   17.57      6.2750000000000021
    92   1      1.2550000000000026      18.824999999999999      5.0200000000000014
    93   1      1.2550000000000026                   17.57      8.7850000000000001
    94   1      1.2550000000000026      18.824999999999999      7.5300000000000002
    95   1      1.2550000000000026                   17.57      11.295000000000002
    96   1      1.2550000000000026      18.824999999999999      10.040000000000001
    97   1      1.2550000000000026                   17.57      13.804999999999998
    98   1      1.2550000000000026      18.824999999999999      12.549999999999999
    99   1      1.2550000000000026                   17.57      16.315000000000001
   100   1      1.2550000000000026      18.824999999999999                   15.06
   101   1      1.2550000000000026                   17.57      18.824999999999999
   102   1      1.2550000000000026      18.824999999999999                   17.57
   103   1      1.2550000000000026      18.824999999999999      20.079999999999998
   104   1      1.2550000000000026      20.079999999999998      6.2750000000000021
   105   1      1.2550000000000026      20.079999999999998      8.7850000000000001
   106   1      1.2550000000000026      20.079999999999998      11.295000000000002
   107   1      1.2550000000000026      20.079999999999998      13.804999999999998
   108   1      1.2550000000000026      20.079999999999998      16.315000000000001
   109   1      1.2550000000000026      20.079999999999998      18.824999999999999
   110   1      2.5100000000000011      2.5100000000000011      2.5100000000000011
   111   1      2.5100000000000011      3.7650000000000001      3.7650000000000001
   112   1      3.7650000000000001      2.5100000000000011      3.7650000000000001
   113   1      3.7650000000000001      3.7650000000000001      2.5100000000000011
   114   1      2.5100000000000011      2.5100000000000011      5.0200000000000014
   115   1      2.5100000000000011      3.7650000000000001      6.2750000000000021
   116   1      3.7650000000000001      2.5100000000000011      6.2750000000000021
   117   1      3.7650000000000001      3.7650000000000001      5.0200000000000014
   118   1      2.5100000000000011      2.5100000000000011      7.5300000000000002
   119   1      2.5100000000000011      3.7650000000000001      8.7850000000000001
   120   1      3.7650000000000001      2.5100000000000011      8.7850000000000001
   121   1      3.7650000000000001      3.7650000000000001      7.5300000000000002
   122   1      2.5100000000000011      2.5100000000000011      10.040000000000001
   123   1      2.5100000000000011      3.7650000000000001      11.295000000000002
   124   1      3.7650000000000001      2.5100000000000011      11.295000000000002
   125   1      3.7650000000000001      3.7650000000000001      10.040000000000001
   126   1      2.5100000000000011      2.5100000000000011      12.549999999999999
   127   1      2.5100000000000011      3.7650000000000001      13.804999999999998
   128   1      3.7650000000000001      2.5100000000000011      13.804999999999998
   129   1      3.7650000000000001      3.7650000000000001      12.549999999999999
   130   1      2.5100000000000011      2.5100000000000011                   15.06
   131   1      2.5100000000000011      3.7650000000000001      16.315000000000001
   132   1      3.7650000000000001      2.5100000000000011      16.315000000000001
   133   1      3.7650000000000001      3.7650000000000001                   15.06
   134   1      2.5100000000000011      2.5100000000000011                   17.57
   135   1      2.5100000000000011      3.7650000000000001      18.824999999999999
   136   1      3.7650000000000001      2.5100000000000011      18.824999999999999
   137   1      3.7650000000000001      3.7650000000000001                   17.57
   138   1      2.5100000000000011      2.5100000000000011      20.079999999999998
   139   1      2.5100000000000011      3.7650000000000001      21.334999999999994
   140   1      3.7650000000000001      2.5100000000000011      21.334999999999994
   141   1      3.7650000000000001      3.7650000000000001      20.079999999999998
   142   1      2.5100000000000011      2.5100000000000011                   22.59
   143   1      3.7650000000000001      3.7650000000000001                   22.59
   144   1      2.5100000000000011      5.0200000000000014      2.5100000000000011
   145   1      2.5100000000000011      6.2750000000000021      3.7650000000000001
   146   1      3.7650000000000001      5.0200000000000014      3.7650000000000001
   147   1      3.7650000000000001      6.2750000000000021      2.5100000000000011
   148   1      2.5100000000000011      5.0200000000000014      5.0200000000000014
   149   1      2.5100000000000011      6.2750000000000021      6.2750000000000021
   150   1      3.7650000000000001      5.0200000000000014      6.2750000000000021
   151   1      3.7650000000000001      6.2750000000000021      5.0200000000000014
   152   1      2.5100000000000011      5.0200000000000014      7.5300000000000002
   153   1      2.5100000000000011      6.2750000000000021      8.7850000000000001
   154   1      3.7650000000000001      5.0200000000000014      8.7850000000000001
   155   1      3.7650000000000001      6.2750000000000021      7.5300000000000002
   156   1      2.5100000000000011      5.0200000000000014      10.040000000000001
   157   1      2.5100000000000011      6.2750000000000021      11.295000000000002
   158   1      3.7650000000000001      5.0200000000000014      11.295000000000002
   159   1      3.7650000000000001      6.2750000000000021      10.040000000000001
   160   1      2.5100000000000011      5.0200000000000014      12.549999999999999
   161   1      2.5100000000000011      6.2750000000000021      13.804999999999998
   162   1      3.7650000000000001      5.0200000000000014      13.804999999999998
   163   1      3.7650000000000001      6.2750000000000021      12.549999999999999
   164   1      2.5100000000000011      5.0200000000000014                   15.06
   165   1      2.5100000000000011      6.2750000000000021      16.315000000000001
   166   1      3.7650000000000001      5.0200000000000014      16.315000000000001
   167   1      3.7650000000000001      6.2750000000000021                   15.06
   168   1      2.5100000000000011      5.0200000000000014                   17.57
   169   1      2.5100000000000011      6.2750000000000021      18.824999999999999
   170   1      3.7650000000000001      5.0200000000000014      18.824999999999999
   171   1      3.7650000000000001      6.2750000000000021                   17.57
   172   1      2.5100000000000011      5.0200000000000014      20.079999999999998
   173   1      2.5100000000000011      6.2750000000000021      21.334999999999994
   174   1      3.7650000000000001      5.0200000000000014      21.334999999999994
   175   1      3.7650000000000001      6.2750000000000021      20.079999999999998
   176   1      2.5100000000000011      5.0200000000000014                   22.59
   177   1      3.7650000000000001      6.2750000000000021                   22.59
   178   1      2.5100000000000011      7.5300000000000002      2.5100000000000011
   179   1      2.5100000000000011      8.7850000000000001      3.7650000000000001
   180   1      3.7650000000000001      7.5300000000000002      3.7650000000000001
   181   1      3.7650000000000001      8.7850000000000001      2.5100000000000011
   182   1      2.5100000000000011      7.5300000000000002      5.0200000000000014
   183   1      2.5100000000000011      8.7850000000000001      6.2750000000000021
   184   1      3.7650000000000001      7.5300000000000002      6.2750000000000021
   185   1      3.7650000000000001      8.7850000000000001      5.0200000000000014
   186   1      2.5100000000000011      7.5300000000000002      7.5300000000000002
   187   1      2.5100000000000011      8.7850000000000001      8.7850000000000001
   188   1      3.7650000000000001      7.5300000000000002      8.7850000000000001
   189   1      3.7650000000000001      8.7850000000000001      7.5300000000000002
   190   1      2.5100000000000011      7.5300000000000002      10.040000000000001
   191   1      2.5100000000000011      8.7850000000000001      11.295000000000002
   192   1      3.7650000000000001      7.5300000000000002      11.295000000000002
   193   1      3.7650000000000001      8.7850000000000001      10.040000000000001
   194   1      2.5100000000000011      7.5300000000000002      12.549999999999999
   195   1      2.5100000000000011      8.7850000000000001      13.804999999999998
   196   1      3.7650000000000001      7.5300000000000002      13.804999999999998
   197   1      3.7650000000000001      8.7850000000000001      12.549999999999999
   198   1      2.5100000000000011      7.5300000000000002                   15.06
   199   1      2.5100000000000011      8.7850000000000001      16.315000000000001
   200   1      3.7650000000000001      7.5300000000000002      16.315000000000001
   201   1      3.7650000000000001      8.7850000000000001                   15.06
   202   1      2.5100000000000011      7.5300000000000002                   17.57
   203   1      2.5100000000000011      8.7850000000000001      18.824999999999999
   204   1      3.7650000000000001      7.5300000000000002      18.824999999999999
   205   1      3.7650000000000001      8.7850000000000001                   17.57
   206   1      2.5100000000000011      7.5300000000000002      20.079999999999998
   207   1      2.5100000000000011      8.7850000000000001      21.334999999999994
   208   1      3.7650000000000001      7.5300000000000002      21.334999999999994
   209   1      3.7650000000000001      8.7850000000000001      20.079999999999998
   210   1      2.5100000000000011      7.5300000000000002                   22.59
   211   1      3.7650000000000001      8.7850000000000001                   22.59
   212   1      2.5100000000000011      10.040000000000001      2.5100000000000011
   213   1      2.5100000000000011      11.295000000000002      3.7650000000000001
   214   1      3.7650000000000001      10.040000000000001      3.7650000000000001
   215   1      3.7650000000000001      11.295000000000002      2.5100000000000011
   216   1      2.5100000000000011      10.040000000000001      5.0200000000000014
   217   1      2.5100000000000011      11.295000000000002      6.2750000000000021
   218   1      3.7650000000000001      10.040000000000001      6.2750000000000021
   219   1      3.7650000000000001      11.295000000000002      5.0200000000000014
   220   1      2.5100000000000011      10.040000000000001      7.5300000000000002
   221   1      2.5100000000000011      11.295000000000002      8.7850000000000001
   222   1      3.7650000000000001      10.040000000000001      8.7850000000000001
   223   1      3.7650000000000001      11.295000000000002      7.5300000000000002
   224   1      2.5100000000000011      10.040000000000001      10.040000000000001
   225   1      2.5100000000000011      11.295000000000002      11.295000000000002
   226   1      3.7650000000000001      10.040000000000001      11.295000000000002
   227   1      3.7650000000000001      11.295000000000002      10.040000000000001
   228   1      2.5100000000000011      10.040000000000001      12.549999999999999
   229   1      2.5100000000000011      11.295000000000002      13.804999999999998
   230   1      3.7650000000000001      10.040000000000001      13.804999999999998
   231   1      3.7650000000000001      11.295000000000002      12.549999999999999
   232   1      2.5100000000000011      10.040000000000001                   15.06
   233   1      2.5100000000000011      11.295000000000002      16.315000000000001
   234   1      3.7650000000000001      10.040000000000001      16.315000000000001
   235   1      3.7650000000000001      11.295000000000002                   15.06
   236   1      2.5100000000000011      10.040000000000001                   17.57
   237   1      2.5100000000000011      11.295000000000002      18.824999999999999
   238   1      3.7650000000000001      10.040000000000001      18.824999999999999
   239   1      3.7650000000000001      11.295000000000002                   17.57
   240   1      2.5100000000000011      10.040000000000001      20.079999999999998
   241   1      2.5100000000000011      11.295000000000002      21.334999999999994
   242   1      3.7650000000000001      10.040000000000001      21.334999999999994
   243   1      3.7650000000000001      11.295000000000002      20.079999999999998
   244   1      2.5100000000000011      10.040000000000001                   22.59
   245   1      3.7650000000000001      11.295000000000002                   22.59
   246   1      2.5100000000000011      12.549999999999999      2.5100000000000011
   247   1      2.5100000000000011      13.804999999999998      3.7650000000000001
   248   1      3.7650000000000001      12.549999999999999      3.7650000000000001
   249   1      3.7650000000000001      13.804999999999998      2.5100000000000011
   250   1      2.5100000000000011      12.549999999999999      5.0200000000000014
   251   1      2.5100000000000011      13.804999999999998      6.2750000000000021
   252   1      3.7650000000000001      12.549999999999999      6.2750000000000021
   253   1      3.7650000000000001      13.804999999999998      5.0200000000000014
   254   1      2.5100000000000011      12.549999999999999      7.5300000000000002
   255   1      2.5100000000000011      13.804999999999998      8.7850000000000001
   256   1      3.7650000000000001      12.549999999999999      8.7850000000000001
   257   1      3.7650000000000001      13.804999999999998      7.5300000000000002
   258   1      2.5100000000000011      12.549999999999999      10.040000000000001
   259   1      2.5100000000000011      13.804999999999998      11.295000000000002
   260   1      3.7650000000000001      12.549999999999999      11.295000000000002
   261   1      3.7650000000000001      13.804999999999998      10.040000000000001
   262   1      2.5100000000000011      12.549999999999999      12.549999999999999
   263   1      2.5100000000000011      13.804999999999998      13.804999999999998
   264   1      3.7650000000000001      12.549999999999999      13.804999999999998
   265   1      3.7650000000000001      13.804999999999998      12.549999999999999
   266   1      2.5100000000000011      12.549999999999999                   15.06
   267   1      2.5100000000000011      13.804999999999998      16.315000000000001
   268   1      3.7650000000000001      12.549999999999999      16.315000000000001
   269   1      3.7650000000000001      13.804999999999998                   15.06
   270   1      2.5100000000000011      12.549999999999999                   17.57
   271   1      2.5100000000000011      13.804999999999998      18.824999999999999
   272   1      3.7650000000000001      12.549999999999999      18.824999999999999
   273   1      3.7650000000000001      13.804999999999998                   17.57
   274   1      2.5100000000000011      12.549999999999999      20.079999999999998
   275   1      2.5100000000000011      13.804999999999998      21.334999999999994
   276   1      3.7650000000000001      12.549999999999999      21.334999999999994
   277   1      3.7650000000000001      13.804999999999998      20.079999999999998
   278   1      2.5100000000000011      12.549999999999999                   22.59
   279   1      3.7650000000000001      13.804999999999998                   22.59
   280   1      2.5100000000000011                   15.06      2.5100000000000011
   281   1      2.5100000000000011      16.315000000000001      3.7650000000000001
   282   1      3.7650000000000001                   15.06      3.7650000000000001
   283   1      3.7650000000000001      16.315000000000001      2.5100000000000011
   284   1      2.5100000000000011                   15.06      5.0200000000000014
   285   1      2.5100000000000011      16.315000000000001      6.2750000000000021
   286   1      3.7650000000000001                   15.06      6.2750000000000021
   287   1      3.7650000000000001      16.315000000000001      5.0200000000000014
   288   1      2.5100000000000011                   15.06      7.5300000000000002
   289   1      2.5100000000000011      16.315000000000001      8.7850000000000001
   290   1      3.7650000000000001                   15.06      8.7850000000000001
   291   1      3.7650000000000001      16.315000000000001      7.5300000000000002
   292   1      2.5100000000000011                   15.06      10.040000000000001
   293   1      2.5100000000000011      16.315000000000001      11.295000000000002
   294   1      3.7650000000000001                   15.06      11.295000000000002
   295   1      3.7650000000000001      16.315000000000001      10.040000000000001
   296   1      2.5100000000000011                   15.06      12.549999999999999
   297   1      2.5100000000000011      16.315000000000001      13.804999999999998
   298   1      3.7650000000000001                   15.06      13.804999999999998
   299   1      3.7650000000000001      16.315000000000001      12.549999999999999
   300   1      2.5100000000000011                   15.06                   15.06
   301   1      2.5100000000000011      16.315000000000001      16.315000000000001
   302   1      3.7650000000000001                   15.06      16.315000000000001
   303   1      3.7650000000000001      16.315000000000001                   15.06
   304   1      2.5100000000000011                   15.06                   17.57
   305   1      2.5100000000000011      16.315000000000001      18.824999999999999
   306   1      3.7650000000000001                   15.06      18.824999999999999
   307   1      3.7650000000000001      16.315000000000001                   17.57
   308   1      2.5100000000000011                   15.06      20.079999999999998
   309   1      2.5100000000000011      16.315000000000001      21.334999999999994
   310   1      3.7650000000000001                   15.06      21.334999999999994
   311   1      3.7650000000000001      16.315000000000001      20.079999999999998
   312   1      2.5100000000000011                   15.06                   22.59
   313   1      3.7650000000000001      16.315000000000001                   22.59
   314   1      2.5100000000000011                   17.57      2.5100000000000011
   315   1      2.5100000000000011      18.824999999999999      3.7650000000000001
   316   1      3.7650000000000001                   17.57      3.7650000000000001
   317   1      3.7650000000000001      18.824999999999999      2.5100000000000011
   318   1      2.5100000000000011                   17.57      5.0200000000000014
   319   1      2.5100000000000011      18.824999999999999      6.2750000000000021
   320   1      3.7650000000000001                   17.57      6.2750000000000021
   321   1      3.7650000000000001      18.824999999999999      5.0200000000000014
   322   1      2.5100000000000011                   17.57      7.5300000000000002
   323   1      2.5100000000000011      18.824999999999999      8.7850000000000001
   324   1      3.7650000000000001                   17.57      8.7850000000000001
   325   1      3.7650000000000001      18.824999999999999      7.5300000000000002
   326   1      2.5100000000000011                   17.57      10.040000000000001
   327   1      2.5100000000000011      18.824999999999999      11.295000000000002
   328   1      3.7650000000000001                   17.57      11.295000000000002
   329   1      3.7650000000000001      18.824999999999999      10.040000000000001
   330   1      2.5100000000000011                   17.57      12.549999999999999
   331   1      2.5100000000000011      18.824999999999999      13.804999999999998
   332   1      3.7650000000000001                   17.57      13.804999999999998
   333   1      3.7650000000000001      18.824999999999999      12.549999999999999
   334   1      2.5100000000000011                   17.57                   15.06
   335   1      2.5100000000000011      18.824999999999999      16.315000000000001
   336   1      3.7650000000000001                   17.57      16.315000000000001
   337   1      3.7650000000000001      18.824999999999999                   15.06
   338   1      2.5100000000000011                   17.57                   17.57
   339   1      2.5100000000000011      18.824999999999999      18.824999999999999
   340   1      3.7650000000000001                   17.57      18.824999999999999
   341   1      3.7650000000000001      18.824999999999999                   17.57
   342   1      2.5100000000000011                   17.57      20.079999999999998
   343   1      2.5100000000000011      18.824999999999999      21.334999999999994
   344   1      3.7650000000000001                   17.57      21.334999999999994
   345   1      3.7650000000000001      18.824999999999999      20.079999999999998
   346   1      2.5100000000000011                   17.57                   22.59
   347   1      3.7650000000000001      18.824999999999999                   22.59
   348   1      2.5100000000000011      20.079999999999998      2.5100000000000011
   349   1      2.5100000000000011      21.334999999999994      3.7650000000000001
   350   1      3.7650000000000001      20.079999999999998      3.7650000000000001
   351   1      3.7650000000000001      21.334999999999994      2.5100000000000011
   352   1      2.5100000000000011      20.079999999999998      5.0200000000000014
   353   1      2.5100000000000011      21.334999999999994      6.2750000000000021
   354   1      3.7650000000000001      20.079999999999998      6.2750000000000021
   355   1      3.7650000000000001      21.334999999999994      5.0200000000000014
   356   1      2.5100000000000011      20.079999999999998      7.5300000000000002
   357   1      2.5100000000000011      21.334999999999994      8.7850000000000001
   358   1      3.7650000000000001      20.079999999999998      8.7850000000000001