model_files/Fe/Fe_30000/Fe_542/data.Fe_542_bcc_29823 (written by ASE) 

29823 	 atoms 
1  atom types
0.0                      86  xlo xhi
0.0                      86  ylo yhi
0.0                      86  zlo zhi


Atoms 

     1   1      1.4349999999999952      41.614999999999995       43.04999999999999
     2   1      1.4349999999999952       43.04999999999999      41.614999999999995
     3   1      85.999999999999986       43.04999999999999       43.04999999999999
     4   1      1.4349999999999952       43.04999999999999      44.484999999999992
     5   1      1.4349999999999952      44.484999999999992       43.04999999999999
     6   1      2.8699999999999974       38.74499999999999      41.614999999999995
     7   1      4.3049999999999926      37.309999999999988      41.614999999999995
     8   1      4.3049999999999926       38.74499999999999      40.179999999999993
     9   1      2.8699999999999974       38.74499999999999      44.484999999999992
    10   1      4.3049999999999926      37.309999999999988      44.484999999999992
    11   1      4.3049999999999926       38.74499999999999       43.04999999999999
    12   1      4.3049999999999926       38.74499999999999      45.919999999999987
    13   1      2.8699999999999974      41.614999999999995       38.74499999999999
    14   1      4.3049999999999926      40.179999999999993       38.74499999999999
    15   1      4.3049999999999926      41.614999999999995      37.309999999999988
    16   1      2.8699999999999974      40.179999999999993      40.179999999999993
    17   1      2.8699999999999974      41.614999999999995      41.614999999999995
    18   1      4.3049999999999926      40.179999999999993      41.614999999999995
    19   1      4.3049999999999926      41.614999999999995      40.179999999999993
    20   1      2.8699999999999974      40.179999999999993       43.04999999999999
    21   1      2.8699999999999974      41.614999999999995      44.484999999999992
    22   1      4.3049999999999926      40.179999999999993      44.484999999999992
    23   1      4.3049999999999926      41.614999999999995       43.04999999999999
    24   1      2.8699999999999974      40.179999999999993      45.919999999999987
    25   1      2.8699999999999974      41.614999999999995      47.354999999999983
    26   1      4.3049999999999926      40.179999999999993      47.354999999999983
    27   1      4.3049999999999926      41.614999999999995      45.919999999999987
    28   1      4.3049999999999926      41.614999999999995      48.789999999999992
    29   1      2.8699999999999974      44.484999999999992       38.74499999999999
    30   1      4.3049999999999926       43.04999999999999       38.74499999999999
    31   1      4.3049999999999926      44.484999999999992      37.309999999999988
    32   1      2.8699999999999974       43.04999999999999      40.179999999999993
    33   1      2.8699999999999974      44.484999999999992      41.614999999999995
    34   1      4.3049999999999926       43.04999999999999      41.614999999999995
    35   1      4.3049999999999926      44.484999999999992      40.179999999999993
    36   1      2.8699999999999974       43.04999999999999       43.04999999999999
    37   1      2.8699999999999974      44.484999999999992      44.484999999999992
    38   1      4.3049999999999926       43.04999999999999      44.484999999999992
    39   1      4.3049999999999926      44.484999999999992       43.04999999999999
    40   1      2.8699999999999974       43.04999999999999      45.919999999999987
    41   1      2.8699999999999974      44.484999999999992      47.354999999999983
    42   1      4.3049999999999926       43.04999999999999      47.354999999999983
    43   1      4.3049999999999926      44.484999999999992      45.919999999999987
    44   1      4.3049999999999926      44.484999999999992      48.789999999999992
    45   1      4.3049999999999926      45.919999999999987       38.74499999999999
    46   1      2.8699999999999974      45.919999999999987      40.179999999999993
    47   1      2.8699999999999974      47.354999999999983      41.614999999999995
    48   1      4.3049999999999926      45.919999999999987      41.614999999999995
    49   1      4.3049999999999926      47.354999999999983      40.179999999999993
    50   1      2.8699999999999974      45.919999999999987       43.04999999999999
    51   1      2.8699999999999974      47.354999999999983      44.484999999999992
    52   1      4.3049999999999926      45.919999999999987      44.484999999999992
    53   1      4.3049999999999926      47.354999999999983       43.04999999999999
    54   1      2.8699999999999974      45.919999999999987      45.919999999999987
    55   1      4.3049999999999926      45.919999999999987      47.354999999999983
    56   1      4.3049999999999926      47.354999999999983      45.919999999999987
    57   1      4.3049999999999926      48.789999999999992      41.614999999999995
    58   1      4.3049999999999926      48.789999999999992      44.484999999999992
    59   1      7.1749999999999972      33.004999999999995       43.04999999999999
    60   1      7.1749999999999972      35.874999999999993      37.309999999999988
    61   1      5.7399999999999949      35.874999999999993      41.614999999999995
    62   1      7.1749999999999972      34.439999999999991      41.614999999999995
    63   1      7.1749999999999972      35.874999999999993      40.179999999999993
    64   1      5.7399999999999949      34.439999999999991       43.04999999999999
    65   1      5.7399999999999949      35.874999999999993      44.484999999999992
    66   1      7.1749999999999972      34.439999999999991      44.484999999999992
    67   1      7.1749999999999972      35.874999999999993       43.04999999999999
    68   1      7.1749999999999972      35.874999999999993      45.919999999999987
    69   1      7.1749999999999972      35.874999999999993      48.789999999999992
    70   1      7.1749999999999972      37.309999999999988      35.874999999999993
    71   1      5.7399999999999949      37.309999999999988      37.309999999999988
    72   1      5.7399999999999949       38.74499999999999       38.74499999999999
    73   1      7.1749999999999972      37.309999999999988       38.74499999999999
    74   1      7.1749999999999972       38.74499999999999      37.309999999999988
    75   1      5.7399999999999949      37.309999999999988      40.179999999999993
    76   1      5.7399999999999949       38.74499999999999      41.614999999999995
    77   1      7.1749999999999972      37.309999999999988      41.614999999999995
    78   1      7.1749999999999972       38.74499999999999      40.179999999999993
    79   1      5.7399999999999949      37.309999999999988       43.04999999999999
    80   1      5.7399999999999949       38.74499999999999      44.484999999999992
    81   1      7.1749999999999972      37.309999999999988      44.484999999999992
    82   1      7.1749999999999972       38.74499999999999       43.04999999999999
    83   1      5.7399999999999949      37.309999999999988      45.919999999999987
    84   1      5.7399999999999949       38.74499999999999      47.354999999999983
    85   1      7.1749999999999972      37.309999999999988      47.354999999999983
    86   1      7.1749999999999972       38.74499999999999      45.919999999999987
    87   1      5.7399999999999949      37.309999999999988      48.789999999999992
    88   1      7.1749999999999972      37.309999999999988      50.224999999999994
    89   1      7.1749999999999972       38.74499999999999      48.789999999999992
    90   1      5.7399999999999949      41.614999999999995      35.874999999999993
    91   1      7.1749999999999972      40.179999999999993      35.874999999999993
    92   1      7.1749999999999972      41.614999999999995      34.439999999999991
    93   1      5.7399999999999949      40.179999999999993      37.309999999999988
    94   1      5.7399999999999949      41.614999999999995       38.74499999999999
    95   1      7.1749999999999972      40.179999999999993       38.74499999999999
    96   1      7.1749999999999972      41.614999999999995      37.309999999999988
    97   1      5.7399999999999949      40.179999999999993      40.179999999999993
    98   1      5.7399999999999949      41.614999999999995      41.614999999999995
    99   1      7.1749999999999972      40.179999999999993      41.614999999999995
   100   1      7.1749999999999972      41.614999999999995      40.179999999999993
   101   1      5.7399999999999949      40.179999999999993       43.04999999999999
   102   1      5.7399999999999949      41.614999999999995      44.484999999999992
   103   1      7.1749999999999972      40.179999999999993      44.484999999999992
   104   1      7.1749999999999972      41.614999999999995       43.04999999999999
   105   1      5.7399999999999949      40.179999999999993      45.919999999999987
   106   1      5.7399999999999949      41.614999999999995      47.354999999999983
   107   1      7.1749999999999972      40.179999999999993      47.354999999999983
   108   1      7.1749999999999972      41.614999999999995      45.919999999999987
   109   1      5.7399999999999949      40.179999999999993      48.789999999999992
   110   1      5.7399999999999949      41.614999999999995      50.224999999999994
   111   1      7.1749999999999972      40.179999999999993      50.224999999999994
   112   1      7.1749999999999972      41.614999999999995      48.789999999999992
   113   1      7.1749999999999972      41.614999999999995      51.659999999999989
   114   1      7.1749999999999972       43.04999999999999      33.004999999999995
   115   1      5.7399999999999949       43.04999999999999      34.439999999999991
   116   1      5.7399999999999949      44.484999999999992      35.874999999999993
   117   1      7.1749999999999972       43.04999999999999      35.874999999999993
   118   1      7.1749999999999972      44.484999999999992      34.439999999999991
   119   1      5.7399999999999949       43.04999999999999      37.309999999999988
   120   1      5.7399999999999949      44.484999999999992       38.74499999999999
   121   1      7.1749999999999972       43.04999999999999       38.74499999999999
   122   1      7.1749999999999972      44.484999999999992      37.309999999999988
   123   1      5.7399999999999949       43.04999999999999      40.179999999999993
   124   1      5.7399999999999949      44.484999999999992      41.614999999999995
   125   1      7.1749999999999972       43.04999999999999      41.614999999999995
   126   1      7.1749999999999972      44.484999999999992      40.179999999999993
   127   1      5.7399999999999949       43.04999999999999       43.04999999999999
   128   1      5.7399999999999949      44.484999999999992      44.484999999999992
   129   1      7.1749999999999972       43.04999999999999      44.484999999999992
   130   1      7.1749999999999972      44.484999999999992       43.04999999999999
   131   1      5.7399999999999949       43.04999999999999      45.919999999999987
   132   1      5.7399999999999949      44.484999999999992      47.354999999999983
   133   1      7.1749999999999972       43.04999999999999      47.354999999999983
   134   1      7.1749999999999972      44.484999999999992      45.919999999999987
   135   1      5.7399999999999949       43.04999999999999      48.789999999999992
   136   1      5.7399999999999949      44.484999999999992      50.224999999999994
   137   1      7.1749999999999972       43.04999999999999      50.224999999999994
   138   1      7.1749999999999972      44.484999999999992      48.789999999999992
   139   1      5.7399999999999949       43.04999999999999      51.659999999999989
   140   1      7.1749999999999972       43.04999999999999      53.094999999999985
   141   1      7.1749999999999972      44.484999999999992      51.659999999999989
   142   1      7.1749999999999972      45.919999999999987      35.874999999999993
   143   1      5.7399999999999949      45.919999999999987      37.309999999999988
   144   1      5.7399999999999949      47.354999999999983       38.74499999999999
   145   1      7.1749999999999972      45.919999999999987       38.74499999999999
   146   1      7.1749999999999972      47.354999999999983      37.309999999999988
   147   1      5.7399999999999949      45.919999999999987      40.179999999999993
   148   1      5.7399999999999949      47.354999999999983      41.614999999999995
   149   1      7.1749999999999972      45.919999999999987      41.614999999999995
   150   1      7.1749999999999972      47.354999999999983      40.179999999999993
   151   1      5.7399999999999949      45.919999999999987       43.04999999999999
   152   1      5.7399999999999949      47.354999999999983      44.484999999999992
   153   1      7.1749999999999972      45.919999999999987      44.484999999999992
   154   1      7.1749999999999972      47.354999999999983       43.04999999999999
   155   1      5.7399999999999949      45.919999999999987      45.919999999999987
   156   1      5.7399999999999949      47.354999999999983      47.354999999999983
   157   1      7.1749999999999972      45.919999999999987      47.354999999999983
   158   1      7.1749999999999972      47.354999999999983      45.919999999999987
   159   1      5.7399999999999949      45.919999999999987      48.789999999999992
   160   1      7.1749999999999972      45.919999999999987      50.224999999999994
   161   1      7.1749999999999972      47.354999999999983      48.789999999999992
   162   1      7.1749999999999972      48.789999999999992      35.874999999999993
   163   1      5.7399999999999949      48.789999999999992      37.309999999999988
   164   1      7.1749999999999972      48.789999999999992       38.74499999999999
   165   1      7.1749999999999972      50.224999999999994      37.309999999999988
   166   1      5.7399999999999949      48.789999999999992      40.179999999999993
   167   1      5.7399999999999949      50.224999999999994      41.614999999999995
   168   1      7.1749999999999972      48.789999999999992      41.614999999999995
   169   1      7.1749999999999972      50.224999999999994      40.179999999999993
   170   1      5.7399999999999949      48.789999999999992       43.04999999999999
   171   1      5.7399999999999949      50.224999999999994      44.484999999999992
   172   1      7.1749999999999972      48.789999999999992      44.484999999999992
   173   1      7.1749999999999972      50.224999999999994       43.04999999999999
   174   1      5.7399999999999949      48.789999999999992      45.919999999999987
   175   1      7.1749999999999972      48.789999999999992      47.354999999999983
   176   1      7.1749999999999972      50.224999999999994      45.919999999999987
   177   1      5.7399999999999949      48.789999999999992      48.789999999999992
   178   1      7.1749999999999972      48.789999999999992      50.224999999999994
   179   1      7.1749999999999972      50.224999999999994      48.789999999999992
   180   1      7.1749999999999972      51.659999999999989      41.614999999999995
   181   1      5.7399999999999949      51.659999999999989       43.04999999999999
   182   1      7.1749999999999972      51.659999999999989      44.484999999999992
   183   1      7.1749999999999972      53.094999999999985       43.04999999999999
   184   1      10.044999999999995      30.134999999999987       43.04999999999999
   185   1      8.6099999999999923      33.004999999999995       38.74499999999999
   186   1      10.044999999999995      31.569999999999993       38.74499999999999
   187   1      10.044999999999995      33.004999999999995      37.309999999999988
   188   1      8.6099999999999923      33.004999999999995      41.614999999999995
   189   1      10.044999999999995      31.569999999999993      41.614999999999995
   190   1      10.044999999999995      33.004999999999995      40.179999999999993
   191   1      8.6099999999999923      31.569999999999993       43.04999999999999
   192   1      8.6099999999999923      33.004999999999995      44.484999999999992
   193   1      10.044999999999995      31.569999999999993      44.484999999999992
   194   1      10.044999999999995      33.004999999999995       43.04999999999999
   195   1      8.6099999999999923      33.004999999999995      47.354999999999983
   196   1      10.044999999999995      31.569999999999993      47.354999999999983
   197   1      10.044999999999995      33.004999999999995      45.919999999999987
   198   1      10.044999999999995      33.004999999999995      48.789999999999992
   199   1      8.6099999999999923      35.874999999999993      35.874999999999993
   200   1      10.044999999999995      34.439999999999991      35.874999999999993
   201   1      10.044999999999995      35.874999999999993      34.439999999999991
   202   1      8.6099999999999923      34.439999999999991      37.309999999999988
   203   1      8.6099999999999923      35.874999999999993       38.74499999999999
   204   1      10.044999999999995      34.439999999999991       38.74499999999999
   205   1      10.044999999999995      35.874999999999993      37.309999999999988
   206   1      8.6099999999999923      34.439999999999991      40.179999999999993
   207   1      8.6099999999999923      35.874999999999993      41.614999999999995
   208   1      10.044999999999995      34.439999999999991      41.614999999999995
   209   1      10.044999999999995      35.874999999999993      40.179999999999993
   210   1      8.6099999999999923      34.439999999999991       43.04999999999999
   211   1      8.6099999999999923      35.874999999999993      44.484999999999992
   212   1      10.044999999999995      34.439999999999991      44.484999999999992
   213   1      10.044999999999995      35.874999999999993       43.04999999999999
   214   1      8.6099999999999923      34.439999999999991      45.919999999999987
   215   1      8.6099999999999923      35.874999999999993      47.354999999999983
   216   1      10.044999999999995      34.439999999999991      47.354999999999983
   217   1      10.044999999999995      35.874999999999993      45.919999999999987
   218   1      8.6099999999999923      34.439999999999991      48.789999999999992
   219   1      8.6099999999999923      35.874999999999993      50.224999999999994
   220   1      10.044999999999995      34.439999999999991      50.224999999999994
   221   1      10.044999999999995      35.874999999999993      48.789999999999992
   222   1      10.044999999999995      35.874999999999993      51.659999999999989
   223   1      8.6099999999999923       38.74499999999999      33.004999999999995
   224   1      10.044999999999995      37.309999999999988      33.004999999999995
   225   1      10.044999999999995       38.74499999999999      31.569999999999993
   226   1      8.6099999999999923      37.309999999999988      34.439999999999991
   227   1      8.6099999999999923       38.74499999999999      35.874999999999993
   228   1      10.044999999999995      37.309999999999988      35.874999999999993
   229   1      10.044999999999995       38.74499999999999      34.439999999999991
   230   1      8.6099999999999923      37.309999999999988      37.309999999999988
   231   1      8.6099999999999923       38.74499999999999       38.74499999999999
   232   1      10.044999999999995      37.309999999999988       38.74499999999999
   233   1      10.044999999999995       38.74499999999999      37.309999999999988
   234   1      8.6099999999999923      37.309999999999988      40.179999999999993
   235   1      8.6099999999999923       38.74499999999999      41.614999999999995
   236   1      10.044999999999995      37.309999999999988      41.614999999999995
   237   1      10.044999999999995       38.74499999999999      40.179999999999993
   238   1      8.6099999999999923      37.309999999999988       43.04999999999999
   239   1      8.6099999999999923       38.74499999999999      44.484999999999992
   240   1      10.044999999999995      37.309999999999988      44.484999999999992
   241   1      10.044999999999995       38.74499999999999       43.04999999999999
   242   1      8.6099999999999923      37.309999999999988      45.919999999999987
   243   1      8.6099999999999923       38.74499999999999      47.354999999999983
   244   1      10.044999999999995      37.309999999999988      47.354999999999983
   245   1      10.044999999999995       38.74499999999999      45.919999999999987
   246   1      8.6099999999999923      37.309999999999988      48.789999999999992
   247   1      8.6099999999999923       38.74499999999999      50.224999999999994
   248   1      10.044999999999995      37.309999999999988      50.224999999999994
   249   1      10.044999999999995       38.74499999999999      48.789999999999992
   250   1      8.6099999999999923      37.309999999999988      51.659999999999989
   251   1      8.6099999999999923       38.74499999999999      53.094999999999985
   252   1      10.044999999999995      37.309999999999988      53.094999999999985
   253   1      10.044999999999995       38.74499999999999      51.659999999999989
   254   1      10.044999999999995       38.74499999999999      54.529999999999987
   255   1      8.6099999999999923      41.614999999999995      33.004999999999995
   256   1      10.044999999999995      40.179999999999993      33.004999999999995
   257   1      10.044999999999995      41.614999999999995      31.569999999999993
   258   1      8.6099999999999923      40.179999999999993      34.439999999999991
   259   1      8.6099999999999923      41.614999999999995      35.874999999999993
   260   1      10.044999999999995      40.179999999999993      35.874999999999993
   261   1      10.044999999999995      41.614999999999995      34.439999999999991
   262   1      8.6099999999999923      40.179999999999993      37.309999999999988
   263   1      8.6099999999999923      41.614999999999995       38.74499999999999
   264   1      10.044999999999995      40.179999999999993       38.74499999999999
   265   1      10.044999999999995      41.614999999999995      37.309999999999988
   266   1      8.6099999999999923      40.179999999999993      40.179999999999993
   267   1      8.6099999999999923      41.614999999999995      41.614999999999995
   268   1      10.044999999999995      40.179999999999993      41.614999999999995
   269   1      10.044999999999995      41.614999999999995      40.179999999999993
   270   1      8.6099999999999923      40.179999999999993       43.04999999999999
   271   1      8.6099999999999923      41.614999999999995      44.484999999999992
   272   1      10.044999999999995      40.179999999999993      44.484999999999992
   273   1      10.044999999999995      41.614999999999995       43.04999999999999
   274   1      8.6099999999999923      40.179999999999993      45.919999999999987
   275   1      8.6099999999999923      41.614999999999995      47.354999999999983
   276   1      10.044999999999995      40.179999999999993      47.354999999999983
   277   1      10.044999999999995      41.614999999999995      45.919999999999987
   278   1      8.6099999999999923      40.179999999999993      48.789999999999992
   279   1      8.6099999999999923      41.614999999999995      50.224999999999994
   280   1      10.044999999999995      40.179999999999993      50.224999999999994
   281   1      10.044999999999995      41.614999999999995      48.789999999999992
   282   1      8.6099999999999923      40.179999999999993      51.659999999999989
   283   1      8.6099999999999923      41.614999999999995      53.094999999999985
   284   1      10.044999999999995      40.179999999999993      53.094999999999985
   285   1      10.044999999999995      41.614999999999995      51.659999999999989
   286   1      10.044999999999995      41.614999999999995      54.529999999999987
   287   1      10.044999999999995       43.04999999999999      30.134999999999987
   288   1      8.6099999999999923       43.04999999999999      31.569999999999993
   289   1      8.6099999999999923      44.484999999999992      33.004999999999995
   290   1      10.044999999999995       43.04999999999999      33.004999999999995
   291   1      10.044999999999995      44.484999999999992      31.569999999999993
   292   1      8.6099999999999923       43.04999999999999      34.439999999999991
   293   1      8.6099999999999923      44.484999999999992      35.874999999999993
   294   1      10.044999999999995       43.04999999999999      35.874999999999993
   295   1      10.044999999999995      44.484999999999992      34.439999999999991
   296   1      8.6099999999999923       43.04999999999999      37.309999999999988
   297   1      8.6099999999999923      44.484999999999992       38.74499999999999
   298   1      10.044999999999995       43.04999999999999       38.74499999999999
   299   1      10.044999999999995      44.484999999999992      37.309999999999988
   300   1      8.6099999999999923       43.04999999999999      40.179999999999993
   301   1      8.6099999999999923      44.484999999999992      41.614999999999995
   302   1      10.044999999999995       43.04999999999999      41.614999999999995
   303   1      10.044999999999995      44.484999999999992      40.179999999999993
   304   1      8.6099999999999923       43.04999999999999       43.04999999999999
   305   1      8.6099999999999923      44.484999999999992      44.484999999999992
   306   1      10.044999999999995       43.04999999999999      44.484999999999992
   307   1      10.044999999999995      44.484999999999992       43.04999999999999
   308   1      8.6099999999999923       43.04999999999999      45.919999999999987
   309   1      8.6099999999999923      44.484999999999992      47.354999999999983
   310   1      10.044999999999995       43.04999999999999      47.354999999999983
   311   1      10.044999999999995      44.484999999999992      45.919999999999987
   312   1      8.6099999999999923       43.04999999999999      48.789999999999992
   313   1      8.6099999999999923      44.484999999999992      50.224999999999994
   314   1      10.044999999999995       43.04999999999999      50.224999999999994
   315   1      10.044999999999995      44.484999999999992      48.789999999999992
   316   1      8.6099999999999923       43.04999999999999      51.659999999999989
   317   1      8.6099999999999923      44.484999999999992      53.094999999999985
   318   1      10.044999999999995       43.04999999999999      53.094999999999985
   319   1      10.044999999999995      44.484999999999992      51.659999999999989
   320   1      8.6099999999999923       43.04999999999999      54.529999999999987
   321   1      10.044999999999995       43.04999999999999      55.964999999999989
   322   1      10.044999999999995      44.484999999999992      54.529999999999987
   323   1      8.6099999999999923      47.354999999999983      33.004999999999995
   324   1      10.044999999999995      45.919999999999987      33.004999999999995
   325   1      10.044999999999995      47.354999999999983      31.569999999999993
   326   1      8.6099999999999923      45.919999999999987      34.439999999999991
   327   1      8.6099999999999923      47.354999999999983      35.874999999999993
   328   1      10.044999999999995      45.919999999999987      35.874999999999993
   329   1      10.044999999999995      47.354999999999983      34.439999999999991
   330   1      8.6099999999999923      45.919999999999987      37.309999999999988
   331   1      8.6099999999999923      47.354999999999983       38.74499999999999
   332   1      10.044999999999995      45.919999999999987       38.74499999999999
   333   1      10.044999999999995      47.354999999999983      37.309999999999988
   334   1      8.6099999999999923      45.919999999999987      40.179999999999993
   335   1      8.6099999999999923      47.354999999999983      41.614999999999995
   336   1      10.044999999999995      45.919999999999987      41.614999999999995
   337   1      10.044999999999995      47.354999999999983      40.179999999999993
   338   1      8.6099999999999923      45.919999999999987       43.04999999999999
   339   1      8.6099999999999923      47.354999999999983      44.484999999999992
   340   1      10.044999999999995      45.919999999999987      44.484999999999992
   341   1      10.044999999999995      47.354999999999983       43.04999999999999
   342   1      8.6099999999999923      45.919999999999987      45.919999999999987
   343   1      8.6099999999999923      47.354999999999983      47.354999999999983
   344   1      10.044999999999995      45.919999999999987      47.354999999999983
   345   1      10.044999999999995      47.354999999999983      45.919999999999987
   346   1      8.6099999999999923      45.919999999999987      48.789999999999992
   347   1      8.6099999999999923      47.354999999999983      50.224999999999994
   348   1      10.044999999999995      45.919999999999987      50.224999999999994
   349   1      10.044999999999995      47.354999999999983      48.789999999999992
   350   1      8.6099999999999923      45.919999999999987      51.659999999999989
   351   1      8.6099999999999923      47.354999999999983      53.094999999999985
   352   1      10.044999999999995      45.919999999999987      53.094999999999985
   353   1      10.044999999999995      47.354999999999983      51.659999999999989
   354   1      10.044999999999995      47.354999999999983      54.529999999999987
   355   1      10.044999999999995      48.789999999999992      33.004999999999995
   356   1      8.6099999999999923      48.789999999999992      34.439999999999991
   357   1      8.6099999999999923      50.224999999999994      35.874999999999993
   358   1      10.044999999999995      48.789999999999992      35.874999999999993