model_files/Au/Au_30000/Au_511/data.Au_511_fcc_30527 (written by ASE) 

30527 	 atoms 
1  atom types
0.0                      95  xlo xhi
0.0                      95  ylo yhi
0.0                      95  zlo zhi


Atoms 

     1   1  7.1054273576010019e-15       44.88000000000001      46.920000000000009
     2   1  7.1054273576010019e-15      46.920000000000009       44.88000000000001
     3   1  7.1054273576010019e-15      46.920000000000009      48.960000000000008
     4   1  7.1054273576010019e-15      48.960000000000008      46.920000000000009
     5   1      4.0800000000000054      24.480000000000004      46.920000000000009
     6   1      4.0800000000000054       26.52000000000001       44.88000000000001
     7   1      4.0800000000000054      28.560000000000009      42.840000000000011
     8   1      4.0800000000000054       26.52000000000001      48.960000000000008
     9   1      4.0800000000000054      28.560000000000009      46.920000000000009
    10   1      4.0800000000000054      28.560000000000009      51.000000000000014
    11   1      4.0800000000000054      30.600000000000009      40.800000000000004
    12   1      4.0800000000000054      32.640000000000008      38.760000000000005
    13   1      4.0800000000000054      30.600000000000009       44.88000000000001
    14   1      4.0800000000000054      32.640000000000008      42.840000000000011
    15   1      4.0800000000000054      30.600000000000009      48.960000000000008
    16   1      4.0800000000000054      32.640000000000008      46.920000000000009
    17   1      4.0800000000000054      30.600000000000009      53.039999999999999
    18   1      4.0800000000000054      32.640000000000008      51.000000000000014
    19   1      4.0800000000000054      32.640000000000008      55.080000000000013
    20   1      4.0800000000000054      34.680000000000007      36.720000000000006
    21   1      4.0800000000000054      36.720000000000006      34.680000000000007
    22   1      4.0800000000000054      34.680000000000007      40.800000000000004
    23   1      4.0800000000000054      36.720000000000006      38.760000000000005
    24   1      2.0400000000000063      36.720000000000006       44.88000000000001
    25   1      4.0800000000000054      34.680000000000007       44.88000000000001
    26   1      4.0800000000000054      36.720000000000006      42.840000000000011
    27   1      2.0400000000000063      34.680000000000007      46.920000000000009
    28   1      2.0400000000000063      36.720000000000006      48.960000000000008
    29   1      4.0800000000000054      34.680000000000007      48.960000000000008
    30   1      4.0800000000000054      36.720000000000006      46.920000000000009
    31   1      4.0800000000000054      34.680000000000007      53.039999999999999
    32   1      4.0800000000000054      36.720000000000006      51.000000000000014
    33   1      4.0800000000000054      34.680000000000007      57.120000000000012
    34   1      4.0800000000000054      36.720000000000006      55.080000000000013
    35   1      4.0800000000000054      36.720000000000006      59.160000000000011
    36   1      4.0800000000000054      38.760000000000005      32.640000000000008
    37   1      4.0800000000000054      40.800000000000004      30.600000000000009
    38   1      4.0800000000000054      38.760000000000005      36.720000000000006
    39   1      4.0800000000000054      40.800000000000004      34.680000000000007
    40   1      2.0400000000000063      40.800000000000004      40.800000000000004
    41   1      4.0800000000000054      38.760000000000005      40.800000000000004
    42   1      4.0800000000000054      40.800000000000004      38.760000000000005
    43   1      2.0400000000000063      38.760000000000005      42.840000000000011
    44   1      2.0400000000000063      40.800000000000004       44.88000000000001
    45   1      4.0800000000000054      38.760000000000005       44.88000000000001
    46   1      4.0800000000000054      40.800000000000004      42.840000000000011
    47   1      2.0400000000000063      38.760000000000005      46.920000000000009
    48   1      2.0400000000000063      40.800000000000004      48.960000000000008
    49   1      4.0800000000000054      38.760000000000005      48.960000000000008
    50   1      4.0800000000000054      40.800000000000004      46.920000000000009
    51   1      2.0400000000000063      38.760000000000005      51.000000000000014
    52   1      2.0400000000000063      40.800000000000004      53.039999999999999
    53   1      4.0800000000000054      38.760000000000005      53.039999999999999
    54   1      4.0800000000000054      40.800000000000004      51.000000000000014
    55   1      4.0800000000000054      38.760000000000005      57.120000000000012
    56   1      4.0800000000000054      40.800000000000004      55.080000000000013
    57   1      4.0800000000000054      38.760000000000005       61.20000000000001
    58   1      4.0800000000000054      40.800000000000004      59.160000000000011
    59   1      4.0800000000000054      40.800000000000004      63.240000000000009
    60   1      4.0800000000000054      42.840000000000011      28.560000000000009
    61   1      4.0800000000000054       44.88000000000001       26.52000000000001
    62   1      4.0800000000000054      42.840000000000011      32.640000000000008
    63   1      4.0800000000000054       44.88000000000001      30.600000000000009
    64   1      2.0400000000000063       44.88000000000001      36.720000000000006
    65   1      4.0800000000000054      42.840000000000011      36.720000000000006
    66   1      4.0800000000000054       44.88000000000001      34.680000000000007
    67   1      2.0400000000000063      42.840000000000011      38.760000000000005
    68   1      2.0400000000000063       44.88000000000001      40.800000000000004
    69   1      4.0800000000000054      42.840000000000011      40.800000000000004
    70   1      4.0800000000000054       44.88000000000001      38.760000000000005
    71   1      2.0400000000000063      42.840000000000011      42.840000000000011
    72   1      2.0400000000000063       44.88000000000001       44.88000000000001
    73   1      4.0800000000000054      42.840000000000011       44.88000000000001
    74   1      4.0800000000000054       44.88000000000001      42.840000000000011
    75   1      2.0400000000000063      42.840000000000011      46.920000000000009
    76   1      2.0400000000000063       44.88000000000001      48.960000000000008
    77   1      4.0800000000000054      42.840000000000011      48.960000000000008
    78   1      4.0800000000000054       44.88000000000001      46.920000000000009
    79   1      2.0400000000000063      42.840000000000011      51.000000000000014
    80   1      2.0400000000000063       44.88000000000001      53.039999999999999
    81   1      4.0800000000000054      42.840000000000011      53.039999999999999
    82   1      4.0800000000000054       44.88000000000001      51.000000000000014
    83   1      2.0400000000000063      42.840000000000011      55.080000000000013
    84   1      2.0400000000000063       44.88000000000001      57.120000000000012
    85   1      4.0800000000000054      42.840000000000011      57.120000000000012
    86   1      4.0800000000000054       44.88000000000001      55.080000000000013
    87   1      4.0800000000000054      42.840000000000011       61.20000000000001
    88   1      4.0800000000000054       44.88000000000001      59.160000000000011
    89   1      4.0800000000000054      42.840000000000011      65.280000000000015
    90   1      4.0800000000000054       44.88000000000001      63.240000000000009
    91   1      4.0800000000000054       44.88000000000001      67.320000000000007
    92   1      4.0800000000000054      46.920000000000009      24.480000000000004
    93   1      4.0800000000000054      46.920000000000009      28.560000000000009
    94   1      4.0800000000000054      48.960000000000008       26.52000000000001
    95   1      4.0800000000000054      46.920000000000009      32.640000000000008
    96   1      4.0800000000000054      48.960000000000008      30.600000000000009
    97   1      2.0400000000000063      46.920000000000009      34.680000000000007
    98   1      2.0400000000000063      48.960000000000008      36.720000000000006
    99   1      4.0800000000000054      46.920000000000009      36.720000000000006
   100   1      4.0800000000000054      48.960000000000008      34.680000000000007
   101   1      2.0400000000000063      46.920000000000009      38.760000000000005
   102   1      2.0400000000000063      48.960000000000008      40.800000000000004
   103   1      4.0800000000000054      46.920000000000009      40.800000000000004
   104   1      4.0800000000000054      48.960000000000008      38.760000000000005
   105   1      2.0400000000000063      46.920000000000009      42.840000000000011
   106   1      2.0400000000000063      48.960000000000008       44.88000000000001
   107   1      4.0800000000000054      46.920000000000009       44.88000000000001
   108   1      4.0800000000000054      48.960000000000008      42.840000000000011
   109   1      2.0400000000000063      46.920000000000009      46.920000000000009
   110   1      2.0400000000000063      48.960000000000008      48.960000000000008
   111   1      4.0800000000000054      46.920000000000009      48.960000000000008
   112   1      4.0800000000000054      48.960000000000008      46.920000000000009
   113   1      2.0400000000000063      46.920000000000009      51.000000000000014
   114   1      2.0400000000000063      48.960000000000008      53.039999999999999
   115   1      4.0800000000000054      46.920000000000009      53.039999999999999
   116   1      4.0800000000000054      48.960000000000008      51.000000000000014
   117   1      2.0400000000000063      46.920000000000009      55.080000000000013
   118   1      2.0400000000000063      48.960000000000008      57.120000000000012
   119   1      4.0800000000000054      46.920000000000009      57.120000000000012
   120   1      4.0800000000000054      48.960000000000008      55.080000000000013
   121   1      2.0400000000000063      46.920000000000009      59.160000000000011
   122   1      4.0800000000000054      46.920000000000009       61.20000000000001
   123   1      4.0800000000000054      48.960000000000008      59.160000000000011
   124   1      4.0800000000000054      46.920000000000009      65.280000000000015
   125   1      4.0800000000000054      48.960000000000008      63.240000000000009
   126   1      4.0800000000000054      46.920000000000009      69.360000000000014
   127   1      4.0800000000000054      48.960000000000008      67.320000000000007
   128   1      4.0800000000000054      51.000000000000014      28.560000000000009
   129   1      4.0800000000000054      51.000000000000014      32.640000000000008
   130   1      4.0800000000000054      53.039999999999999      30.600000000000009
   131   1      4.0800000000000054      51.000000000000014      36.720000000000006
   132   1      4.0800000000000054      53.039999999999999      34.680000000000007
   133   1      2.0400000000000063      51.000000000000014      38.760000000000005
   134   1      2.0400000000000063      53.039999999999999      40.800000000000004
   135   1      4.0800000000000054      51.000000000000014      40.800000000000004
   136   1      4.0800000000000054      53.039999999999999      38.760000000000005
   137   1      2.0400000000000063      51.000000000000014      42.840000000000011
   138   1      2.0400000000000063      53.039999999999999       44.88000000000001
   139   1      4.0800000000000054      51.000000000000014       44.88000000000001
   140   1      4.0800000000000054      53.039999999999999      42.840000000000011
   141   1      2.0400000000000063      51.000000000000014      46.920000000000009
   142   1      2.0400000000000063      53.039999999999999      48.960000000000008
   143   1      4.0800000000000054      51.000000000000014      48.960000000000008
   144   1      4.0800000000000054      53.039999999999999      46.920000000000009
   145   1      2.0400000000000063      51.000000000000014      51.000000000000014
   146   1      2.0400000000000063      53.039999999999999      53.039999999999999
   147   1      4.0800000000000054      51.000000000000014      53.039999999999999
   148   1      4.0800000000000054      53.039999999999999      51.000000000000014
   149   1      2.0400000000000063      51.000000000000014      55.080000000000013
   150   1      4.0800000000000054      51.000000000000014      57.120000000000012
   151   1      4.0800000000000054      53.039999999999999      55.080000000000013
   152   1      4.0800000000000054      51.000000000000014       61.20000000000001
   153   1      4.0800000000000054      53.039999999999999      59.160000000000011
   154   1      4.0800000000000054      51.000000000000014      65.280000000000015
   155   1      4.0800000000000054      53.039999999999999      63.240000000000009
   156   1      4.0800000000000054      55.080000000000013      32.640000000000008
   157   1      4.0800000000000054      55.080000000000013      36.720000000000006
   158   1      4.0800000000000054      57.120000000000012      34.680000000000007
   159   1      4.0800000000000054      55.080000000000013      40.800000000000004
   160   1      4.0800000000000054      57.120000000000012      38.760000000000005
   161   1      2.0400000000000063      55.080000000000013      42.840000000000011
   162   1      2.0400000000000063      57.120000000000012       44.88000000000001
   163   1      4.0800000000000054      55.080000000000013       44.88000000000001
   164   1      4.0800000000000054      57.120000000000012      42.840000000000011
   165   1      2.0400000000000063      55.080000000000013      46.920000000000009
   166   1      2.0400000000000063      57.120000000000012      48.960000000000008
   167   1      4.0800000000000054      55.080000000000013      48.960000000000008
   168   1      4.0800000000000054      57.120000000000012      46.920000000000009
   169   1      2.0400000000000063      55.080000000000013      51.000000000000014
   170   1      4.0800000000000054      55.080000000000013      53.039999999999999
   171   1      4.0800000000000054      57.120000000000012      51.000000000000014
   172   1      4.0800000000000054      55.080000000000013      57.120000000000012
   173   1      4.0800000000000054      57.120000000000012      55.080000000000013
   174   1      4.0800000000000054      55.080000000000013       61.20000000000001
   175   1      4.0800000000000054      57.120000000000012      59.160000000000011
   176   1      4.0800000000000054      59.160000000000011      36.720000000000006
   177   1      4.0800000000000054      59.160000000000011      40.800000000000004
   178   1      4.0800000000000054       61.20000000000001      38.760000000000005
   179   1      4.0800000000000054      59.160000000000011       44.88000000000001
   180   1      4.0800000000000054       61.20000000000001      42.840000000000011
   181   1      2.0400000000000063      59.160000000000011      46.920000000000009
   182   1      4.0800000000000054      59.160000000000011      48.960000000000008
   183   1      4.0800000000000054       61.20000000000001      46.920000000000009
   184   1      4.0800000000000054      59.160000000000011      53.039999999999999
   185   1      4.0800000000000054       61.20000000000001      51.000000000000014
   186   1      4.0800000000000054      59.160000000000011      57.120000000000012
   187   1      4.0800000000000054       61.20000000000001      55.080000000000013
   188   1      4.0800000000000054      63.240000000000009      40.800000000000004
   189   1      4.0800000000000054      63.240000000000009       44.88000000000001
   190   1      4.0800000000000054      65.280000000000015      42.840000000000011
   191   1      4.0800000000000054      63.240000000000009      48.960000000000008
   192   1      4.0800000000000054      65.280000000000015      46.920000000000009
   193   1      4.0800000000000054      63.240000000000009      53.039999999999999
   194   1      4.0800000000000054      65.280000000000015      51.000000000000014
   195   1      4.0800000000000054      67.320000000000007       44.88000000000001
   196   1      4.0800000000000054      67.320000000000007      48.960000000000008
   197   1      4.0800000000000054      69.360000000000014      46.920000000000009
   198   1      8.1600000000000037      8.1600000000000037      42.840000000000011
   199   1      8.1600000000000037      8.1600000000000037      46.920000000000009
   200   1      8.1600000000000037      8.1600000000000037      51.000000000000014
   201   1      8.1600000000000037       10.20000000000001      40.800000000000004
   202   1      8.1600000000000037      12.240000000000007      38.760000000000005
   203   1      8.1600000000000037       10.20000000000001       44.88000000000001
   204   1      8.1600000000000037      12.240000000000007      42.840000000000011
   205   1      8.1600000000000037       10.20000000000001      48.960000000000008
   206   1      8.1600000000000037      12.240000000000007      46.920000000000009
   207   1      8.1600000000000037       10.20000000000001      53.039999999999999
   208   1      8.1600000000000037      12.240000000000007      51.000000000000014
   209   1      8.1600000000000037      12.240000000000007      55.080000000000013
   210   1      8.1600000000000037      14.280000000000008      36.720000000000006
   211   1      8.1600000000000037      16.320000000000007      34.680000000000007
   212   1      8.1600000000000037      14.280000000000008      40.800000000000004
   213   1      8.1600000000000037      16.320000000000007      38.760000000000005
   214   1      6.1200000000000117      16.320000000000007       44.88000000000001
   215   1      8.1600000000000037      14.280000000000008       44.88000000000001
   216   1      8.1600000000000037      16.320000000000007      42.840000000000011
   217   1      6.1200000000000117      14.280000000000008      46.920000000000009
   218   1      6.1200000000000117      16.320000000000007      48.960000000000008
   219   1      8.1600000000000037      14.280000000000008      48.960000000000008
   220   1      8.1600000000000037      16.320000000000007      46.920000000000009
   221   1      8.1600000000000037      14.280000000000008      53.039999999999999
   222   1      8.1600000000000037      16.320000000000007      51.000000000000014
   223   1      8.1600000000000037      14.280000000000008      57.120000000000012
   224   1      8.1600000000000037      16.320000000000007      55.080000000000013
   225   1      8.1600000000000037      16.320000000000007      59.160000000000011
   226   1      8.1600000000000037      18.360000000000007      32.640000000000008
   227   1      8.1600000000000037      20.400000000000006      30.600000000000009
   228   1      8.1600000000000037      18.360000000000007      36.720000000000006
   229   1      8.1600000000000037      20.400000000000006      34.680000000000007
   230   1      6.1200000000000117      20.400000000000006      40.800000000000004
   231   1      8.1600000000000037      18.360000000000007      40.800000000000004
   232   1      8.1600000000000037      20.400000000000006      38.760000000000005
   233   1      6.1200000000000117      18.360000000000007      42.840000000000011
   234   1      6.1200000000000117      20.400000000000006       44.88000000000001
   235   1      8.1600000000000037      18.360000000000007       44.88000000000001
   236   1      8.1600000000000037      20.400000000000006      42.840000000000011
   237   1      6.1200000000000117      18.360000000000007      46.920000000000009
   238   1      6.1200000000000117      20.400000000000006      48.960000000000008
   239   1      8.1600000000000037      18.360000000000007      48.960000000000008
   240   1      8.1600000000000037      20.400000000000006      46.920000000000009
   241   1      6.1200000000000117      18.360000000000007      51.000000000000014
   242   1      6.1200000000000117      20.400000000000006      53.039999999999999
   243   1      8.1600000000000037      18.360000000000007      53.039999999999999
   244   1      8.1600000000000037      20.400000000000006      51.000000000000014
   245   1      8.1600000000000037      18.360000000000007      57.120000000000012
   246   1      8.1600000000000037      20.400000000000006      55.080000000000013
   247   1      8.1600000000000037      18.360000000000007       61.20000000000001
   248   1      8.1600000000000037      20.400000000000006      59.160000000000011
   249   1      8.1600000000000037      20.400000000000006      63.240000000000009
   250   1      8.1600000000000037      22.440000000000008      28.560000000000009
   251   1      8.1600000000000037      24.480000000000004       26.52000000000001
   252   1      8.1600000000000037      22.440000000000008      32.640000000000008
   253   1      8.1600000000000037      24.480000000000004      30.600000000000009
   254   1      6.1200000000000117      24.480000000000004      36.720000000000006
   255   1      8.1600000000000037      22.440000000000008      36.720000000000006
   256   1      8.1600000000000037      24.480000000000004      34.680000000000007
   257   1      6.1200000000000117      22.440000000000008      38.760000000000005
   258   1      6.1200000000000117      24.480000000000004      40.800000000000004
   259   1      8.1600000000000037      22.440000000000008      40.800000000000004
   260   1      8.1600000000000037      24.480000000000004      38.760000000000005
   261   1      6.1200000000000117      22.440000000000008      42.840000000000011
   262   1      6.1200000000000117      24.480000000000004       44.88000000000001
   263   1      8.1600000000000037      22.440000000000008       44.88000000000001
   264   1      8.1600000000000037      24.480000000000004      42.840000000000011
   265   1      6.1200000000000117      22.440000000000008      46.920000000000009
   266   1      6.1200000000000117      24.480000000000004      48.960000000000008
   267   1      8.1600000000000037      22.440000000000008      48.960000000000008
   268   1      8.1600000000000037      24.480000000000004      46.920000000000009
   269   1      6.1200000000000117      22.440000000000008      51.000000000000014
   270   1      6.1200000000000117      24.480000000000004      53.039999999999999
   271   1      8.1600000000000037      22.440000000000008      53.039999999999999
   272   1      8.1600000000000037      24.480000000000004      51.000000000000014
   273   1      6.1200000000000117      22.440000000000008      55.080000000000013
   274   1      6.1200000000000117      24.480000000000004      57.120000000000012
   275   1      8.1600000000000037      22.440000000000008      57.120000000000012
   276   1      8.1600000000000037      24.480000000000004      55.080000000000013
   277   1      8.1600000000000037      22.440000000000008       61.20000000000001
   278   1      8.1600000000000037      24.480000000000004      59.160000000000011
   279   1      8.1600000000000037      22.440000000000008      65.280000000000015
   280   1      8.1600000000000037      24.480000000000004      63.240000000000009
   281   1      8.1600000000000037      24.480000000000004      67.320000000000007
   282   1      8.1600000000000037       26.52000000000001      24.480000000000004
   283   1      8.1600000000000037      28.560000000000009      22.440000000000008
   284   1      8.1600000000000037       26.52000000000001      28.560000000000009
   285   1      8.1600000000000037      28.560000000000009       26.52000000000001
   286   1      6.1200000000000117      28.560000000000009      32.640000000000008
   287   1      8.1600000000000037       26.52000000000001      32.640000000000008
   288   1      8.1600000000000037      28.560000000000009      30.600000000000009
   289   1      6.1200000000000117       26.52000000000001      34.680000000000007
   290   1      6.1200000000000117      28.560000000000009      36.720000000000006
   291   1      8.1600000000000037       26.52000000000001      36.720000000000006
   292   1      8.1600000000000037      28.560000000000009      34.680000000000007
   293   1      6.1200000000000117       26.52000000000001      38.760000000000005
   294   1      6.1200000000000117      28.560000000000009      40.800000000000004
   295   1      8.1600000000000037       26.52000000000001      40.800000000000004
   296   1      8.1600000000000037      28.560000000000009      38.760000000000005
   297   1      6.1200000000000117       26.52000000000001      42.840000000000011
   298   1      6.1200000000000117      28.560000000000009       44.88000000000001
   299   1      8.1600000000000037       26.52000000000001       44.88000000000001
   300   1      8.1600000000000037      28.560000000000009      42.840000000000011
   301   1      6.1200000000000117       26.52000000000001      46.920000000000009
   302   1      6.1200000000000117      28.560000000000009      48.960000000000008
   303   1      8.1600000000000037       26.52000000000001      48.960000000000008
   304   1      8.1600000000000037      28.560000000000009      46.920000000000009
   305   1      6.1200000000000117       26.52000000000001      51.000000000000014
   306   1      6.1200000000000117      28.560000000000009      53.039999999999999
   307   1      8.1600000000000037       26.52000000000001      53.039999999999999
   308   1      8.1600000000000037      28.560000000000009      51.000000000000014
   309   1      6.1200000000000117       26.52000000000001      55.080000000000013
   310   1      6.1200000000000117      28.560000000000009      57.120000000000012
   311   1      8.1600000000000037       26.52000000000001      57.120000000000012
   312   1      8.1600000000000037      28.560000000000009      55.080000000000013
   313   1      6.1200000000000117       26.52000000000001      59.160000000000011
   314   1      6.1200000000000117      28.560000000000009       61.20000000000001
   315   1      8.1600000000000037       26.52000000000001       61.20000000000001
   316   1      8.1600000000000037      28.560000000000009      59.160000000000011
   317   1      8.1600000000000037       26.52000000000001      65.280000000000015
   318   1      8.1600000000000037      28.560000000000009      63.240000000000009
   319   1      8.1600000000000037       26.52000000000001      69.360000000000014
   320   1      8.1600000000000037      28.560000000000009      67.320000000000007
   321   1      8.1600000000000037      28.560000000000009      71.400000000000006
   322   1      8.1600000000000037      30.600000000000009      20.400000000000006
   323   1      8.1600000000000037      32.640000000000008      18.360000000000007
   324   1      8.1600000000000037      30.600000000000009      24.480000000000004
   325   1      8.1600000000000037      32.640000000000008      22.440000000000008
   326   1      6.1200000000000117      32.640000000000008      28.560000000000009
   327   1      8.1600000000000037      30.600000000000009      28.560000000000009
   328   1      8.1600000000000037      32.640000000000008       26.52000000000001
   329   1      6.1200000000000117      30.600000000000009      30.600000000000009
   330   1      6.1200000000000117      32.640000000000008      32.640000000000008
   331   1      8.1600000000000037      30.600000000000009      32.640000000000008
   332   1      8.1600000000000037      32.640000000000008      30.600000000000009
   333   1      6.1200000000000117      30.600000000000009      34.680000000000007
   334   1      6.1200000000000117      32.640000000000008      36.720000000000006
   335   1      8.1600000000000037      30.600000000000009      36.720000000000006
   336   1      8.1600000000000037      32.640000000000008      34.680000000000007
   337   1      6.1200000000000117      30.600000000000009      38.760000000000005
   338   1      6.1200000000000117      32.640000000000008      40.800000000000004
   339   1      8.1600000000000037      30.600000000000009      40.800000000000004
   340   1      8.1600000000000037      32.640000000000008      38.760000000000005
   341   1      6.1200000000000117      30.600000000000009      42.840000000000011
   342   1      6.1200000000000117      32.640000000000008       44.88000000000001
   343   1      8.1600000000000037      30.600000000000009       44.88000000000001
   344   1      8.1600000000000037      32.640000000000008      42.840000000000011
   345   1      6.1200000000000117      30.600000000000009      46.920000000000009
   346   1      6.1200000000000117      32.640000000000008      48.960000000000008
   347   1      8.1600000000000037      30.600000000000009      48.960000000000008
   348   1      8.1600000000000037      32.640000000000008      46.920000000000009
   349   1      6.1200000000000117      30.600000000000009      51.000000000000014
   350   1      6.1200000000000117      32.640000000000008      53.039999999999999
   351   1      8.1600000000000037      30.600000000000009      53.039999999999999
   352   1      8.1600000000000037      32.640000000000008      51.000000000000014
   353   1      6.1200000000000117      30.600000000000009      55.080000000000013
   354   1      6.1200000000000117      32.640000000000008      57.120000000000012
   355   1      8.1600000000000037      30.600000000000009      57.120000000000012
   356   1      8.1600000000000037      32.640000000000008      55.080000000000013
   357   1      6.1200000000000117      30.600000000000009      59.160000000000011
   358   1      6.1200000000000117      32.640000000000008       61.20000000000001