model_files/CuFeNi/CuFeNi_30000/CuFeNi_530/CuFeNi_530_fcc_29831_temp.data (written by ASE) 

29831 	 atoms 
3  atom types
0.0                      95  xlo xhi
0.0                      95  ylo yhi
0.0                      95  zlo zhi


Atoms 

     1   1      94.999999999999986      44.749999999999986      44.749999999999986
     2   1      1.7899999999999849      42.959999999999987      44.749999999999986
     3   1      1.7899999999999849      44.749999999999986      42.959999999999987
     4   1      94.999999999999986      44.749999999999986      48.329999999999991
     5   1      1.7899999999999849      42.959999999999987      48.329999999999991
     6   1      1.7899999999999849      44.749999999999986      46.539999999999992
     7   1      1.7899999999999849      44.749999999999986       50.11999999999999
     8   1      94.999999999999986      48.329999999999991      44.749999999999986
     9   1      1.7899999999999849      46.539999999999992      44.749999999999986
    10   1      1.7899999999999849      48.329999999999991      42.959999999999987
    11   1      94.999999999999986      46.539999999999992      46.539999999999992
    12   1      94.999999999999986      48.329999999999991      48.329999999999991
    13   1      1.7899999999999849      46.539999999999992      48.329999999999991
    14   1      1.7899999999999849      48.329999999999991      46.539999999999992
    15   1      1.7899999999999849      48.329999999999991       50.11999999999999
    16   1      1.7899999999999849       50.11999999999999      44.749999999999986
    17   1      1.7899999999999849       50.11999999999999      48.329999999999991
    18   1      5.3699999999999903       35.79999999999999      37.589999999999989
    19   1      5.3699999999999903      37.589999999999989       35.79999999999999
    20   1      5.3699999999999903       35.79999999999999      41.169999999999987
    21   1      5.3699999999999903      37.589999999999989      39.379999999999988
    22   1      5.3699999999999903       35.79999999999999      44.749999999999986
    23   1      5.3699999999999903      37.589999999999989      42.959999999999987
    24   1      5.3699999999999903       35.79999999999999      48.329999999999991
    25   1      5.3699999999999903      37.589999999999989      46.539999999999992
    26   1      5.3699999999999903       35.79999999999999      51.909999999999989
    27   1      5.3699999999999903      37.589999999999989       50.11999999999999
    28   1      5.3699999999999903       35.79999999999999      55.489999999999988
    29   1      5.3699999999999903      37.589999999999989      53.699999999999989
    30   1      5.3699999999999903      37.589999999999989       57.27999999999998
    31   1      5.3699999999999903      39.379999999999988      37.589999999999989
    32   1      5.3699999999999903      41.169999999999987       35.79999999999999
    33   1      3.5799999999999836      39.379999999999988      39.379999999999988
    34   1      3.5799999999999836      41.169999999999987      41.169999999999987
    35   1      5.3699999999999903      39.379999999999988      41.169999999999987
    36   1      5.3699999999999903      41.169999999999987      39.379999999999988
    37   1      3.5799999999999836      39.379999999999988      42.959999999999987
    38   1      3.5799999999999836      41.169999999999987      44.749999999999986
    39   1      5.3699999999999903      39.379999999999988      44.749999999999986
    40   1      5.3699999999999903      41.169999999999987      42.959999999999987
    41   1      3.5799999999999836      39.379999999999988      46.539999999999992
    42   1      3.5799999999999836      41.169999999999987      48.329999999999991
    43   1      5.3699999999999903      39.379999999999988      48.329999999999991
    44   1      5.3699999999999903      41.169999999999987      46.539999999999992
    45   1      3.5799999999999836      39.379999999999988       50.11999999999999
    46   1      3.5799999999999836      41.169999999999987      51.909999999999989
    47   1      5.3699999999999903      39.379999999999988      51.909999999999989
    48   1      5.3699999999999903      41.169999999999987       50.11999999999999
    49   1      3.5799999999999836      39.379999999999988      53.699999999999989
    50   1      5.3699999999999903      39.379999999999988      55.489999999999988
    51   1      5.3699999999999903      41.169999999999987      53.699999999999989
    52   1      5.3699999999999903      41.169999999999987       57.27999999999998
    53   1      5.3699999999999903      42.959999999999987      37.589999999999989
    54   1      5.3699999999999903      44.749999999999986       35.79999999999999
    55   1      3.5799999999999836      42.959999999999987      39.379999999999988
    56   1      3.5799999999999836      44.749999999999986      41.169999999999987
    57   1      5.3699999999999903      42.959999999999987      41.169999999999987
    58   1      5.3699999999999903      44.749999999999986      39.379999999999988
    59   1      3.5799999999999836      42.959999999999987      42.959999999999987
    60   1      3.5799999999999836      44.749999999999986      44.749999999999986
    61   1      5.3699999999999903      42.959999999999987      44.749999999999986
    62   1      5.3699999999999903      44.749999999999986      42.959999999999987
    63   1      3.5799999999999836      42.959999999999987      46.539999999999992
    64   1      3.5799999999999836      44.749999999999986      48.329999999999991
    65   1      5.3699999999999903      42.959999999999987      48.329999999999991
    66   1      5.3699999999999903      44.749999999999986      46.539999999999992
    67   1      3.5799999999999836      42.959999999999987       50.11999999999999
    68   1      3.5799999999999836      44.749999999999986      51.909999999999989
    69   1      5.3699999999999903      42.959999999999987      51.909999999999989
    70   1      5.3699999999999903      44.749999999999986       50.11999999999999
    71   1      3.5799999999999836      42.959999999999987      53.699999999999989
    72   1      5.3699999999999903      42.959999999999987      55.489999999999988
    73   1      5.3699999999999903      44.749999999999986      53.699999999999989
    74   1      5.3699999999999903      44.749999999999986       57.27999999999998
    75   1      5.3699999999999903      46.539999999999992      37.589999999999989
    76   1      5.3699999999999903      48.329999999999991       35.79999999999999
    77   1      3.5799999999999836      46.539999999999992      39.379999999999988
    78   1      3.5799999999999836      48.329999999999991      41.169999999999987
    79   1      5.3699999999999903      46.539999999999992      41.169999999999987
    80   1      5.3699999999999903      48.329999999999991      39.379999999999988
    81   1      3.5799999999999836      46.539999999999992      42.959999999999987
    82   1      3.5799999999999836      48.329999999999991      44.749999999999986
    83   1      5.3699999999999903      46.539999999999992      44.749999999999986
    84   1      5.3699999999999903      48.329999999999991      42.959999999999987
    85   1      3.5799999999999836      46.539999999999992      46.539999999999992
    86   1      3.5799999999999836      48.329999999999991      48.329999999999991
    87   1      5.3699999999999903      46.539999999999992      48.329999999999991
    88   1      5.3699999999999903      48.329999999999991      46.539999999999992
    89   1      3.5799999999999836      46.539999999999992       50.11999999999999
    90   1      3.5799999999999836      48.329999999999991      51.909999999999989
    91   1      5.3699999999999903      46.539999999999992      51.909999999999989
    92   1      5.3699999999999903      48.329999999999991       50.11999999999999
    93   1      3.5799999999999836      46.539999999999992      53.699999999999989
    94   1      5.3699999999999903      46.539999999999992      55.489999999999988
    95   1      5.3699999999999903      48.329999999999991      53.699999999999989
    96   1      5.3699999999999903      48.329999999999991       57.27999999999998
    97   1      5.3699999999999903       50.11999999999999      37.589999999999989
    98   1      5.3699999999999903      51.909999999999989       35.79999999999999
    99   1      3.5799999999999836       50.11999999999999      39.379999999999988
   100   1      3.5799999999999836      51.909999999999989      41.169999999999987
   101   1      5.3699999999999903       50.11999999999999      41.169999999999987
   102   1      5.3699999999999903      51.909999999999989      39.379999999999988
   103   1      3.5799999999999836       50.11999999999999      42.959999999999987
   104   1      3.5799999999999836      51.909999999999989      44.749999999999986
   105   1      5.3699999999999903       50.11999999999999      44.749999999999986
   106   1      5.3699999999999903      51.909999999999989      42.959999999999987
   107   1      3.5799999999999836       50.11999999999999      46.539999999999992
   108   1      3.5799999999999836      51.909999999999989      48.329999999999991
   109   1      5.3699999999999903       50.11999999999999      48.329999999999991
   110   1      5.3699999999999903      51.909999999999989      46.539999999999992
   111   1      3.5799999999999836       50.11999999999999       50.11999999999999
   112   1      3.5799999999999836      51.909999999999989      51.909999999999989
   113   1      5.3699999999999903       50.11999999999999      51.909999999999989
   114   1      5.3699999999999903      51.909999999999989       50.11999999999999
   115   1      3.5799999999999836       50.11999999999999      53.699999999999989
   116   1      5.3699999999999903       50.11999999999999      55.489999999999988
   117   1      5.3699999999999903      51.909999999999989      53.699999999999989
   118   1      5.3699999999999903      51.909999999999989       57.27999999999998
   119   1      5.3699999999999903      53.699999999999989      37.589999999999989
   120   1      5.3699999999999903      55.489999999999988       35.79999999999999
   121   1      3.5799999999999836      53.699999999999989      39.379999999999988
   122   1      5.3699999999999903      53.699999999999989      41.169999999999987
   123   1      5.3699999999999903      55.489999999999988      39.379999999999988
   124   1      3.5799999999999836      53.699999999999989      42.959999999999987
   125   1      5.3699999999999903      53.699999999999989      44.749999999999986
   126   1      5.3699999999999903      55.489999999999988      42.959999999999987
   127   1      3.5799999999999836      53.699999999999989      46.539999999999992
   128   1      5.3699999999999903      53.699999999999989      48.329999999999991
   129   1      5.3699999999999903      55.489999999999988      46.539999999999992
   130   1      3.5799999999999836      53.699999999999989       50.11999999999999
   131   1      5.3699999999999903      53.699999999999989      51.909999999999989
   132   1      5.3699999999999903      55.489999999999988       50.11999999999999
   133   1      3.5799999999999836      53.699999999999989      53.699999999999989
   134   1      5.3699999999999903      53.699999999999989      55.489999999999988
   135   1      5.3699999999999903      55.489999999999988      53.699999999999989
   136   1      5.3699999999999903      55.489999999999988       57.27999999999998
   137   1      5.3699999999999903       57.27999999999998      37.589999999999989
   138   1      5.3699999999999903       57.27999999999998      41.169999999999987
   139   1      5.3699999999999903       57.27999999999998      44.749999999999986
   140   1      5.3699999999999903       57.27999999999998      48.329999999999991
   141   1      5.3699999999999903       57.27999999999998      51.909999999999989
   142   1      5.3699999999999903       57.27999999999998      55.489999999999988
   143   1      8.9499999999999886      30.429999999999986      32.219999999999985
   144   1      8.9499999999999886      30.429999999999986       35.79999999999999
   145   1      8.9499999999999886      30.429999999999986      39.379999999999988
   146   1      8.9499999999999886      30.429999999999986      42.959999999999987
   147   1      8.9499999999999886      30.429999999999986      46.539999999999992
   148   1      8.9499999999999886      30.429999999999986       50.11999999999999
   149   1      8.9499999999999886      30.429999999999986      53.699999999999989
   150   1      8.9499999999999886      30.429999999999986       57.27999999999998
   151   1      8.9499999999999886      30.429999999999986      60.859999999999978
   152   1      8.9499999999999886      32.219999999999985      30.429999999999986
   153   1      7.1599999999999886      34.009999999999984      34.009999999999984
   154   1      8.9499999999999886      32.219999999999985      34.009999999999984
   155   1      8.9499999999999886      34.009999999999984      32.219999999999985
   156   1      7.1599999999999886      34.009999999999984      37.589999999999989
   157   1      8.9499999999999886      32.219999999999985      37.589999999999989
   158   1      8.9499999999999886      34.009999999999984       35.79999999999999
   159   1      7.1599999999999886      34.009999999999984      41.169999999999987
   160   1      8.9499999999999886      32.219999999999985      41.169999999999987
   161   1      8.9499999999999886      34.009999999999984      39.379999999999988
   162   1      7.1599999999999886      34.009999999999984      44.749999999999986
   163   1      8.9499999999999886      32.219999999999985      44.749999999999986
   164   1      8.9499999999999886      34.009999999999984      42.959999999999987
   165   1      7.1599999999999886      34.009999999999984      48.329999999999991
   166   1      8.9499999999999886      32.219999999999985      48.329999999999991
   167   1      8.9499999999999886      34.009999999999984      46.539999999999992
   168   1      7.1599999999999886      34.009999999999984      51.909999999999989
   169   1      8.9499999999999886      32.219999999999985      51.909999999999989
   170   1      8.9499999999999886      34.009999999999984       50.11999999999999
   171   1      7.1599999999999886      34.009999999999984      55.489999999999988
   172   1      8.9499999999999886      32.219999999999985      55.489999999999988
   173   1      8.9499999999999886      34.009999999999984      53.699999999999989
   174   1      7.1599999999999886      34.009999999999984      59.069999999999979
   175   1      8.9499999999999886      32.219999999999985      59.069999999999979
   176   1      8.9499999999999886      34.009999999999984       57.27999999999998
   177   1      8.9499999999999886      32.219999999999985      62.649999999999991
   178   1      8.9499999999999886      34.009999999999984      60.859999999999978
   179   1      8.9499999999999886       35.79999999999999      30.429999999999986
   180   1      7.1599999999999886      37.589999999999989      34.009999999999984
   181   1      8.9499999999999886       35.79999999999999      34.009999999999984
   182   1      8.9499999999999886      37.589999999999989      32.219999999999985
   183   1      7.1599999999999886       35.79999999999999       35.79999999999999
   184   1      7.1599999999999886      37.589999999999989      37.589999999999989
   185   1      8.9499999999999886       35.79999999999999      37.589999999999989
   186   1      8.9499999999999886      37.589999999999989       35.79999999999999
   187   1      7.1599999999999886       35.79999999999999      39.379999999999988
   188   1      7.1599999999999886      37.589999999999989      41.169999999999987
   189   1      8.9499999999999886       35.79999999999999      41.169999999999987
   190   1      8.9499999999999886      37.589999999999989      39.379999999999988
   191   1      7.1599999999999886       35.79999999999999      42.959999999999987
   192   1      7.1599999999999886      37.589999999999989      44.749999999999986
   193   1      8.9499999999999886       35.79999999999999      44.749999999999986
   194   1      8.9499999999999886      37.589999999999989      42.959999999999987
   195   1      7.1599999999999886       35.79999999999999      46.539999999999992
   196   1      7.1599999999999886      37.589999999999989      48.329999999999991
   197   1      8.9499999999999886       35.79999999999999      48.329999999999991
   198   1      8.9499999999999886      37.589999999999989      46.539999999999992
   199   1      7.1599999999999886       35.79999999999999       50.11999999999999
   200   1      7.1599999999999886      37.589999999999989      51.909999999999989
   201   1      8.9499999999999886       35.79999999999999      51.909999999999989
   202   1      8.9499999999999886      37.589999999999989       50.11999999999999
   203   1      7.1599999999999886       35.79999999999999      53.699999999999989
   204   1      7.1599999999999886      37.589999999999989      55.489999999999988
   205   1      8.9499999999999886       35.79999999999999      55.489999999999988
   206   1      8.9499999999999886      37.589999999999989      53.699999999999989
   207   1      7.1599999999999886       35.79999999999999       57.27999999999998
   208   1      7.1599999999999886      37.589999999999989      59.069999999999979
   209   1      8.9499999999999886       35.79999999999999      59.069999999999979
   210   1      8.9499999999999886      37.589999999999989       57.27999999999998
   211   1      8.9499999999999886       35.79999999999999      62.649999999999991
   212   1      8.9499999999999886      37.589999999999989      60.859999999999978
   213   1      8.9499999999999886      39.379999999999988      30.429999999999986
   214   1      7.1599999999999886      41.169999999999987      34.009999999999984
   215   1      8.9499999999999886      39.379999999999988      34.009999999999984
   216   1      8.9499999999999886      41.169999999999987      32.219999999999985
   217   1      7.1599999999999886      39.379999999999988       35.79999999999999
   218   1      7.1599999999999886      41.169999999999987      37.589999999999989
   219   1      8.9499999999999886      39.379999999999988      37.589999999999989
   220   1      8.9499999999999886      41.169999999999987       35.79999999999999
   221   1      7.1599999999999886      39.379999999999988      39.379999999999988
   222   1      7.1599999999999886      41.169999999999987      41.169999999999987
   223   1      8.9499999999999886      39.379999999999988      41.169999999999987
   224   1      8.9499999999999886      41.169999999999987      39.379999999999988
   225   1      7.1599999999999886      39.379999999999988      42.959999999999987
   226   1      7.1599999999999886      41.169999999999987      44.749999999999986
   227   1      8.9499999999999886      39.379999999999988      44.749999999999986
   228   1      8.9499999999999886      41.169999999999987      42.959999999999987
   229   1      7.1599999999999886      39.379999999999988      46.539999999999992
   230   1      7.1599999999999886      41.169999999999987      48.329999999999991
   231   1      8.9499999999999886      39.379999999999988      48.329999999999991
   232   1      8.9499999999999886      41.169999999999987      46.539999999999992
   233   1      7.1599999999999886      39.379999999999988       50.11999999999999
   234   1      7.1599999999999886      41.169999999999987      51.909999999999989
   235   1      8.9499999999999886      39.379999999999988      51.909999999999989
   236   1      8.9499999999999886      41.169999999999987       50.11999999999999
   237   1      7.1599999999999886      39.379999999999988      53.699999999999989
   238   1      7.1599999999999886      41.169999999999987      55.489999999999988
   239   1      8.9499999999999886      39.379999999999988      55.489999999999988
   240   1      8.9499999999999886      41.169999999999987      53.699999999999989
   241   1      7.1599999999999886      39.379999999999988       57.27999999999998
   242   1      7.1599999999999886      41.169999999999987      59.069999999999979
   243   1      8.9499999999999886      39.379999999999988      59.069999999999979
   244   1      8.9499999999999886      41.169999999999987       57.27999999999998
   245   1      8.9499999999999886      39.379999999999988      62.649999999999991
   246   1      8.9499999999999886      41.169999999999987      60.859999999999978
   247   1      8.9499999999999886      42.959999999999987      30.429999999999986
   248   1      7.1599999999999886      44.749999999999986      34.009999999999984
   249   1      8.9499999999999886      42.959999999999987      34.009999999999984
   250   1      8.9499999999999886      44.749999999999986      32.219999999999985
   251   1      7.1599999999999886      42.959999999999987       35.79999999999999
   252   1      7.1599999999999886      44.749999999999986      37.589999999999989
   253   1      8.9499999999999886      42.959999999999987      37.589999999999989
   254   1      8.9499999999999886      44.749999999999986       35.79999999999999
   255   1      7.1599999999999886      42.959999999999987      39.379999999999988
   256   1      7.1599999999999886      44.749999999999986      41.169999999999987
   257   1      8.9499999999999886      42.959999999999987      41.169999999999987
   258   1      8.9499999999999886      44.749999999999986      39.379999999999988
   259   1      7.1599999999999886      42.959999999999987      42.959999999999987
   260   1      7.1599999999999886      44.749999999999986      44.749999999999986
   261   1      8.9499999999999886      42.959999999999987      44.749999999999986
   262   1      8.9499999999999886      44.749999999999986      42.959999999999987
   263   1      7.1599999999999886      42.959999999999987      46.539999999999992
   264   1      7.1599999999999886      44.749999999999986      48.329999999999991
   265   1      8.9499999999999886      42.959999999999987      48.329999999999991
   266   1      8.9499999999999886      44.749999999999986      46.539999999999992
   267   1      7.1599999999999886      42.959999999999987       50.11999999999999
   268   1      7.1599999999999886      44.749999999999986      51.909999999999989
   269   1      8.9499999999999886      42.959999999999987      51.909999999999989
   270   1      8.9499999999999886      44.749999999999986       50.11999999999999
   271   1      7.1599999999999886      42.959999999999987      53.699999999999989
   272   1      7.1599999999999886      44.749999999999986      55.489999999999988
   273   1      8.9499999999999886      42.959999999999987      55.489999999999988
   274   1      8.9499999999999886      44.749999999999986      53.699999999999989
   275   1      7.1599999999999886      42.959999999999987       57.27999999999998
   276   1      7.1599999999999886      44.749999999999986      59.069999999999979
   277   1      8.9499999999999886      42.959999999999987      59.069999999999979
   278   1      8.9499999999999886      44.749999999999986       57.27999999999998
   279   1      8.9499999999999886      42.959999999999987      62.649999999999991
   280   1      8.9499999999999886      44.749999999999986      60.859999999999978
   281   1      8.9499999999999886      46.539999999999992      30.429999999999986
   282   1      7.1599999999999886      48.329999999999991      34.009999999999984
   283   1      8.9499999999999886      46.539999999999992      34.009999999999984
   284   1      8.9499999999999886      48.329999999999991      32.219999999999985
   285   1      7.1599999999999886      46.539999999999992       35.79999999999999
   286   1      7.1599999999999886      48.329999999999991      37.589999999999989
   287   1      8.9499999999999886      46.539999999999992      37.589999999999989
   288   1      8.9499999999999886      48.329999999999991       35.79999999999999
   289   1      7.1599999999999886      46.539999999999992      39.379999999999988
   290   1      7.1599999999999886      48.329999999999991      41.169999999999987
   291   1      8.9499999999999886      46.539999999999992      41.169999999999987
   292   1      8.9499999999999886      48.329999999999991      39.379999999999988
   293   1      7.1599999999999886      46.539999999999992      42.959999999999987
   294   1      7.1599999999999886      48.329999999999991      44.749999999999986
   295   1      8.9499999999999886      46.539999999999992      44.749999999999986
   296   1      8.9499999999999886      48.329999999999991      42.959999999999987
   297   1      7.1599999999999886      46.539999999999992      46.539999999999992
   298   1      7.1599999999999886      48.329999999999991      48.329999999999991
   299   1      8.9499999999999886      46.539999999999992      48.329999999999991
   300   1      8.9499999999999886      48.329999999999991      46.539999999999992
   301   1      7.1599999999999886      46.539999999999992       50.11999999999999
   302   1      7.1599999999999886      48.329999999999991      51.909999999999989
   303   1      8.9499999999999886      46.539999999999992      51.909999999999989
   304   1      8.9499999999999886      48.329999999999991       50.11999999999999
   305   1      7.1599999999999886      46.539999999999992      53.699999999999989
   306   1      7.1599999999999886      48.329999999999991      55.489999999999988
   307   1      8.9499999999999886      46.539999999999992      55.489999999999988
   308   1      8.9499999999999886      48.329999999999991      53.699999999999989
   309   1      7.1599999999999886      46.539999999999992       57.27999999999998
   310   1      7.1599999999999886      48.329999999999991      59.069999999999979
   311   1      8.9499999999999886      46.539999999999992      59.069999999999979
   312   1      8.9499999999999886      48.329999999999991       57.27999999999998
   313   1      8.9499999999999886      46.539999999999992      62.649999999999991
   314   1      8.9499999999999886      48.329999999999991      60.859999999999978
   315   1      8.9499999999999886       50.11999999999999      30.429999999999986
   316   1      7.1599999999999886      51.909999999999989      34.009999999999984
   317   1      8.9499999999999886       50.11999999999999      34.009999999999984
   318   1      8.9499999999999886      51.909999999999989      32.219999999999985
   319   1      7.1599999999999886       50.11999999999999       35.79999999999999
   320   1      7.1599999999999886      51.909999999999989      37.589999999999989
   321   1      8.9499999999999886       50.11999999999999      37.589999999999989
   322   1      8.9499999999999886      51.909999999999989       35.79999999999999
   323   1      7.1599999999999886       50.11999999999999      39.379999999999988
   324   1      7.1599999999999886      51.909999999999989      41.169999999999987
   325   1      8.9499999999999886       50.11999999999999      41.169999999999987
   326   1      8.9499999999999886      51.909999999999989      39.379999999999988
   327   1      7.1599999999999886       50.11999999999999      42.959999999999987
   328   1      7.1599999999999886      51.909999999999989      44.749999999999986
   329   1      8.9499999999999886       50.11999999999999      44.749999999999986
   330   1      8.9499999999999886      51.909999999999989      42.959999999999987
   331   1      7.1599999999999886       50.11999999999999      46.539999999999992
   332   1      7.1599999999999886      51.909999999999989      48.329999999999991
   333   1      8.9499999999999886       50.11999999999999      48.329999999999991
   334   1      8.9499999999999886      51.909999999999989      46.539999999999992
   335   1      7.1599999999999886       50.11999999999999       50.11999999999999
   336   1      7.1599999999999886      51.909999999999989      51.909999999999989
   337   1      8.9499999999999886       50.11999999999999      51.909999999999989
   338   1      8.9499999999999886      51.909999999999989       50.11999999999999
   339   1      7.1599999999999886       50.11999999999999      53.699999999999989
   340   1      7.1599999999999886      51.909999999999989      55.489999999999988
   341   1      8.9499999999999886       50.11999999999999      55.489999999999988
   342   1      8.9499999999999886      51.909999999999989      53.699999999999989
   343   1      7.1599999999999886       50.11999999999999       57.27999999999998
   344   1      7.1599999999999886      51.909999999999989      59.069999999999979
   345   1      8.9499999999999886       50.11999999999999      59.069999999999979
   346   1      8.9499999999999886      51.909999999999989       57.27999999999998
   347   1      8.9499999999999886       50.11999999999999      62.649999999999991
   348   1      8.9499999999999886      51.909999999999989      60.859999999999978
   349   1      8.9499999999999886      53.699999999999989      30.429999999999986
   350   1      7.1599999999999886      55.489999999999988      34.009999999999984
   351   1      8.9499999999999886      53.699999999999989      34.009999999999984
   352   1      8.9499999999999886      55.489999999999988      32.219999999999985
   353   1      7.1599999999999886      53.699999999999989       35.79999999999999
   354   1      7.1599999999999886      55.489999999999988      37.589999999999989
   355   1      8.9499999999999886      53.699999999999989      37.589999999999989
   356   1      8.9499999999999886      55.489999999999988       35.79999999999999
   357   1      7.1599999999999886      53.699999999999989      39.379999999999988
   358   1      7.1599999999999886      55.489999999999988      41.169999999999987