model_files/PtCo/PtCo_30000/PtCo_221/PtCo_221_fcc_29329_temp.data (written by ASE) 

29329 	 atoms 
2  atom types
0.0                     116  xlo xhi
0.0                     116  ylo yhi
0.0                     116  zlo zhi


Atoms 

     1   1      1.8250000000000102       56.57500000000001      58.399999999999999
     2   1      1.8250000000000102      58.399999999999999       56.57500000000001
     3   1  7.1054273576010019e-15      58.399999999999999      58.399999999999999
     4   1      1.8250000000000102      58.399999999999999      60.225000000000001
     5   1      1.8250000000000102      60.225000000000001      58.399999999999999
     6   1      5.4750000000000085      52.925000000000011      54.750000000000007
     7   1      5.4750000000000085      52.925000000000011      58.399999999999999
     8   1      5.4750000000000085      52.925000000000011      62.050000000000004
     9   1      5.4750000000000085      54.750000000000007      52.925000000000011
    10   1      3.6500000000000057      54.750000000000007      54.750000000000007
    11   1      3.6500000000000057       56.57500000000001       56.57500000000001
    12   1      5.4750000000000085      54.750000000000007       56.57500000000001
    13   1      5.4750000000000085       56.57500000000001      54.750000000000007
    14   1      3.6500000000000057      54.750000000000007      58.399999999999999
    15   1      3.6500000000000057       56.57500000000001      60.225000000000001
    16   1      5.4750000000000085      54.750000000000007      60.225000000000001
    17   1      5.4750000000000085       56.57500000000001      58.399999999999999
    18   1      3.6500000000000057      54.750000000000007      62.050000000000004
    19   1      5.4750000000000085      54.750000000000007      63.875000000000007
    20   1      5.4750000000000085       56.57500000000001      62.050000000000004
    21   1      5.4750000000000085      58.399999999999999      52.925000000000011
    22   1      3.6500000000000057      58.399999999999999      54.750000000000007
    23   1      3.6500000000000057      60.225000000000001       56.57500000000001
    24   1      5.4750000000000085      58.399999999999999       56.57500000000001
    25   1      5.4750000000000085      60.225000000000001      54.750000000000007
    26   1      3.6500000000000057      58.399999999999999      58.399999999999999
    27   1      3.6500000000000057      60.225000000000001      60.225000000000001
    28   1      5.4750000000000085      58.399999999999999      60.225000000000001
    29   1      5.4750000000000085      60.225000000000001      58.399999999999999
    30   1      3.6500000000000057      58.399999999999999      62.050000000000004
    31   1      5.4750000000000085      58.399999999999999      63.875000000000007
    32   1      5.4750000000000085      60.225000000000001      62.050000000000004
    33   1      5.4750000000000085      62.050000000000004      52.925000000000011
    34   1      3.6500000000000057      62.050000000000004      54.750000000000007
    35   1      5.4750000000000085      62.050000000000004       56.57500000000001
    36   1      5.4750000000000085      63.875000000000007      54.750000000000007
    37   1      3.6500000000000057      62.050000000000004      58.399999999999999
    38   1      5.4750000000000085      62.050000000000004      60.225000000000001
    39   1      5.4750000000000085      63.875000000000007      58.399999999999999
    40   1      3.6500000000000057      62.050000000000004      62.050000000000004
    41   1      5.4750000000000085      62.050000000000004      63.875000000000007
    42   1      5.4750000000000085      63.875000000000007      62.050000000000004
    43   1      9.1250000000000071      49.275000000000013      54.750000000000007
    44   1      9.1250000000000071      49.275000000000013      58.399999999999999
    45   1      9.1250000000000071      49.275000000000013      62.050000000000004
    46   1      7.3000000000000114      52.925000000000011      52.925000000000011
    47   1      9.1250000000000071      51.100000000000009      52.925000000000011
    48   1      9.1250000000000071      52.925000000000011      51.100000000000009
    49   1      7.3000000000000114      51.100000000000009      54.750000000000007
    50   1      7.3000000000000114      52.925000000000011       56.57500000000001
    51   1      9.1250000000000071      51.100000000000009       56.57500000000001
    52   1      9.1250000000000071      52.925000000000011      54.750000000000007
    53   1      7.3000000000000114      51.100000000000009      58.399999999999999
    54   1      7.3000000000000114      52.925000000000011      60.225000000000001
    55   1      9.1250000000000071      51.100000000000009      60.225000000000001
    56   1      9.1250000000000071      52.925000000000011      58.399999999999999
    57   1      7.3000000000000114      51.100000000000009      62.050000000000004
    58   1      7.3000000000000114      52.925000000000011      63.875000000000007
    59   1      9.1250000000000071      51.100000000000009      63.875000000000007
    60   1      9.1250000000000071      52.925000000000011      62.050000000000004
    61   1      9.1250000000000071      52.925000000000011      65.700000000000003
    62   1      9.1250000000000071      54.750000000000007      49.275000000000013
    63   1      7.3000000000000114      54.750000000000007      51.100000000000009
    64   1      7.3000000000000114       56.57500000000001      52.925000000000011
    65   1      9.1250000000000071      54.750000000000007      52.925000000000011
    66   1      9.1250000000000071       56.57500000000001      51.100000000000009
    67   1      7.3000000000000114      54.750000000000007      54.750000000000007
    68   1      7.3000000000000114       56.57500000000001       56.57500000000001
    69   1      9.1250000000000071      54.750000000000007       56.57500000000001
    70   1      9.1250000000000071       56.57500000000001      54.750000000000007
    71   1      7.3000000000000114      54.750000000000007      58.399999999999999
    72   1      7.3000000000000114       56.57500000000001      60.225000000000001
    73   1      9.1250000000000071      54.750000000000007      60.225000000000001
    74   1      9.1250000000000071       56.57500000000001      58.399999999999999
    75   1      7.3000000000000114      54.750000000000007      62.050000000000004
    76   1      7.3000000000000114       56.57500000000001      63.875000000000007
    77   1      9.1250000000000071      54.750000000000007      63.875000000000007
    78   1      9.1250000000000071       56.57500000000001      62.050000000000004
    79   1      7.3000000000000114      54.750000000000007      65.700000000000003
    80   1      9.1250000000000071      54.750000000000007      67.525000000000006
    81   1      9.1250000000000071       56.57500000000001      65.700000000000003
    82   1      9.1250000000000071      58.399999999999999      49.275000000000013
    83   1      7.3000000000000114      58.399999999999999      51.100000000000009
    84   1      7.3000000000000114      60.225000000000001      52.925000000000011
    85   1      9.1250000000000071      58.399999999999999      52.925000000000011
    86   1      9.1250000000000071      60.225000000000001      51.100000000000009
    87   1      7.3000000000000114      58.399999999999999      54.750000000000007
    88   1      7.3000000000000114      60.225000000000001       56.57500000000001
    89   1      9.1250000000000071      58.399999999999999       56.57500000000001
    90   1      9.1250000000000071      60.225000000000001      54.750000000000007
    91   1      7.3000000000000114      58.399999999999999      58.399999999999999
    92   1      7.3000000000000114      60.225000000000001      60.225000000000001
    93   1      9.1250000000000071      58.399999999999999      60.225000000000001
    94   1      9.1250000000000071      60.225000000000001      58.399999999999999
    95   1      7.3000000000000114      58.399999999999999      62.050000000000004
    96   1      7.3000000000000114      60.225000000000001      63.875000000000007
    97   1      9.1250000000000071      58.399999999999999      63.875000000000007
    98   1      9.1250000000000071      60.225000000000001      62.050000000000004
    99   1      7.3000000000000114      58.399999999999999      65.700000000000003
   100   1      9.1250000000000071      58.399999999999999      67.525000000000006
   101   1      9.1250000000000071      60.225000000000001      65.700000000000003
   102   1      9.1250000000000071      62.050000000000004      49.275000000000013
   103   1      7.3000000000000114      62.050000000000004      51.100000000000009
   104   1      7.3000000000000114      63.875000000000007      52.925000000000011
   105   1      9.1250000000000071      62.050000000000004      52.925000000000011
   106   1      9.1250000000000071      63.875000000000007      51.100000000000009
   107   1      7.3000000000000114      62.050000000000004      54.750000000000007
   108   1      7.3000000000000114      63.875000000000007       56.57500000000001
   109   1      9.1250000000000071      62.050000000000004       56.57500000000001
   110   1      9.1250000000000071      63.875000000000007      54.750000000000007
   111   1      7.3000000000000114      62.050000000000004      58.399999999999999
   112   1      7.3000000000000114      63.875000000000007      60.225000000000001
   113   1      9.1250000000000071      62.050000000000004      60.225000000000001
   114   1      9.1250000000000071      63.875000000000007      58.399999999999999
   115   1      7.3000000000000114      62.050000000000004      62.050000000000004
   116   1      7.3000000000000114      63.875000000000007      63.875000000000007
   117   1      9.1250000000000071      62.050000000000004      63.875000000000007
   118   1      9.1250000000000071      63.875000000000007      62.050000000000004
   119   1      7.3000000000000114      62.050000000000004      65.700000000000003
   120   1      9.1250000000000071      62.050000000000004      67.525000000000006
   121   1      9.1250000000000071      63.875000000000007      65.700000000000003
   122   1      9.1250000000000071      65.700000000000003      52.925000000000011
   123   1      7.3000000000000114      65.700000000000003      54.750000000000007
   124   1      9.1250000000000071      65.700000000000003       56.57500000000001
   125   1      9.1250000000000071      67.525000000000006      54.750000000000007
   126   1      7.3000000000000114      65.700000000000003      58.399999999999999
   127   1      9.1250000000000071      65.700000000000003      60.225000000000001
   128   1      9.1250000000000071      67.525000000000006      58.399999999999999
   129   1      7.3000000000000114      65.700000000000003      62.050000000000004
   130   1      9.1250000000000071      65.700000000000003      63.875000000000007
   131   1      9.1250000000000071      67.525000000000006      62.050000000000004
   132   1      12.775000000000006      45.625000000000007      54.750000000000007
   133   1      12.775000000000006      45.625000000000007      58.399999999999999
   134   1      12.775000000000006      45.625000000000007      62.050000000000004
   135   1      10.950000000000008      49.275000000000013      52.925000000000011
   136   1      12.775000000000006       47.45000000000001      52.925000000000011
   137   1      12.775000000000006      49.275000000000013      51.100000000000009
   138   1      10.950000000000008       47.45000000000001      54.750000000000007
   139   1      10.950000000000008      49.275000000000013       56.57500000000001
   140   1      12.775000000000006       47.45000000000001       56.57500000000001
   141   1      12.775000000000006      49.275000000000013      54.750000000000007
   142   1      10.950000000000008       47.45000000000001      58.399999999999999
   143   1      10.950000000000008      49.275000000000013      60.225000000000001
   144   1      12.775000000000006       47.45000000000001      60.225000000000001
   145   1      12.775000000000006      49.275000000000013      58.399999999999999
   146   1      10.950000000000008       47.45000000000001      62.050000000000004
   147   1      10.950000000000008      49.275000000000013      63.875000000000007
   148   1      12.775000000000006       47.45000000000001      63.875000000000007
   149   1      12.775000000000006      49.275000000000013      62.050000000000004
   150   1      12.775000000000006      49.275000000000013      65.700000000000003
   151   1      10.950000000000008      52.925000000000011      49.275000000000013
   152   1      12.775000000000006      51.100000000000009      49.275000000000013
   153   1      12.775000000000006      52.925000000000011       47.45000000000001
   154   1      10.950000000000008      51.100000000000009      51.100000000000009
   155   1      10.950000000000008      52.925000000000011      52.925000000000011
   156   1      12.775000000000006      51.100000000000009      52.925000000000011
   157   1      12.775000000000006      52.925000000000011      51.100000000000009
   158   1      10.950000000000008      51.100000000000009      54.750000000000007
   159   1      10.950000000000008      52.925000000000011       56.57500000000001
   160   1      12.775000000000006      51.100000000000009       56.57500000000001
   161   1      12.775000000000006      52.925000000000011      54.750000000000007
   162   1      10.950000000000008      51.100000000000009      58.399999999999999
   163   1      10.950000000000008      52.925000000000011      60.225000000000001
   164   1      12.775000000000006      51.100000000000009      60.225000000000001
   165   1      12.775000000000006      52.925000000000011      58.399999999999999
   166   1      10.950000000000008      51.100000000000009      62.050000000000004
   167   1      10.950000000000008      52.925000000000011      63.875000000000007
   168   1      12.775000000000006      51.100000000000009      63.875000000000007
   169   1      12.775000000000006      52.925000000000011      62.050000000000004
   170   1      10.950000000000008      51.100000000000009      65.700000000000003
   171   1      10.950000000000008      52.925000000000011      67.525000000000006
   172   1      12.775000000000006      51.100000000000009      67.525000000000006
   173   1      12.775000000000006      52.925000000000011      65.700000000000003
   174   1      12.775000000000006      52.925000000000011      69.350000000000009
   175   1      12.775000000000006      54.750000000000007      45.625000000000007
   176   1      10.950000000000008      54.750000000000007       47.45000000000001
   177   1      10.950000000000008       56.57500000000001      49.275000000000013
   178   1      12.775000000000006      54.750000000000007      49.275000000000013
   179   1      12.775000000000006       56.57500000000001       47.45000000000001
   180   1      10.950000000000008      54.750000000000007      51.100000000000009
   181   1      10.950000000000008       56.57500000000001      52.925000000000011
   182   1      12.775000000000006      54.750000000000007      52.925000000000011
   183   1      12.775000000000006       56.57500000000001      51.100000000000009
   184   1      10.950000000000008      54.750000000000007      54.750000000000007
   185   1      10.950000000000008       56.57500000000001       56.57500000000001
   186   1      12.775000000000006      54.750000000000007       56.57500000000001
   187   1      12.775000000000006       56.57500000000001      54.750000000000007
   188   1      10.950000000000008      54.750000000000007      58.399999999999999
   189   1      10.950000000000008       56.57500000000001      60.225000000000001
   190   1      12.775000000000006      54.750000000000007      60.225000000000001
   191   1      12.775000000000006       56.57500000000001      58.399999999999999
   192   1      10.950000000000008      54.750000000000007      62.050000000000004
   193   1      10.950000000000008       56.57500000000001      63.875000000000007
   194   1      12.775000000000006      54.750000000000007      63.875000000000007
   195   1      12.775000000000006       56.57500000000001      62.050000000000004
   196   1      10.950000000000008      54.750000000000007      65.700000000000003
   197   1      10.950000000000008       56.57500000000001      67.525000000000006
   198   1      12.775000000000006      54.750000000000007      67.525000000000006
   199   1      12.775000000000006       56.57500000000001      65.700000000000003
   200   1      10.950000000000008      54.750000000000007      69.350000000000009
   201   1      12.775000000000006      54.750000000000007      71.175000000000011
   202   1      12.775000000000006       56.57500000000001      69.350000000000009
   203   1      12.775000000000006      58.399999999999999      45.625000000000007
   204   1      10.950000000000008      58.399999999999999       47.45000000000001
   205   1      10.950000000000008      60.225000000000001      49.275000000000013
   206   1      12.775000000000006      58.399999999999999      49.275000000000013
   207   1      12.775000000000006      60.225000000000001       47.45000000000001
   208   1      10.950000000000008      58.399999999999999      51.100000000000009
   209   1      10.950000000000008      60.225000000000001      52.925000000000011
   210   1      12.775000000000006      58.399999999999999      52.925000000000011
   211   1      12.775000000000006      60.225000000000001      51.100000000000009
   212   1      10.950000000000008      58.399999999999999      54.750000000000007
   213   1      10.950000000000008      60.225000000000001       56.57500000000001
   214   1      12.775000000000006      58.399999999999999       56.57500000000001
   215   1      12.775000000000006      60.225000000000001      54.750000000000007
   216   1      10.950000000000008      58.399999999999999      58.399999999999999
   217   1      10.950000000000008      60.225000000000001      60.225000000000001
   218   1      12.775000000000006      58.399999999999999      60.225000000000001
   219   1      12.775000000000006      60.225000000000001      58.399999999999999
   220   1      10.950000000000008      58.399999999999999      62.050000000000004
   221   1      10.950000000000008      60.225000000000001      63.875000000000007
   222   1      12.775000000000006      58.399999999999999      63.875000000000007
   223   1      12.775000000000006      60.225000000000001      62.050000000000004
   224   1      10.950000000000008      58.399999999999999      65.700000000000003
   225   1      10.950000000000008      60.225000000000001      67.525000000000006
   226   1      12.775000000000006      58.399999999999999      67.525000000000006
   227   1      12.775000000000006      60.225000000000001      65.700000000000003
   228   1      10.950000000000008      58.399999999999999      69.350000000000009
   229   1      12.775000000000006      58.399999999999999      71.175000000000011
   230   1      12.775000000000006      60.225000000000001      69.350000000000009
   231   1      12.775000000000006      62.050000000000004      45.625000000000007
   232   1      10.950000000000008      62.050000000000004       47.45000000000001
   233   1      10.950000000000008      63.875000000000007      49.275000000000013
   234   1      12.775000000000006      62.050000000000004      49.275000000000013
   235   1      12.775000000000006      63.875000000000007       47.45000000000001
   236   1      10.950000000000008      62.050000000000004      51.100000000000009
   237   1      10.950000000000008      63.875000000000007      52.925000000000011
   238   1      12.775000000000006      62.050000000000004      52.925000000000011
   239   1      12.775000000000006      63.875000000000007      51.100000000000009
   240   1      10.950000000000008      62.050000000000004      54.750000000000007
   241   1      10.950000000000008      63.875000000000007       56.57500000000001
   242   1      12.775000000000006      62.050000000000004       56.57500000000001
   243   1      12.775000000000006      63.875000000000007      54.750000000000007
   244   1      10.950000000000008      62.050000000000004      58.399999999999999
   245   1      10.950000000000008      63.875000000000007      60.225000000000001
   246   1      12.775000000000006      62.050000000000004      60.225000000000001
   247   1      12.775000000000006      63.875000000000007      58.399999999999999
   248   1      10.950000000000008      62.050000000000004      62.050000000000004
   249   1      10.950000000000008      63.875000000000007      63.875000000000007
   250   1      12.775000000000006      62.050000000000004      63.875000000000007
   251   1      12.775000000000006      63.875000000000007      62.050000000000004
   252   1      10.950000000000008      62.050000000000004      65.700000000000003
   253   1      10.950000000000008      63.875000000000007      67.525000000000006
   254   1      12.775000000000006      62.050000000000004      67.525000000000006
   255   1      12.775000000000006      63.875000000000007      65.700000000000003
   256   1      10.950000000000008      62.050000000000004      69.350000000000009
   257   1      12.775000000000006      62.050000000000004      71.175000000000011
   258   1      12.775000000000006      63.875000000000007      69.350000000000009
   259   1      12.775000000000006      65.700000000000003      49.275000000000013
   260   1      10.950000000000008      65.700000000000003      51.100000000000009
   261   1      10.950000000000008      67.525000000000006      52.925000000000011
   262   1      12.775000000000006      65.700000000000003      52.925000000000011
   263   1      12.775000000000006      67.525000000000006      51.100000000000009
   264   1      10.950000000000008      65.700000000000003      54.750000000000007
   265   1      10.950000000000008      67.525000000000006       56.57500000000001
   266   1      12.775000000000006      65.700000000000003       56.57500000000001
   267   1      12.775000000000006      67.525000000000006      54.750000000000007
   268   1      10.950000000000008      65.700000000000003      58.399999999999999
   269   1      10.950000000000008      67.525000000000006      60.225000000000001
   270   1      12.775000000000006      65.700000000000003      60.225000000000001
   271   1      12.775000000000006      67.525000000000006      58.399999999999999
   272   1      10.950000000000008      65.700000000000003      62.050000000000004
   273   1      10.950000000000008      67.525000000000006      63.875000000000007
   274   1      12.775000000000006      65.700000000000003      63.875000000000007
   275   1      12.775000000000006      67.525000000000006      62.050000000000004
   276   1      10.950000000000008      65.700000000000003      65.700000000000003
   277   1      12.775000000000006      65.700000000000003      67.525000000000006
   278   1      12.775000000000006      67.525000000000006      65.700000000000003
   279   1      12.775000000000006      69.350000000000009      52.925000000000011
   280   1      10.950000000000008      69.350000000000009      54.750000000000007
   281   1      12.775000000000006      69.350000000000009       56.57500000000001
   282   1      12.775000000000006      71.175000000000011      54.750000000000007
   283   1      10.950000000000008      69.350000000000009      58.399999999999999
   284   1      12.775000000000006      69.350000000000009      60.225000000000001
   285   1      12.775000000000006      71.175000000000011      58.399999999999999
   286   1      10.950000000000008      69.350000000000009      62.050000000000004
   287   1      12.775000000000006      69.350000000000009      63.875000000000007
   288   1      12.775000000000006      71.175000000000011      62.050000000000004
   289   1      16.425000000000011      41.975000000000009      54.750000000000007
   290   1      16.425000000000011      41.975000000000009      58.399999999999999
   291   1      16.425000000000011      41.975000000000009      62.050000000000004
   292   1      16.425000000000011      45.625000000000007       47.45000000000001
   293   1       14.60000000000001      45.625000000000007      52.925000000000011
   294   1      16.425000000000011      43.800000000000004      52.925000000000011
   295   1      16.425000000000011      45.625000000000007      51.100000000000009
   296   1       14.60000000000001      43.800000000000004      54.750000000000007
   297   1       14.60000000000001      45.625000000000007       56.57500000000001
   298   1      16.425000000000011      43.800000000000004       56.57500000000001
   299   1      16.425000000000011      45.625000000000007      54.750000000000007
   300   1       14.60000000000001      43.800000000000004      58.399999999999999
   301   1       14.60000000000001      45.625000000000007      60.225000000000001
   302   1      16.425000000000011      43.800000000000004      60.225000000000001
   303   1      16.425000000000011      45.625000000000007      58.399999999999999
   304   1       14.60000000000001      43.800000000000004      62.050000000000004
   305   1       14.60000000000001      45.625000000000007      63.875000000000007
   306   1      16.425000000000011      43.800000000000004      63.875000000000007
   307   1      16.425000000000011      45.625000000000007      62.050000000000004
   308   1      16.425000000000011      45.625000000000007      65.700000000000003
   309   1      16.425000000000011      45.625000000000007      69.350000000000009
   310   1      16.425000000000011       47.45000000000001      45.625000000000007
   311   1       14.60000000000001       47.45000000000001       47.45000000000001
   312   1       14.60000000000001      49.275000000000013      49.275000000000013
   313   1      16.425000000000011       47.45000000000001      49.275000000000013
   314   1      16.425000000000011      49.275000000000013       47.45000000000001
   315   1       14.60000000000001       47.45000000000001      51.100000000000009
   316   1       14.60000000000001      49.275000000000013      52.925000000000011
   317   1      16.425000000000011       47.45000000000001      52.925000000000011
   318   1      16.425000000000011      49.275000000000013      51.100000000000009
   319   1       14.60000000000001       47.45000000000001      54.750000000000007
   320   1       14.60000000000001      49.275000000000013       56.57500000000001
   321   1      16.425000000000011       47.45000000000001       56.57500000000001
   322   1      16.425000000000011      49.275000000000013      54.750000000000007
   323   1       14.60000000000001       47.45000000000001      58.399999999999999
   324   1       14.60000000000001      49.275000000000013      60.225000000000001
   325   1      16.425000000000011       47.45000000000001      60.225000000000001
   326   1      16.425000000000011      49.275000000000013      58.399999999999999
   327   1       14.60000000000001       47.45000000000001      62.050000000000004
   328   1       14.60000000000001      49.275000000000013      63.875000000000007
   329   1      16.425000000000011       47.45000000000001      63.875000000000007
   330   1      16.425000000000011      49.275000000000013      62.050000000000004
   331   1       14.60000000000001       47.45000000000001      65.700000000000003
   332   1       14.60000000000001      49.275000000000013      67.525000000000006
   333   1      16.425000000000011       47.45000000000001      67.525000000000006
   334   1      16.425000000000011      49.275000000000013      65.700000000000003
   335   1       14.60000000000001       47.45000000000001      69.350000000000009
   336   1      16.425000000000011       47.45000000000001      71.175000000000011
   337   1      16.425000000000011      49.275000000000013      69.350000000000009
   338   1       14.60000000000001      52.925000000000011      45.625000000000007
   339   1      16.425000000000011      51.100000000000009      45.625000000000007
   340   1      16.425000000000011      52.925000000000011      43.800000000000004
   341   1       14.60000000000001      51.100000000000009       47.45000000000001
   342   1       14.60000000000001      52.925000000000011      49.275000000000013
   343   1      16.425000000000011      51.100000000000009      49.275000000000013
   344   1      16.425000000000011      52.925000000000011       47.45000000000001
   345   1       14.60000000000001      51.100000000000009      51.100000000000009
   346   1       14.60000000000001      52.925000000000011      52.925000000000011
   347   1      16.425000000000011      51.100000000000009      52.925000000000011
   348   1      16.425000000000011      52.925000000000011      51.100000000000009
   349   1       14.60000000000001      51.100000000000009      54.750000000000007
   350   1       14.60000000000001      52.925000000000011       56.57500000000001
   351   1      16.425000000000011      51.100000000000009       56.57500000000001
   352   1      16.425000000000011      52.925000000000011      54.750000000000007
   353   1       14.60000000000001      51.100000000000009      58.399999999999999
   354   1       14.60000000000001      52.925000000000011      60.225000000000001
   355   1      16.425000000000011      51.100000000000009      60.225000000000001
   356   1      16.425000000000011      52.925000000000011      58.399999999999999
   357   1       14.60000000000001      51.100000000000009      62.050000000000004
   358   1       14.60000000000001      52.925000000000011      63.875000000000007