model_files/Fe/Fe_30000/Fe_421/data.Fe_421_fcc_30339 (written by ASE) 

30339 	 atoms 
1  atom types
0.0                      99  xlo xhi
0.0                      99  ylo yhi
0.0                      99  zlo zhi


Atoms 

     1   1      1.4349999999999954      47.354999999999997      47.354999999999997
     2   1      1.4349999999999954      47.354999999999997      50.224999999999994
     3   1      1.4349999999999954      50.224999999999994      47.354999999999997
     4   1      98.999999999999986      48.789999999999992      48.789999999999992
     5   1      1.4349999999999954      50.224999999999994      50.224999999999994
     6   1      4.3049999999999926      41.614999999999995      47.354999999999997
     7   1      4.3049999999999926      41.614999999999995      50.224999999999994
     8   1      4.3049999999999926      44.484999999999999      44.484999999999999
     9   1      4.3049999999999926      44.484999999999999      47.354999999999997
    10   1      2.8699999999999974       43.04999999999999      48.789999999999992
    11   1      4.3049999999999926      44.484999999999999      50.224999999999994
    12   1      4.3049999999999926      44.484999999999999      53.094999999999999
    13   1      4.3049999999999926      47.354999999999997      41.614999999999995
    14   1      4.3049999999999926      47.354999999999997      44.484999999999999
    15   1      2.8699999999999974      45.919999999999995      45.919999999999995
    16   1      4.3049999999999926      47.354999999999997      47.354999999999997
    17   1      2.8699999999999974      45.919999999999995      48.789999999999992
    18   1      4.3049999999999926      47.354999999999997      50.224999999999994
    19   1      2.8699999999999974      45.919999999999995      51.659999999999989
    20   1      4.3049999999999926      47.354999999999997      53.094999999999999
    21   1      4.3049999999999926      47.354999999999997      55.964999999999989
    22   1      4.3049999999999926      50.224999999999994      41.614999999999995
    23   1      2.8699999999999974      48.789999999999992       43.04999999999999
    24   1      4.3049999999999926      50.224999999999994      44.484999999999999
    25   1      2.8699999999999974      48.789999999999992      45.919999999999995
    26   1      4.3049999999999926      50.224999999999994      47.354999999999997
    27   1      2.8699999999999974      48.789999999999992      48.789999999999992
    28   1      4.3049999999999926      50.224999999999994      50.224999999999994
    29   1      2.8699999999999974      48.789999999999992      51.659999999999989
    30   1      4.3049999999999926      50.224999999999994      53.094999999999999
    31   1      2.8699999999999974      48.789999999999992      54.529999999999994
    32   1      4.3049999999999926      50.224999999999994      55.964999999999989
    33   1      4.3049999999999926      53.094999999999999      44.484999999999999
    34   1      2.8699999999999974      51.659999999999989      45.919999999999995
    35   1      4.3049999999999926      53.094999999999999      47.354999999999997
    36   1      2.8699999999999974      51.659999999999989      48.789999999999992
    37   1      4.3049999999999926      53.094999999999999      50.224999999999994
    38   1      2.8699999999999974      51.659999999999989      51.659999999999989
    39   1      4.3049999999999926      53.094999999999999      53.094999999999999
    40   1      4.3049999999999926      55.964999999999989      47.354999999999997
    41   1      2.8699999999999974      54.529999999999994      48.789999999999992
    42   1      4.3049999999999926      55.964999999999989      50.224999999999994
    43   1       7.174999999999998                  35.875      47.354999999999997
    44   1       7.174999999999998                  35.875      50.224999999999994
    45   1       7.174999999999998      38.744999999999997      41.614999999999995
    46   1       7.174999999999998      38.744999999999997      44.484999999999999
    47   1       7.174999999999998      38.744999999999997      47.354999999999997
    48   1      5.7399999999999949      37.309999999999995      48.789999999999992
    49   1       7.174999999999998      38.744999999999997      50.224999999999994
    50   1       7.174999999999998      38.744999999999997      53.094999999999999
    51   1       7.174999999999998      38.744999999999997      55.964999999999989
    52   1       7.174999999999998      41.614999999999995      38.744999999999997
    53   1       7.174999999999998      41.614999999999995      41.614999999999995
    54   1      5.7399999999999949      40.179999999999993       43.04999999999999
    55   1       7.174999999999998      41.614999999999995      44.484999999999999
    56   1      5.7399999999999949      40.179999999999993      45.919999999999995
    57   1       7.174999999999998      41.614999999999995      47.354999999999997
    58   1      5.7399999999999949      40.179999999999993      48.789999999999992
    59   1       7.174999999999998      41.614999999999995      50.224999999999994
    60   1      5.7399999999999949      40.179999999999993      51.659999999999989
    61   1       7.174999999999998      41.614999999999995      53.094999999999999
    62   1      5.7399999999999949      40.179999999999993      54.529999999999994
    63   1       7.174999999999998      41.614999999999995      55.964999999999989
    64   1       7.174999999999998      41.614999999999995      58.835000000000001
    65   1       7.174999999999998      44.484999999999999      38.744999999999997
    66   1      5.7399999999999949       43.04999999999999      40.179999999999993
    67   1       7.174999999999998      44.484999999999999      41.614999999999995
    68   1      5.7399999999999949       43.04999999999999       43.04999999999999
    69   1       7.174999999999998      44.484999999999999      44.484999999999999
    70   1      5.7399999999999949       43.04999999999999      45.919999999999995
    71   1       7.174999999999998      44.484999999999999      47.354999999999997
    72   1      5.7399999999999949       43.04999999999999      48.789999999999992
    73   1       7.174999999999998      44.484999999999999      50.224999999999994
    74   1      5.7399999999999949       43.04999999999999      51.659999999999989
    75   1       7.174999999999998      44.484999999999999      53.094999999999999
    76   1      5.7399999999999949       43.04999999999999      54.529999999999994
    77   1       7.174999999999998      44.484999999999999      55.964999999999989
    78   1      5.7399999999999949       43.04999999999999      57.399999999999999
    79   1       7.174999999999998      44.484999999999999      58.835000000000001
    80   1       7.174999999999998      47.354999999999997                  35.875
    81   1       7.174999999999998      47.354999999999997      38.744999999999997
    82   1      5.7399999999999949      45.919999999999995      40.179999999999993
    83   1       7.174999999999998      47.354999999999997      41.614999999999995
    84   1      5.7399999999999949      45.919999999999995       43.04999999999999
    85   1       7.174999999999998      47.354999999999997      44.484999999999999
    86   1      5.7399999999999949      45.919999999999995      45.919999999999995
    87   1       7.174999999999998      47.354999999999997      47.354999999999997
    88   1      5.7399999999999949      45.919999999999995      48.789999999999992
    89   1       7.174999999999998      47.354999999999997      50.224999999999994
    90   1      5.7399999999999949      45.919999999999995      51.659999999999989
    91   1       7.174999999999998      47.354999999999997      53.094999999999999
    92   1      5.7399999999999949      45.919999999999995      54.529999999999994
    93   1       7.174999999999998      47.354999999999997      55.964999999999989
    94   1      5.7399999999999949      45.919999999999995      57.399999999999999
    95   1       7.174999999999998      47.354999999999997      58.835000000000001
    96   1       7.174999999999998      47.354999999999997      61.704999999999991
    97   1       7.174999999999998      50.224999999999994                  35.875
    98   1      5.7399999999999949      48.789999999999992      37.309999999999995
    99   1       7.174999999999998      50.224999999999994      38.744999999999997
   100   1      5.7399999999999949      48.789999999999992      40.179999999999993
   101   1       7.174999999999998      50.224999999999994      41.614999999999995
   102   1      5.7399999999999949      48.789999999999992       43.04999999999999
   103   1       7.174999999999998      50.224999999999994      44.484999999999999
   104   1      5.7399999999999949      48.789999999999992      45.919999999999995
   105   1       7.174999999999998      50.224999999999994      47.354999999999997
   106   1      5.7399999999999949      48.789999999999992      48.789999999999992
   107   1       7.174999999999998      50.224999999999994      50.224999999999994
   108   1      5.7399999999999949      48.789999999999992      51.659999999999989
   109   1       7.174999999999998      50.224999999999994      53.094999999999999
   110   1      5.7399999999999949      48.789999999999992      54.529999999999994
   111   1       7.174999999999998      50.224999999999994      55.964999999999989
   112   1      5.7399999999999949      48.789999999999992      57.399999999999999
   113   1       7.174999999999998      50.224999999999994      58.835000000000001
   114   1      5.7399999999999949      48.789999999999992      60.269999999999996
   115   1       7.174999999999998      50.224999999999994      61.704999999999991
   116   1       7.174999999999998      53.094999999999999      38.744999999999997
   117   1      5.7399999999999949      51.659999999999989      40.179999999999993
   118   1       7.174999999999998      53.094999999999999      41.614999999999995
   119   1      5.7399999999999949      51.659999999999989       43.04999999999999
   120   1       7.174999999999998      53.094999999999999      44.484999999999999
   121   1      5.7399999999999949      51.659999999999989      45.919999999999995
   122   1       7.174999999999998      53.094999999999999      47.354999999999997
   123   1      5.7399999999999949      51.659999999999989      48.789999999999992
   124   1       7.174999999999998      53.094999999999999      50.224999999999994
   125   1      5.7399999999999949      51.659999999999989      51.659999999999989
   126   1       7.174999999999998      53.094999999999999      53.094999999999999
   127   1      5.7399999999999949      51.659999999999989      54.529999999999994
   128   1       7.174999999999998      53.094999999999999      55.964999999999989
   129   1      5.7399999999999949      51.659999999999989      57.399999999999999
   130   1       7.174999999999998      53.094999999999999      58.835000000000001
   131   1       7.174999999999998      55.964999999999989      38.744999999999997
   132   1      5.7399999999999949      54.529999999999994      40.179999999999993
   133   1       7.174999999999998      55.964999999999989      41.614999999999995
   134   1      5.7399999999999949      54.529999999999994       43.04999999999999
   135   1       7.174999999999998      55.964999999999989      44.484999999999999
   136   1      5.7399999999999949      54.529999999999994      45.919999999999995
   137   1       7.174999999999998      55.964999999999989      47.354999999999997
   138   1      5.7399999999999949      54.529999999999994      48.789999999999992
   139   1       7.174999999999998      55.964999999999989      50.224999999999994
   140   1      5.7399999999999949      54.529999999999994      51.659999999999989
   141   1       7.174999999999998      55.964999999999989      53.094999999999999
   142   1      5.7399999999999949      54.529999999999994      54.529999999999994
   143   1       7.174999999999998      55.964999999999989      55.964999999999989
   144   1      5.7399999999999949      54.529999999999994      57.399999999999999
   145   1       7.174999999999998      55.964999999999989      58.835000000000001
   146   1       7.174999999999998      58.835000000000001      41.614999999999995
   147   1      5.7399999999999949      57.399999999999999       43.04999999999999
   148   1       7.174999999999998      58.835000000000001      44.484999999999999
   149   1      5.7399999999999949      57.399999999999999      45.919999999999995
   150   1       7.174999999999998      58.835000000000001      47.354999999999997
   151   1      5.7399999999999949      57.399999999999999      48.789999999999992
   152   1       7.174999999999998      58.835000000000001      50.224999999999994
   153   1      5.7399999999999949      57.399999999999999      51.659999999999989
   154   1       7.174999999999998      58.835000000000001      53.094999999999999
   155   1      5.7399999999999949      57.399999999999999      54.529999999999994
   156   1       7.174999999999998      58.835000000000001      55.964999999999989
   157   1       7.174999999999998      61.704999999999991      47.354999999999997
   158   1      5.7399999999999949      60.269999999999996      48.789999999999992
   159   1       7.174999999999998      61.704999999999991      50.224999999999994
   160   1      10.044999999999996      30.134999999999994      47.354999999999997
   161   1      10.044999999999996      30.134999999999994      50.224999999999994
   162   1      10.044999999999996      33.005000000000003      41.614999999999995
   163   1      10.044999999999996      33.005000000000003      44.484999999999999
   164   1      10.044999999999996      33.005000000000003      47.354999999999997
   165   1      8.6099999999999941      31.569999999999993      48.789999999999992
   166   1      10.044999999999996      33.005000000000003      50.224999999999994
   167   1      10.044999999999996      33.005000000000003      53.094999999999999
   168   1      10.044999999999996      33.005000000000003      55.964999999999989
   169   1      10.044999999999996                  35.875                  35.875
   170   1      10.044999999999996                  35.875      38.744999999999997
   171   1      10.044999999999996                  35.875      41.614999999999995
   172   1      8.6099999999999941      34.439999999999991       43.04999999999999
   173   1      10.044999999999996                  35.875      44.484999999999999
   174   1      8.6099999999999941      34.439999999999991      45.919999999999995
   175   1      10.044999999999996                  35.875      47.354999999999997
   176   1      8.6099999999999941      34.439999999999991      48.789999999999992
   177   1      10.044999999999996                  35.875      50.224999999999994
   178   1      8.6099999999999941      34.439999999999991      51.659999999999989
   179   1      10.044999999999996                  35.875      53.094999999999999
   180   1      8.6099999999999941      34.439999999999991      54.529999999999994
   181   1      10.044999999999996                  35.875      55.964999999999989
   182   1      10.044999999999996                  35.875      58.835000000000001
   183   1      10.044999999999996                  35.875      61.704999999999991
   184   1      10.044999999999996      38.744999999999997                  35.875
   185   1      8.6099999999999941      37.309999999999995      37.309999999999995
   186   1      10.044999999999996      38.744999999999997      38.744999999999997
   187   1      8.6099999999999941      37.309999999999995      40.179999999999993
   188   1      10.044999999999996      38.744999999999997      41.614999999999995
   189   1      8.6099999999999941      37.309999999999995       43.04999999999999
   190   1      10.044999999999996      38.744999999999997      44.484999999999999
   191   1      8.6099999999999941      37.309999999999995      45.919999999999995
   192   1      10.044999999999996      38.744999999999997      47.354999999999997
   193   1      8.6099999999999941      37.309999999999995      48.789999999999992
   194   1      10.044999999999996      38.744999999999997      50.224999999999994
   195   1      8.6099999999999941      37.309999999999995      51.659999999999989
   196   1      10.044999999999996      38.744999999999997      53.094999999999999
   197   1      8.6099999999999941      37.309999999999995      54.529999999999994
   198   1      10.044999999999996      38.744999999999997      55.964999999999989
   199   1      8.6099999999999941      37.309999999999995      57.399999999999999
   200   1      10.044999999999996      38.744999999999997      58.835000000000001
   201   1      8.6099999999999941      37.309999999999995      60.269999999999996
   202   1      10.044999999999996      38.744999999999997      61.704999999999991
   203   1      10.044999999999996      41.614999999999995      33.005000000000003
   204   1      10.044999999999996      41.614999999999995                  35.875
   205   1      8.6099999999999941      40.179999999999993      37.309999999999995
   206   1      10.044999999999996      41.614999999999995      38.744999999999997
   207   1      8.6099999999999941      40.179999999999993      40.179999999999993
   208   1      10.044999999999996      41.614999999999995      41.614999999999995
   209   1      8.6099999999999941      40.179999999999993       43.04999999999999
   210   1      10.044999999999996      41.614999999999995      44.484999999999999
   211   1      8.6099999999999941      40.179999999999993      45.919999999999995
   212   1      10.044999999999996      41.614999999999995      47.354999999999997
   213   1      8.6099999999999941      40.179999999999993      48.789999999999992
   214   1      10.044999999999996      41.614999999999995      50.224999999999994
   215   1      8.6099999999999941      40.179999999999993      51.659999999999989
   216   1      10.044999999999996      41.614999999999995      53.094999999999999
   217   1      8.6099999999999941      40.179999999999993      54.529999999999994
   218   1      10.044999999999996      41.614999999999995      55.964999999999989
   219   1      8.6099999999999941      40.179999999999993      57.399999999999999
   220   1      10.044999999999996      41.614999999999995      58.835000000000001
   221   1      8.6099999999999941      40.179999999999993      60.269999999999996
   222   1      10.044999999999996      41.614999999999995      61.704999999999991
   223   1      10.044999999999996      41.614999999999995      64.574999999999989
   224   1      10.044999999999996      44.484999999999999      33.005000000000003
   225   1      8.6099999999999941       43.04999999999999      34.439999999999991
   226   1      10.044999999999996      44.484999999999999                  35.875
   227   1      8.6099999999999941       43.04999999999999      37.309999999999995
   228   1      10.044999999999996      44.484999999999999      38.744999999999997
   229   1      8.6099999999999941       43.04999999999999      40.179999999999993
   230   1      10.044999999999996      44.484999999999999      41.614999999999995
   231   1      8.6099999999999941       43.04999999999999       43.04999999999999
   232   1      10.044999999999996      44.484999999999999      44.484999999999999
   233   1      8.6099999999999941       43.04999999999999      45.919999999999995
   234   1      10.044999999999996      44.484999999999999      47.354999999999997
   235   1      8.6099999999999941       43.04999999999999      48.789999999999992
   236   1      10.044999999999996      44.484999999999999      50.224999999999994
   237   1      8.6099999999999941       43.04999999999999      51.659999999999989
   238   1      10.044999999999996      44.484999999999999      53.094999999999999
   239   1      8.6099999999999941       43.04999999999999      54.529999999999994
   240   1      10.044999999999996      44.484999999999999      55.964999999999989
   241   1      8.6099999999999941       43.04999999999999      57.399999999999999
   242   1      10.044999999999996      44.484999999999999      58.835000000000001
   243   1      8.6099999999999941       43.04999999999999      60.269999999999996
   244   1      10.044999999999996      44.484999999999999      61.704999999999991
   245   1      8.6099999999999941       43.04999999999999      63.139999999999986
   246   1      10.044999999999996      44.484999999999999      64.574999999999989
   247   1      10.044999999999996      47.354999999999997      30.134999999999994
   248   1      10.044999999999996      47.354999999999997      33.005000000000003
   249   1      8.6099999999999941      45.919999999999995      34.439999999999991
   250   1      10.044999999999996      47.354999999999997                  35.875
   251   1      8.6099999999999941      45.919999999999995      37.309999999999995
   252   1      10.044999999999996      47.354999999999997      38.744999999999997
   253   1      8.6099999999999941      45.919999999999995      40.179999999999993
   254   1      10.044999999999996      47.354999999999997      41.614999999999995
   255   1      8.6099999999999941      45.919999999999995       43.04999999999999
   256   1      10.044999999999996      47.354999999999997      44.484999999999999
   257   1      8.6099999999999941      45.919999999999995      45.919999999999995
   258   1      10.044999999999996      47.354999999999997      47.354999999999997
   259   1      8.6099999999999941      45.919999999999995      48.789999999999992
   260   1      10.044999999999996      47.354999999999997      50.224999999999994
   261   1      8.6099999999999941      45.919999999999995      51.659999999999989
   262   1      10.044999999999996      47.354999999999997      53.094999999999999
   263   1      8.6099999999999941      45.919999999999995      54.529999999999994
   264   1      10.044999999999996      47.354999999999997      55.964999999999989
   265   1      8.6099999999999941      45.919999999999995      57.399999999999999
   266   1      10.044999999999996      47.354999999999997      58.835000000000001
   267   1      8.6099999999999941      45.919999999999995      60.269999999999996
   268   1      10.044999999999996      47.354999999999997      61.704999999999991
   269   1      8.6099999999999941      45.919999999999995      63.139999999999986
   270   1      10.044999999999996      47.354999999999997      64.574999999999989
   271   1      10.044999999999996      47.354999999999997      67.444999999999993
   272   1      10.044999999999996      50.224999999999994      30.134999999999994
   273   1      8.6099999999999941      48.789999999999992      31.569999999999993
   274   1      10.044999999999996      50.224999999999994      33.005000000000003
   275   1      8.6099999999999941      48.789999999999992      34.439999999999991
   276   1      10.044999999999996      50.224999999999994                  35.875
   277   1      8.6099999999999941      48.789999999999992      37.309999999999995
   278   1      10.044999999999996      50.224999999999994      38.744999999999997
   279   1      8.6099999999999941      48.789999999999992      40.179999999999993
   280   1      10.044999999999996      50.224999999999994      41.614999999999995
   281   1      8.6099999999999941      48.789999999999992       43.04999999999999
   282   1      10.044999999999996      50.224999999999994      44.484999999999999
   283   1      8.6099999999999941      48.789999999999992      45.919999999999995
   284   1      10.044999999999996      50.224999999999994      47.354999999999997
   285   1      8.6099999999999941      48.789999999999992      48.789999999999992
   286   1      10.044999999999996      50.224999999999994      50.224999999999994
   287   1      8.6099999999999941      48.789999999999992      51.659999999999989
   288   1      10.044999999999996      50.224999999999994      53.094999999999999
   289   1      8.6099999999999941      48.789999999999992      54.529999999999994
   290   1      10.044999999999996      50.224999999999994      55.964999999999989
   291   1      8.6099999999999941      48.789999999999992      57.399999999999999
   292   1      10.044999999999996      50.224999999999994      58.835000000000001
   293   1      8.6099999999999941      48.789999999999992      60.269999999999996
   294   1      10.044999999999996      50.224999999999994      61.704999999999991
   295   1      8.6099999999999941      48.789999999999992      63.139999999999986
   296   1      10.044999999999996      50.224999999999994      64.574999999999989
   297   1      8.6099999999999941      48.789999999999992      66.010000000000005
   298   1      10.044999999999996      50.224999999999994      67.444999999999993
   299   1      10.044999999999996      53.094999999999999      33.005000000000003
   300   1      8.6099999999999941      51.659999999999989      34.439999999999991
   301   1      10.044999999999996      53.094999999999999                  35.875
   302   1      8.6099999999999941      51.659999999999989      37.309999999999995
   303   1      10.044999999999996      53.094999999999999      38.744999999999997
   304   1      8.6099999999999941      51.659999999999989      40.179999999999993
   305   1      10.044999999999996      53.094999999999999      41.614999999999995
   306   1      8.6099999999999941      51.659999999999989       43.04999999999999
   307   1      10.044999999999996      53.094999999999999      44.484999999999999
   308   1      8.6099999999999941      51.659999999999989      45.919999999999995
   309   1      10.044999999999996      53.094999999999999      47.354999999999997
   310   1      8.6099999999999941      51.659999999999989      48.789999999999992
   311   1      10.044999999999996      53.094999999999999      50.224999999999994
   312   1      8.6099999999999941      51.659999999999989      51.659999999999989
   313   1      10.044999999999996      53.094999999999999      53.094999999999999
   314   1      8.6099999999999941      51.659999999999989      54.529999999999994
   315   1      10.044999999999996      53.094999999999999      55.964999999999989
   316   1      8.6099999999999941      51.659999999999989      57.399999999999999
   317   1      10.044999999999996      53.094999999999999      58.835000000000001
   318   1      8.6099999999999941      51.659999999999989      60.269999999999996
   319   1      10.044999999999996      53.094999999999999      61.704999999999991
   320   1      8.6099999999999941      51.659999999999989      63.139999999999986
   321   1      10.044999999999996      53.094999999999999      64.574999999999989
   322   1      10.044999999999996      55.964999999999989      33.005000000000003
   323   1      8.6099999999999941      54.529999999999994      34.439999999999991
   324   1      10.044999999999996      55.964999999999989                  35.875
   325   1      8.6099999999999941      54.529999999999994      37.309999999999995
   326   1      10.044999999999996      55.964999999999989      38.744999999999997
   327   1      8.6099999999999941      54.529999999999994      40.179999999999993
   328   1      10.044999999999996      55.964999999999989      41.614999999999995
   329   1      8.6099999999999941      54.529999999999994       43.04999999999999
   330   1      10.044999999999996      55.964999999999989      44.484999999999999
   331   1      8.6099999999999941      54.529999999999994      45.919999999999995
   332   1      10.044999999999996      55.964999999999989      47.354999999999997
   333   1      8.6099999999999941      54.529999999999994      48.789999999999992
   334   1      10.044999999999996      55.964999999999989      50.224999999999994
   335   1      8.6099999999999941      54.529999999999994      51.659999999999989
   336   1      10.044999999999996      55.964999999999989      53.094999999999999
   337   1      8.6099999999999941      54.529999999999994      54.529999999999994
   338   1      10.044999999999996      55.964999999999989      55.964999999999989
   339   1      8.6099999999999941      54.529999999999994      57.399999999999999
   340   1      10.044999999999996      55.964999999999989      58.835000000000001
   341   1      8.6099999999999941      54.529999999999994      60.269999999999996
   342   1      10.044999999999996      55.964999999999989      61.704999999999991
   343   1      8.6099999999999941      54.529999999999994      63.139999999999986
   344   1      10.044999999999996      55.964999999999989      64.574999999999989
   345   1      10.044999999999996      58.835000000000001                  35.875
   346   1      8.6099999999999941      57.399999999999999      37.309999999999995
   347   1      10.044999999999996      58.835000000000001      38.744999999999997
   348   1      8.6099999999999941      57.399999999999999      40.179999999999993
   349   1      10.044999999999996      58.835000000000001      41.614999999999995
   350   1      8.6099999999999941      57.399999999999999       43.04999999999999
   351   1      10.044999999999996      58.835000000000001      44.484999999999999
   352   1      8.6099999999999941      57.399999999999999      45.919999999999995
   353   1      10.044999999999996      58.835000000000001      47.354999999999997
   354   1      8.6099999999999941      57.399999999999999      48.789999999999992
   355   1      10.044999999999996      58.835000000000001      50.224999999999994
   356   1      8.6099999999999941      57.399999999999999      51.659999999999989
   357   1      10.044999999999996      58.835000000000001      53.094999999999999
   358   1      8.6099999999999941      57.399999999999999      54.529999999999994