model_files/PtFe/PtFe_30000/PtFe_530/PtFe_530_fcc_29831_temp.data (written by ASE) 

29831 	 atoms 
2  atom types
0.0                      99  xlo xhi
0.0                      99  ylo yhi
0.0                      99  zlo zhi


Atoms 

     1   1      98.999999999999986      46.999999999999993      46.999999999999993
     2   1      1.8799999999999957       45.11999999999999      46.999999999999993
     3   1      1.8799999999999957      46.999999999999993       45.11999999999999
     4   1      98.999999999999986      46.999999999999993      50.759999999999998
     5   1      1.8799999999999957       45.11999999999999      50.759999999999998
     6   1      1.8799999999999957      46.999999999999993      48.880000000000003
     7   1      1.8799999999999957      46.999999999999993      52.640000000000001
     8   1      98.999999999999986      50.759999999999998      46.999999999999993
     9   1      1.8799999999999957      48.880000000000003      46.999999999999993
    10   1      1.8799999999999957      50.759999999999998       45.11999999999999
    11   1      98.999999999999986      48.880000000000003      48.880000000000003
    12   1      98.999999999999986      50.759999999999998      50.759999999999998
    13   1      1.8799999999999957      48.880000000000003      50.759999999999998
    14   1      1.8799999999999957      50.759999999999998      48.880000000000003
    15   1      1.8799999999999957      50.759999999999998      52.640000000000001
    16   1      1.8799999999999957      52.640000000000001      46.999999999999993
    17   1      1.8799999999999957      52.640000000000001      50.759999999999998
    18   1      5.6399999999999935      37.599999999999994      39.480000000000004
    19   1      5.6399999999999935      39.480000000000004      37.599999999999994
    20   1      5.6399999999999935      37.599999999999994      43.239999999999995
    21   1      5.6399999999999935      39.480000000000004      41.359999999999999
    22   1      5.6399999999999935      37.599999999999994      46.999999999999993
    23   1      5.6399999999999935      39.480000000000004       45.11999999999999
    24   1      5.6399999999999935      37.599999999999994      50.759999999999998
    25   1      5.6399999999999935      39.480000000000004      48.880000000000003
    26   1      5.6399999999999935      37.599999999999994      54.519999999999996
    27   1      5.6399999999999935      39.480000000000004      52.640000000000001
    28   1      5.6399999999999935      37.599999999999994      58.280000000000001
    29   1      5.6399999999999935      39.480000000000004      56.399999999999999
    30   1      5.6399999999999935      39.480000000000004      60.159999999999989
    31   1      5.6399999999999935      41.359999999999999      39.480000000000004
    32   1      5.6399999999999935      43.239999999999995      37.599999999999994
    33   1      3.7599999999999913      41.359999999999999      41.359999999999999
    34   1      3.7599999999999913      43.239999999999995      43.239999999999995
    35   1      5.6399999999999935      41.359999999999999      43.239999999999995
    36   1      5.6399999999999935      43.239999999999995      41.359999999999999
    37   1      3.7599999999999913      41.359999999999999       45.11999999999999
    38   1      3.7599999999999913      43.239999999999995      46.999999999999993
    39   1      5.6399999999999935      41.359999999999999      46.999999999999993
    40   1      5.6399999999999935      43.239999999999995       45.11999999999999
    41   1      3.7599999999999913      41.359999999999999      48.880000000000003
    42   1      3.7599999999999913      43.239999999999995      50.759999999999998
    43   1      5.6399999999999935      41.359999999999999      50.759999999999998
    44   1      5.6399999999999935      43.239999999999995      48.880000000000003
    45   1      3.7599999999999913      41.359999999999999      52.640000000000001
    46   1      3.7599999999999913      43.239999999999995      54.519999999999996
    47   1      5.6399999999999935      41.359999999999999      54.519999999999996
    48   1      5.6399999999999935      43.239999999999995      52.640000000000001
    49   1      3.7599999999999913      41.359999999999999      56.399999999999999
    50   1      5.6399999999999935      41.359999999999999      58.280000000000001
    51   1      5.6399999999999935      43.239999999999995      56.399999999999999
    52   1      5.6399999999999935      43.239999999999995      60.159999999999989
    53   1      5.6399999999999935       45.11999999999999      39.480000000000004
    54   1      5.6399999999999935      46.999999999999993      37.599999999999994
    55   1      3.7599999999999913       45.11999999999999      41.359999999999999
    56   1      3.7599999999999913      46.999999999999993      43.239999999999995
    57   1      5.6399999999999935       45.11999999999999      43.239999999999995
    58   1      5.6399999999999935      46.999999999999993      41.359999999999999
    59   1      3.7599999999999913       45.11999999999999       45.11999999999999
    60   1      3.7599999999999913      46.999999999999993      46.999999999999993
    61   1      5.6399999999999935       45.11999999999999      46.999999999999993
    62   1      5.6399999999999935      46.999999999999993       45.11999999999999
    63   1      3.7599999999999913       45.11999999999999      48.880000000000003
    64   1      3.7599999999999913      46.999999999999993      50.759999999999998
    65   1      5.6399999999999935       45.11999999999999      50.759999999999998
    66   1      5.6399999999999935      46.999999999999993      48.880000000000003
    67   1      3.7599999999999913       45.11999999999999      52.640000000000001
    68   1      3.7599999999999913      46.999999999999993      54.519999999999996
    69   1      5.6399999999999935       45.11999999999999      54.519999999999996
    70   1      5.6399999999999935      46.999999999999993      52.640000000000001
    71   1      3.7599999999999913       45.11999999999999      56.399999999999999
    72   1      5.6399999999999935       45.11999999999999      58.280000000000001
    73   1      5.6399999999999935      46.999999999999993      56.399999999999999
    74   1      5.6399999999999935      46.999999999999993      60.159999999999989
    75   1      5.6399999999999935      48.880000000000003      39.480000000000004
    76   1      5.6399999999999935      50.759999999999998      37.599999999999994
    77   1      3.7599999999999913      48.880000000000003      41.359999999999999
    78   1      3.7599999999999913      50.759999999999998      43.239999999999995
    79   1      5.6399999999999935      48.880000000000003      43.239999999999995
    80   1      5.6399999999999935      50.759999999999998      41.359999999999999
    81   1      3.7599999999999913      48.880000000000003       45.11999999999999
    82   1      3.7599999999999913      50.759999999999998      46.999999999999993
    83   1      5.6399999999999935      48.880000000000003      46.999999999999993
    84   1      5.6399999999999935      50.759999999999998       45.11999999999999
    85   1      3.7599999999999913      48.880000000000003      48.880000000000003
    86   1      3.7599999999999913      50.759999999999998      50.759999999999998
    87   1      5.6399999999999935      48.880000000000003      50.759999999999998
    88   1      5.6399999999999935      50.759999999999998      48.880000000000003
    89   1      3.7599999999999913      48.880000000000003      52.640000000000001
    90   1      3.7599999999999913      50.759999999999998      54.519999999999996
    91   1      5.6399999999999935      48.880000000000003      54.519999999999996
    92   1      5.6399999999999935      50.759999999999998      52.640000000000001
    93   1      3.7599999999999913      48.880000000000003      56.399999999999999
    94   1      5.6399999999999935      48.880000000000003      58.280000000000001
    95   1      5.6399999999999935      50.759999999999998      56.399999999999999
    96   1      5.6399999999999935      50.759999999999998      60.159999999999989
    97   1      5.6399999999999935      52.640000000000001      39.480000000000004
    98   1      5.6399999999999935      54.519999999999996      37.599999999999994
    99   1      3.7599999999999913      52.640000000000001      41.359999999999999
   100   1      3.7599999999999913      54.519999999999996      43.239999999999995
   101   1      5.6399999999999935      52.640000000000001      43.239999999999995
   102   1      5.6399999999999935      54.519999999999996      41.359999999999999
   103   1      3.7599999999999913      52.640000000000001       45.11999999999999
   104   1      3.7599999999999913      54.519999999999996      46.999999999999993
   105   1      5.6399999999999935      52.640000000000001      46.999999999999993
   106   1      5.6399999999999935      54.519999999999996       45.11999999999999
   107   1      3.7599999999999913      52.640000000000001      48.880000000000003
   108   1      3.7599999999999913      54.519999999999996      50.759999999999998
   109   1      5.6399999999999935      52.640000000000001      50.759999999999998
   110   1      5.6399999999999935      54.519999999999996      48.880000000000003
   111   1      3.7599999999999913      52.640000000000001      52.640000000000001
   112   1      3.7599999999999913      54.519999999999996      54.519999999999996
   113   1      5.6399999999999935      52.640000000000001      54.519999999999996
   114   1      5.6399999999999935      54.519999999999996      52.640000000000001
   115   1      3.7599999999999913      52.640000000000001      56.399999999999999
   116   1      5.6399999999999935      52.640000000000001      58.280000000000001
   117   1      5.6399999999999935      54.519999999999996      56.399999999999999
   118   1      5.6399999999999935      54.519999999999996      60.159999999999989
   119   1      5.6399999999999935      56.399999999999999      39.480000000000004
   120   1      5.6399999999999935      58.280000000000001      37.599999999999994
   121   1      3.7599999999999913      56.399999999999999      41.359999999999999
   122   1      5.6399999999999935      56.399999999999999      43.239999999999995
   123   1      5.6399999999999935      58.280000000000001      41.359999999999999
   124   1      3.7599999999999913      56.399999999999999       45.11999999999999
   125   1      5.6399999999999935      56.399999999999999      46.999999999999993
   126   1      5.6399999999999935      58.280000000000001       45.11999999999999
   127   1      3.7599999999999913      56.399999999999999      48.880000000000003
   128   1      5.6399999999999935      56.399999999999999      50.759999999999998
   129   1      5.6399999999999935      58.280000000000001      48.880000000000003
   130   1      3.7599999999999913      56.399999999999999      52.640000000000001
   131   1      5.6399999999999935      56.399999999999999      54.519999999999996
   132   1      5.6399999999999935      58.280000000000001      52.640000000000001
   133   1      3.7599999999999913      56.399999999999999      56.399999999999999
   134   1      5.6399999999999935      56.399999999999999      58.280000000000001
   135   1      5.6399999999999935      58.280000000000001      56.399999999999999
   136   1      5.6399999999999935      58.280000000000001      60.159999999999989
   137   1      5.6399999999999935      60.159999999999989      39.480000000000004
   138   1      5.6399999999999935      60.159999999999989      43.239999999999995
   139   1      5.6399999999999935      60.159999999999989      46.999999999999993
   140   1      5.6399999999999935      60.159999999999989      50.759999999999998
   141   1      5.6399999999999935      60.159999999999989      54.519999999999996
   142   1      5.6399999999999935      60.159999999999989      58.280000000000001
   143   1      9.3999999999999915      31.959999999999997      33.839999999999989
   144   1      9.3999999999999915      31.959999999999997      37.599999999999994
   145   1      9.3999999999999915      31.959999999999997      41.359999999999999
   146   1      9.3999999999999915      31.959999999999997       45.11999999999999
   147   1      9.3999999999999915      31.959999999999997      48.880000000000003
   148   1      9.3999999999999915      31.959999999999997      52.640000000000001
   149   1      9.3999999999999915      31.959999999999997      56.399999999999999
   150   1      9.3999999999999915      31.959999999999997      60.159999999999989
   151   1      9.3999999999999915      31.959999999999997      63.919999999999995
   152   1      9.3999999999999915      33.839999999999989      31.959999999999997
   153   1       7.519999999999996      35.719999999999992      35.719999999999992
   154   1      9.3999999999999915      33.839999999999989      35.719999999999992
   155   1      9.3999999999999915      35.719999999999992      33.839999999999989
   156   1       7.519999999999996      35.719999999999992      39.480000000000004
   157   1      9.3999999999999915      33.839999999999989      39.480000000000004
   158   1      9.3999999999999915      35.719999999999992      37.599999999999994
   159   1       7.519999999999996      35.719999999999992      43.239999999999995
   160   1      9.3999999999999915      33.839999999999989      43.239999999999995
   161   1      9.3999999999999915      35.719999999999992      41.359999999999999
   162   1       7.519999999999996      35.719999999999992      46.999999999999993
   163   1      9.3999999999999915      33.839999999999989      46.999999999999993
   164   1      9.3999999999999915      35.719999999999992       45.11999999999999
   165   1       7.519999999999996      35.719999999999992      50.759999999999998
   166   1      9.3999999999999915      33.839999999999989      50.759999999999998
   167   1      9.3999999999999915      35.719999999999992      48.880000000000003
   168   1       7.519999999999996      35.719999999999992      54.519999999999996
   169   1      9.3999999999999915      33.839999999999989      54.519999999999996
   170   1      9.3999999999999915      35.719999999999992      52.640000000000001
   171   1       7.519999999999996      35.719999999999992      58.280000000000001
   172   1      9.3999999999999915      33.839999999999989      58.280000000000001
   173   1      9.3999999999999915      35.719999999999992      56.399999999999999
   174   1       7.519999999999996      35.719999999999992      62.039999999999992
   175   1      9.3999999999999915      33.839999999999989      62.039999999999992
   176   1      9.3999999999999915      35.719999999999992      60.159999999999989
   177   1      9.3999999999999915      33.839999999999989      65.799999999999983
   178   1      9.3999999999999915      35.719999999999992      63.919999999999995
   179   1      9.3999999999999915      37.599999999999994      31.959999999999997
   180   1       7.519999999999996      39.480000000000004      35.719999999999992
   181   1      9.3999999999999915      37.599999999999994      35.719999999999992
   182   1      9.3999999999999915      39.480000000000004      33.839999999999989
   183   1       7.519999999999996      37.599999999999994      37.599999999999994
   184   1       7.519999999999996      39.480000000000004      39.480000000000004
   185   1      9.3999999999999915      37.599999999999994      39.480000000000004
   186   1      9.3999999999999915      39.480000000000004      37.599999999999994
   187   1       7.519999999999996      37.599999999999994      41.359999999999999
   188   1       7.519999999999996      39.480000000000004      43.239999999999995
   189   1      9.3999999999999915      37.599999999999994      43.239999999999995
   190   1      9.3999999999999915      39.480000000000004      41.359999999999999
   191   1       7.519999999999996      37.599999999999994       45.11999999999999
   192   1       7.519999999999996      39.480000000000004      46.999999999999993
   193   1      9.3999999999999915      37.599999999999994      46.999999999999993
   194   1      9.3999999999999915      39.480000000000004       45.11999999999999
   195   1       7.519999999999996      37.599999999999994      48.880000000000003
   196   1       7.519999999999996      39.480000000000004      50.759999999999998
   197   1      9.3999999999999915      37.599999999999994      50.759999999999998
   198   1      9.3999999999999915      39.480000000000004      48.880000000000003
   199   1       7.519999999999996      37.599999999999994      52.640000000000001
   200   1       7.519999999999996      39.480000000000004      54.519999999999996
   201   1      9.3999999999999915      37.599999999999994      54.519999999999996
   202   1      9.3999999999999915      39.480000000000004      52.640000000000001
   203   1       7.519999999999996      37.599999999999994      56.399999999999999
   204   1       7.519999999999996      39.480000000000004      58.280000000000001
   205   1      9.3999999999999915      37.599999999999994      58.280000000000001
   206   1      9.3999999999999915      39.480000000000004      56.399999999999999
   207   1       7.519999999999996      37.599999999999994      60.159999999999989
   208   1       7.519999999999996      39.480000000000004      62.039999999999992
   209   1      9.3999999999999915      37.599999999999994      62.039999999999992
   210   1      9.3999999999999915      39.480000000000004      60.159999999999989
   211   1      9.3999999999999915      37.599999999999994      65.799999999999983
   212   1      9.3999999999999915      39.480000000000004      63.919999999999995
   213   1      9.3999999999999915      41.359999999999999      31.959999999999997
   214   1       7.519999999999996      43.239999999999995      35.719999999999992
   215   1      9.3999999999999915      41.359999999999999      35.719999999999992
   216   1      9.3999999999999915      43.239999999999995      33.839999999999989
   217   1       7.519999999999996      41.359999999999999      37.599999999999994
   218   1       7.519999999999996      43.239999999999995      39.480000000000004
   219   1      9.3999999999999915      41.359999999999999      39.480000000000004
   220   1      9.3999999999999915      43.239999999999995      37.599999999999994
   221   1       7.519999999999996      41.359999999999999      41.359999999999999
   222   1       7.519999999999996      43.239999999999995      43.239999999999995
   223   1      9.3999999999999915      41.359999999999999      43.239999999999995
   224   1      9.3999999999999915      43.239999999999995      41.359999999999999
   225   1       7.519999999999996      41.359999999999999       45.11999999999999
   226   1       7.519999999999996      43.239999999999995      46.999999999999993
   227   1      9.3999999999999915      41.359999999999999      46.999999999999993
   228   1      9.3999999999999915      43.239999999999995       45.11999999999999
   229   1       7.519999999999996      41.359999999999999      48.880000000000003
   230   1       7.519999999999996      43.239999999999995      50.759999999999998
   231   1      9.3999999999999915      41.359999999999999      50.759999999999998
   232   1      9.3999999999999915      43.239999999999995      48.880000000000003
   233   1       7.519999999999996      41.359999999999999      52.640000000000001
   234   1       7.519999999999996      43.239999999999995      54.519999999999996
   235   1      9.3999999999999915      41.359999999999999      54.519999999999996
   236   1      9.3999999999999915      43.239999999999995      52.640000000000001
   237   1       7.519999999999996      41.359999999999999      56.399999999999999
   238   1       7.519999999999996      43.239999999999995      58.280000000000001
   239   1      9.3999999999999915      41.359999999999999      58.280000000000001
   240   1      9.3999999999999915      43.239999999999995      56.399999999999999
   241   1       7.519999999999996      41.359999999999999      60.159999999999989
   242   1       7.519999999999996      43.239999999999995      62.039999999999992
   243   1      9.3999999999999915      41.359999999999999      62.039999999999992
   244   1      9.3999999999999915      43.239999999999995      60.159999999999989
   245   1      9.3999999999999915      41.359999999999999      65.799999999999983
   246   1      9.3999999999999915      43.239999999999995      63.919999999999995
   247   1      9.3999999999999915       45.11999999999999      31.959999999999997
   248   1       7.519999999999996      46.999999999999993      35.719999999999992
   249   1      9.3999999999999915       45.11999999999999      35.719999999999992
   250   1      9.3999999999999915      46.999999999999993      33.839999999999989
   251   1       7.519999999999996       45.11999999999999      37.599999999999994
   252   1       7.519999999999996      46.999999999999993      39.480000000000004
   253   1      9.3999999999999915       45.11999999999999      39.480000000000004
   254   1      9.3999999999999915      46.999999999999993      37.599999999999994
   255   1       7.519999999999996       45.11999999999999      41.359999999999999
   256   1       7.519999999999996      46.999999999999993      43.239999999999995
   257   1      9.3999999999999915       45.11999999999999      43.239999999999995
   258   1      9.3999999999999915      46.999999999999993      41.359999999999999
   259   1       7.519999999999996       45.11999999999999       45.11999999999999
   260   1       7.519999999999996      46.999999999999993      46.999999999999993
   261   1      9.3999999999999915       45.11999999999999      46.999999999999993
   262   1      9.3999999999999915      46.999999999999993       45.11999999999999
   263   1       7.519999999999996       45.11999999999999      48.880000000000003
   264   1       7.519999999999996      46.999999999999993      50.759999999999998
   265   1      9.3999999999999915       45.11999999999999      50.759999999999998
   266   1      9.3999999999999915      46.999999999999993      48.880000000000003
   267   1       7.519999999999996       45.11999999999999      52.640000000000001
   268   1       7.519999999999996      46.999999999999993      54.519999999999996
   269   1      9.3999999999999915       45.11999999999999      54.519999999999996
   270   1      9.3999999999999915      46.999999999999993      52.640000000000001
   271   1       7.519999999999996       45.11999999999999      56.399999999999999
   272   1       7.519999999999996      46.999999999999993      58.280000000000001
   273   1      9.3999999999999915       45.11999999999999      58.280000000000001
   274   1      9.3999999999999915      46.999999999999993      56.399999999999999
   275   1       7.519999999999996       45.11999999999999      60.159999999999989
   276   1       7.519999999999996      46.999999999999993      62.039999999999992
   277   1      9.3999999999999915       45.11999999999999      62.039999999999992
   278   1      9.3999999999999915      46.999999999999993      60.159999999999989
   279   1      9.3999999999999915       45.11999999999999      65.799999999999983
   280   1      9.3999999999999915      46.999999999999993      63.919999999999995
   281   1      9.3999999999999915      48.880000000000003      31.959999999999997
   282   1       7.519999999999996      50.759999999999998      35.719999999999992
   283   1      9.3999999999999915      48.880000000000003      35.719999999999992
   284   1      9.3999999999999915      50.759999999999998      33.839999999999989
   285   1       7.519999999999996      48.880000000000003      37.599999999999994
   286   1       7.519999999999996      50.759999999999998      39.480000000000004
   287   1      9.3999999999999915      48.880000000000003      39.480000000000004
   288   1      9.3999999999999915      50.759999999999998      37.599999999999994
   289   1       7.519999999999996      48.880000000000003      41.359999999999999
   290   1       7.519999999999996      50.759999999999998      43.239999999999995
   291   1      9.3999999999999915      48.880000000000003      43.239999999999995
   292   1      9.3999999999999915      50.759999999999998      41.359999999999999
   293   1       7.519999999999996      48.880000000000003       45.11999999999999
   294   1       7.519999999999996      50.759999999999998      46.999999999999993
   295   1      9.3999999999999915      48.880000000000003      46.999999999999993
   296   1      9.3999999999999915      50.759999999999998       45.11999999999999
   297   1       7.519999999999996      48.880000000000003      48.880000000000003
   298   1       7.519999999999996      50.759999999999998      50.759999999999998
   299   1      9.3999999999999915      48.880000000000003      50.759999999999998
   300   1      9.3999999999999915      50.759999999999998      48.880000000000003
   301   1       7.519999999999996      48.880000000000003      52.640000000000001
   302   1       7.519999999999996      50.759999999999998      54.519999999999996
   303   1      9.3999999999999915      48.880000000000003      54.519999999999996
   304   1      9.3999999999999915      50.759999999999998      52.640000000000001
   305   1       7.519999999999996      48.880000000000003      56.399999999999999
   306   1       7.519999999999996      50.759999999999998      58.280000000000001
   307   1      9.3999999999999915      48.880000000000003      58.280000000000001
   308   1      9.3999999999999915      50.759999999999998      56.399999999999999
   309   1       7.519999999999996      48.880000000000003      60.159999999999989
   310   1       7.519999999999996      50.759999999999998      62.039999999999992
   311   1      9.3999999999999915      48.880000000000003      62.039999999999992
   312   1      9.3999999999999915      50.759999999999998      60.159999999999989
   313   1      9.3999999999999915      48.880000000000003      65.799999999999983
   314   1      9.3999999999999915      50.759999999999998      63.919999999999995
   315   1      9.3999999999999915      52.640000000000001      31.959999999999997
   316   1       7.519999999999996      54.519999999999996      35.719999999999992
   317   1      9.3999999999999915      52.640000000000001      35.719999999999992
   318   1      9.3999999999999915      54.519999999999996      33.839999999999989
   319   1       7.519999999999996      52.640000000000001      37.599999999999994
   320   1       7.519999999999996      54.519999999999996      39.480000000000004
   321   1      9.3999999999999915      52.640000000000001      39.480000000000004
   322   1      9.3999999999999915      54.519999999999996      37.599999999999994
   323   1       7.519999999999996      52.640000000000001      41.359999999999999
   324   1       7.519999999999996      54.519999999999996      43.239999999999995
   325   1      9.3999999999999915      52.640000000000001      43.239999999999995
   326   1      9.3999999999999915      54.519999999999996      41.359999999999999
   327   1       7.519999999999996      52.640000000000001       45.11999999999999
   328   1       7.519999999999996      54.519999999999996      46.999999999999993
   329   1      9.3999999999999915      52.640000000000001      46.999999999999993
   330   1      9.3999999999999915      54.519999999999996       45.11999999999999
   331   1       7.519999999999996      52.640000000000001      48.880000000000003
   332   1       7.519999999999996      54.519999999999996      50.759999999999998
   333   1      9.3999999999999915      52.640000000000001      50.759999999999998
   334   1      9.3999999999999915      54.519999999999996      48.880000000000003
   335   1       7.519999999999996      52.640000000000001      52.640000000000001
   336   1       7.519999999999996      54.519999999999996      54.519999999999996
   337   1      9.3999999999999915      52.640000000000001      54.519999999999996
   338   1      9.3999999999999915      54.519999999999996      52.640000000000001
   339   1       7.519999999999996      52.640000000000001      56.399999999999999
   340   1       7.519999999999996      54.519999999999996      58.280000000000001
   341   1      9.3999999999999915      52.640000000000001      58.280000000000001
   342   1      9.3999999999999915      54.519999999999996      56.399999999999999
   343   1       7.519999999999996      52.640000000000001      60.159999999999989
   344   1       7.519999999999996      54.519999999999996      62.039999999999992
   345   1      9.3999999999999915      52.640000000000001      62.039999999999992
   346   1      9.3999999999999915      54.519999999999996      60.159999999999989
   347   1      9.3999999999999915      52.640000000000001      65.799999999999983
   348   1      9.3999999999999915      54.519999999999996      63.919999999999995
   349   1      9.3999999999999915      56.399999999999999      31.959999999999997
   350   1       7.519999999999996      58.280000000000001      35.719999999999992
   351   1      9.3999999999999915      56.399999999999999      35.719999999999992
   352   1      9.3999999999999915      58.280000000000001      33.839999999999989
   353   1       7.519999999999996      56.399999999999999      37.599999999999994
   354   1       7.519999999999996      58.280000000000001      39.480000000000004
   355   1      9.3999999999999915      56.399999999999999      39.480000000000004
   356   1      9.3999999999999915      58.280000000000001      37.599999999999994
   357   1       7.519999999999996      56.399999999999999      41.359999999999999
   358   1       7.519999999999996      58.280000000000001      43.239999999999995