model_files/Pt/Pt_30000/Pt_321/data.Pt_321_fcc_29817 (written by ASE) 

29817 	 atoms 
1  atom types
0.0                     111  xlo xhi
0.0                     111  ylo yhi
0.0                     111  zlo zhi


Atoms 

     1   1      1.9600000000000009                      49      54.879999999999995
     2   1                       0      52.919999999999995      52.919999999999995
     3   1      1.9600000000000009      50.959999999999994      52.919999999999995
     4   1      1.9600000000000009      52.919999999999995      50.959999999999994
     5   1                       0      52.919999999999995      56.839999999999996
     6   1      1.9600000000000009      50.959999999999994      56.839999999999996
     7   1      1.9600000000000009      52.919999999999995      54.879999999999995
     8   1      1.9600000000000009      52.919999999999995       58.79999999999999
     9   1      1.9600000000000009      54.879999999999995                      49
    10   1                       0      56.839999999999996      52.919999999999995
    11   1      1.9600000000000009      54.879999999999995      52.919999999999995
    12   1      1.9600000000000009      56.839999999999996      50.959999999999994
    13   1                       0      54.879999999999995      54.879999999999995
    14   1                       0      56.839999999999996      56.839999999999996
    15   1      1.9600000000000009      54.879999999999995      56.839999999999996
    16   1      1.9600000000000009      56.839999999999996      54.879999999999995
    17   1      1.9600000000000009      54.879999999999995      60.759999999999998
    18   1      1.9600000000000009      56.839999999999996       58.79999999999999
    19   1      1.9600000000000009       58.79999999999999      52.919999999999995
    20   1      1.9600000000000009       58.79999999999999      56.839999999999996
    21   1      1.9600000000000009      60.759999999999998      54.879999999999995
    22   1      5.8799999999999955      45.079999999999998      50.959999999999994
    23   1      5.8799999999999955      45.079999999999998      54.879999999999995
    24   1      5.8799999999999955      45.079999999999998       58.79999999999999
    25   1      3.9200000000000017                      49                      49
    26   1      5.8799999999999955      47.039999999999999                      49
    27   1      5.8799999999999955                      49      47.039999999999999
    28   1      3.9200000000000017                      49      52.919999999999995
    29   1      5.8799999999999955      47.039999999999999      52.919999999999995
    30   1      5.8799999999999955                      49      50.959999999999994
    31   1      3.9200000000000017      47.039999999999999      54.879999999999995
    32   1      3.9200000000000017                      49      56.839999999999996
    33   1      5.8799999999999955      47.039999999999999      56.839999999999996
    34   1      5.8799999999999955                      49      54.879999999999995
    35   1      3.9200000000000017                      49      60.759999999999998
    36   1      5.8799999999999955      47.039999999999999      60.759999999999998
    37   1      5.8799999999999955                      49       58.79999999999999
    38   1      5.8799999999999955                      49      62.719999999999999
    39   1      5.8799999999999955      50.959999999999994      45.079999999999998
    40   1      3.9200000000000017      52.919999999999995                      49
    41   1      5.8799999999999955      50.959999999999994                      49
    42   1      5.8799999999999955      52.919999999999995      47.039999999999999
    43   1      3.9200000000000017      50.959999999999994      50.959999999999994
    44   1      3.9200000000000017      52.919999999999995      52.919999999999995
    45   1      5.8799999999999955      50.959999999999994      52.919999999999995
    46   1      5.8799999999999955      52.919999999999995      50.959999999999994
    47   1      3.9200000000000017      50.959999999999994      54.879999999999995
    48   1      3.9200000000000017      52.919999999999995      56.839999999999996
    49   1      5.8799999999999955      50.959999999999994      56.839999999999996
    50   1      5.8799999999999955      52.919999999999995      54.879999999999995
    51   1      3.9200000000000017      50.959999999999994       58.79999999999999
    52   1      3.9200000000000017      52.919999999999995      60.759999999999998
    53   1      5.8799999999999955      50.959999999999994      60.759999999999998
    54   1      5.8799999999999955      52.919999999999995       58.79999999999999
    55   1      5.8799999999999955      50.959999999999994      64.679999999999993
    56   1      5.8799999999999955      52.919999999999995      62.719999999999999
    57   1      5.8799999999999955      54.879999999999995      45.079999999999998
    58   1      3.9200000000000017      54.879999999999995      47.039999999999999
    59   1      3.9200000000000017      56.839999999999996                      49
    60   1      5.8799999999999955      54.879999999999995                      49
    61   1      5.8799999999999955      56.839999999999996      47.039999999999999
    62   1      3.9200000000000017      54.879999999999995      50.959999999999994
    63   1      3.9200000000000017      56.839999999999996      52.919999999999995
    64   1      5.8799999999999955      54.879999999999995      52.919999999999995
    65   1      5.8799999999999955      56.839999999999996      50.959999999999994
    66   1      3.9200000000000017      54.879999999999995      54.879999999999995
    67   1      3.9200000000000017      56.839999999999996      56.839999999999996
    68   1      5.8799999999999955      54.879999999999995      56.839999999999996
    69   1      5.8799999999999955      56.839999999999996      54.879999999999995
    70   1      3.9200000000000017      54.879999999999995       58.79999999999999
    71   1      3.9200000000000017      56.839999999999996      60.759999999999998
    72   1      5.8799999999999955      54.879999999999995      60.759999999999998
    73   1      5.8799999999999955      56.839999999999996       58.79999999999999
    74   1      3.9200000000000017      54.879999999999995      62.719999999999999
    75   1      5.8799999999999955      54.879999999999995      64.679999999999993
    76   1      5.8799999999999955      56.839999999999996      62.719999999999999
    77   1      5.8799999999999955       58.79999999999999      45.079999999999998
    78   1      3.9200000000000017      60.759999999999998                      49
    79   1      5.8799999999999955       58.79999999999999                      49
    80   1      5.8799999999999955      60.759999999999998      47.039999999999999
    81   1      3.9200000000000017       58.79999999999999      50.959999999999994
    82   1      3.9200000000000017      60.759999999999998      52.919999999999995
    83   1      5.8799999999999955       58.79999999999999      52.919999999999995
    84   1      5.8799999999999955      60.759999999999998      50.959999999999994
    85   1      3.9200000000000017       58.79999999999999      54.879999999999995
    86   1      3.9200000000000017      60.759999999999998      56.839999999999996
    87   1      5.8799999999999955       58.79999999999999      56.839999999999996
    88   1      5.8799999999999955      60.759999999999998      54.879999999999995
    89   1      3.9200000000000017       58.79999999999999       58.79999999999999
    90   1      3.9200000000000017      60.759999999999998      60.759999999999998
    91   1      5.8799999999999955       58.79999999999999      60.759999999999998
    92   1      5.8799999999999955      60.759999999999998       58.79999999999999
    93   1      5.8799999999999955       58.79999999999999      64.679999999999993
    94   1      5.8799999999999955      60.759999999999998      62.719999999999999
    95   1      5.8799999999999955      62.719999999999999                      49
    96   1      5.8799999999999955      62.719999999999999      52.919999999999995
    97   1      5.8799999999999955      64.679999999999993      50.959999999999994
    98   1      3.9200000000000017      62.719999999999999      54.879999999999995
    99   1      5.8799999999999955      62.719999999999999      56.839999999999996
   100   1      5.8799999999999955      64.679999999999993      54.879999999999995
   101   1      5.8799999999999955      62.719999999999999      60.759999999999998
   102   1      5.8799999999999955      64.679999999999993       58.79999999999999
   103   1      9.7999999999999972      37.240000000000002      54.879999999999995
   104   1      9.7999999999999972      41.159999999999997      47.039999999999999
   105   1      7.8399999999999972      41.159999999999997      52.919999999999995
   106   1      9.7999999999999972      39.199999999999996      52.919999999999995
   107   1      9.7999999999999972      41.159999999999997      50.959999999999994
   108   1      7.8399999999999972      41.159999999999997      56.839999999999996
   109   1      9.7999999999999972      39.199999999999996      56.839999999999996
   110   1      9.7999999999999972      41.159999999999997      54.879999999999995
   111   1      9.7999999999999972      41.159999999999997       58.79999999999999
   112   1      9.7999999999999972      41.159999999999997      62.719999999999999
   113   1      7.8399999999999972      45.079999999999998      45.079999999999998
   114   1      9.7999999999999972      43.119999999999997      45.079999999999998
   115   1      9.7999999999999972      45.079999999999998      43.119999999999997
   116   1      7.8399999999999972      45.079999999999998                      49
   117   1      9.7999999999999972      43.119999999999997                      49
   118   1      9.7999999999999972      45.079999999999998      47.039999999999999
   119   1      7.8399999999999972      43.119999999999997      50.959999999999994
   120   1      7.8399999999999972      45.079999999999998      52.919999999999995
   121   1      9.7999999999999972      43.119999999999997      52.919999999999995
   122   1      9.7999999999999972      45.079999999999998      50.959999999999994
   123   1      7.8399999999999972      43.119999999999997      54.879999999999995
   124   1      7.8399999999999972      45.079999999999998      56.839999999999996
   125   1      9.7999999999999972      43.119999999999997      56.839999999999996
   126   1      9.7999999999999972      45.079999999999998      54.879999999999995
   127   1      7.8399999999999972      43.119999999999997       58.79999999999999
   128   1      7.8399999999999972      45.079999999999998      60.759999999999998
   129   1      9.7999999999999972      43.119999999999997      60.759999999999998
   130   1      9.7999999999999972      45.079999999999998       58.79999999999999
   131   1      7.8399999999999972      45.079999999999998      64.679999999999993
   132   1      9.7999999999999972      43.119999999999997      64.679999999999993
   133   1      9.7999999999999972      45.079999999999998      62.719999999999999
   134   1      9.7999999999999972      45.079999999999998      66.640000000000001
   135   1      9.7999999999999972      47.039999999999999      41.159999999999997
   136   1      7.8399999999999972                      49      45.079999999999998
   137   1      9.7999999999999972      47.039999999999999      45.079999999999998
   138   1      9.7999999999999972                      49      43.119999999999997
   139   1      7.8399999999999972      47.039999999999999      47.039999999999999
   140   1      7.8399999999999972                      49                      49
   141   1      9.7999999999999972      47.039999999999999                      49
   142   1      9.7999999999999972                      49      47.039999999999999
   143   1      7.8399999999999972      47.039999999999999      50.959999999999994
   144   1      7.8399999999999972                      49      52.919999999999995
   145   1      9.7999999999999972      47.039999999999999      52.919999999999995
   146   1      9.7999999999999972                      49      50.959999999999994
   147   1      7.8399999999999972      47.039999999999999      54.879999999999995
   148   1      7.8399999999999972                      49      56.839999999999996
   149   1      9.7999999999999972      47.039999999999999      56.839999999999996
   150   1      9.7999999999999972                      49      54.879999999999995
   151   1      7.8399999999999972      47.039999999999999       58.79999999999999
   152   1      7.8399999999999972                      49      60.759999999999998
   153   1      9.7999999999999972      47.039999999999999      60.759999999999998
   154   1      9.7999999999999972                      49       58.79999999999999
   155   1      7.8399999999999972      47.039999999999999      62.719999999999999
   156   1      7.8399999999999972                      49      64.679999999999993
   157   1      9.7999999999999972      47.039999999999999      64.679999999999993
   158   1      9.7999999999999972                      49      62.719999999999999
   159   1      9.7999999999999972      47.039999999999999      68.599999999999994
   160   1      9.7999999999999972                      49      66.640000000000001
   161   1      7.8399999999999972      52.919999999999995      41.159999999999997
   162   1      9.7999999999999972      50.959999999999994      41.159999999999997
   163   1      9.7999999999999972      52.919999999999995      39.199999999999996
   164   1      7.8399999999999972      50.959999999999994      43.119999999999997
   165   1      7.8399999999999972      52.919999999999995      45.079999999999998
   166   1      9.7999999999999972      50.959999999999994      45.079999999999998
   167   1      9.7999999999999972      52.919999999999995      43.119999999999997
   168   1      7.8399999999999972      50.959999999999994      47.039999999999999
   169   1      7.8399999999999972      52.919999999999995                      49
   170   1      9.7999999999999972      50.959999999999994                      49
   171   1      9.7999999999999972      52.919999999999995      47.039999999999999
   172   1      7.8399999999999972      50.959999999999994      50.959999999999994
   173   1      7.8399999999999972      52.919999999999995      52.919999999999995
   174   1      9.7999999999999972      50.959999999999994      52.919999999999995
   175   1      9.7999999999999972      52.919999999999995      50.959999999999994
   176   1      7.8399999999999972      50.959999999999994      54.879999999999995
   177   1      7.8399999999999972      52.919999999999995      56.839999999999996
   178   1      9.7999999999999972      50.959999999999994      56.839999999999996
   179   1      9.7999999999999972      52.919999999999995      54.879999999999995
   180   1      7.8399999999999972      50.959999999999994       58.79999999999999
   181   1      7.8399999999999972      52.919999999999995      60.759999999999998
   182   1      9.7999999999999972      50.959999999999994      60.759999999999998
   183   1      9.7999999999999972      52.919999999999995       58.79999999999999
   184   1      7.8399999999999972      50.959999999999994      62.719999999999999
   185   1      7.8399999999999972      52.919999999999995      64.679999999999993
   186   1      9.7999999999999972      50.959999999999994      64.679999999999993
   187   1      9.7999999999999972      52.919999999999995      62.719999999999999
   188   1      7.8399999999999972      50.959999999999994      66.640000000000001
   189   1      7.8399999999999972      52.919999999999995      68.599999999999994
   190   1      9.7999999999999972      50.959999999999994      68.599999999999994
   191   1      9.7999999999999972      52.919999999999995      66.640000000000001
   192   1      9.7999999999999972      52.919999999999995      70.560000000000002
   193   1      9.7999999999999972      54.879999999999995      37.240000000000002
   194   1      7.8399999999999972      56.839999999999996      41.159999999999997
   195   1      9.7999999999999972      54.879999999999995      41.159999999999997
   196   1      9.7999999999999972      56.839999999999996      39.199999999999996
   197   1      7.8399999999999972      54.879999999999995      43.119999999999997
   198   1      7.8399999999999972      56.839999999999996      45.079999999999998
   199   1      9.7999999999999972      54.879999999999995      45.079999999999998
   200   1      9.7999999999999972      56.839999999999996      43.119999999999997
   201   1      7.8399999999999972      54.879999999999995      47.039999999999999
   202   1      7.8399999999999972      56.839999999999996                      49
   203   1      9.7999999999999972      54.879999999999995                      49
   204   1      9.7999999999999972      56.839999999999996      47.039999999999999
   205   1      7.8399999999999972      54.879999999999995      50.959999999999994
   206   1      7.8399999999999972      56.839999999999996      52.919999999999995
   207   1      9.7999999999999972      54.879999999999995      52.919999999999995
   208   1      9.7999999999999972      56.839999999999996      50.959999999999994
   209   1      7.8399999999999972      54.879999999999995      54.879999999999995
   210   1      7.8399999999999972      56.839999999999996      56.839999999999996
   211   1      9.7999999999999972      54.879999999999995      56.839999999999996
   212   1      9.7999999999999972      56.839999999999996      54.879999999999995
   213   1      7.8399999999999972      54.879999999999995       58.79999999999999
   214   1      7.8399999999999972      56.839999999999996      60.759999999999998
   215   1      9.7999999999999972      54.879999999999995      60.759999999999998
   216   1      9.7999999999999972      56.839999999999996       58.79999999999999
   217   1      7.8399999999999972      54.879999999999995      62.719999999999999
   218   1      7.8399999999999972      56.839999999999996      64.679999999999993
   219   1      9.7999999999999972      54.879999999999995      64.679999999999993
   220   1      9.7999999999999972      56.839999999999996      62.719999999999999
   221   1      7.8399999999999972      54.879999999999995      66.640000000000001
   222   1      7.8399999999999972      56.839999999999996      68.599999999999994
   223   1      9.7999999999999972      54.879999999999995      68.599999999999994
   224   1      9.7999999999999972      56.839999999999996      66.640000000000001
   225   1      9.7999999999999972      54.879999999999995      72.519999999999996
   226   1      9.7999999999999972      56.839999999999996      70.560000000000002
   227   1      9.7999999999999972       58.79999999999999      41.159999999999997
   228   1      7.8399999999999972       58.79999999999999      43.119999999999997
   229   1      7.8399999999999972      60.759999999999998      45.079999999999998
   230   1      9.7999999999999972       58.79999999999999      45.079999999999998
   231   1      9.7999999999999972      60.759999999999998      43.119999999999997
   232   1      7.8399999999999972       58.79999999999999      47.039999999999999
   233   1      7.8399999999999972      60.759999999999998                      49
   234   1      9.7999999999999972       58.79999999999999                      49
   235   1      9.7999999999999972      60.759999999999998      47.039999999999999
   236   1      7.8399999999999972       58.79999999999999      50.959999999999994
   237   1      7.8399999999999972      60.759999999999998      52.919999999999995
   238   1      9.7999999999999972       58.79999999999999      52.919999999999995
   239   1      9.7999999999999972      60.759999999999998      50.959999999999994
   240   1      7.8399999999999972       58.79999999999999      54.879999999999995
   241   1      7.8399999999999972      60.759999999999998      56.839999999999996
   242   1      9.7999999999999972       58.79999999999999      56.839999999999996
   243   1      9.7999999999999972      60.759999999999998      54.879999999999995
   244   1      7.8399999999999972       58.79999999999999       58.79999999999999
   245   1      7.8399999999999972      60.759999999999998      60.759999999999998
   246   1      9.7999999999999972       58.79999999999999      60.759999999999998
   247   1      9.7999999999999972      60.759999999999998       58.79999999999999
   248   1      7.8399999999999972       58.79999999999999      62.719999999999999
   249   1      7.8399999999999972      60.759999999999998      64.679999999999993
   250   1      9.7999999999999972       58.79999999999999      64.679999999999993
   251   1      9.7999999999999972      60.759999999999998      62.719999999999999
   252   1      7.8399999999999972       58.79999999999999      66.640000000000001
   253   1      9.7999999999999972       58.79999999999999      68.599999999999994
   254   1      9.7999999999999972      60.759999999999998      66.640000000000001
   255   1      9.7999999999999972      62.719999999999999      41.159999999999997
   256   1      7.8399999999999972      64.679999999999993      45.079999999999998
   257   1      9.7999999999999972      62.719999999999999      45.079999999999998
   258   1      9.7999999999999972      64.679999999999993      43.119999999999997
   259   1      7.8399999999999972      62.719999999999999      47.039999999999999
   260   1      7.8399999999999972      64.679999999999993                      49
   261   1      9.7999999999999972      62.719999999999999                      49
   262   1      9.7999999999999972      64.679999999999993      47.039999999999999
   263   1      7.8399999999999972      62.719999999999999      50.959999999999994
   264   1      7.8399999999999972      64.679999999999993      52.919999999999995
   265   1      9.7999999999999972      62.719999999999999      52.919999999999995
   266   1      9.7999999999999972      64.679999999999993      50.959999999999994
   267   1      7.8399999999999972      62.719999999999999      54.879999999999995
   268   1      7.8399999999999972      64.679999999999993      56.839999999999996
   269   1      9.7999999999999972      62.719999999999999      56.839999999999996
   270   1      9.7999999999999972      64.679999999999993      54.879999999999995
   271   1      7.8399999999999972      62.719999999999999       58.79999999999999
   272   1      7.8399999999999972      64.679999999999993      60.759999999999998
   273   1      9.7999999999999972      62.719999999999999      60.759999999999998
   274   1      9.7999999999999972      64.679999999999993       58.79999999999999
   275   1      7.8399999999999972      62.719999999999999      62.719999999999999
   276   1      7.8399999999999972      64.679999999999993      64.679999999999993
   277   1      9.7999999999999972      62.719999999999999      64.679999999999993
   278   1      9.7999999999999972      64.679999999999993      62.719999999999999
   279   1      9.7999999999999972      62.719999999999999      68.599999999999994
   280   1      9.7999999999999972      64.679999999999993      66.640000000000001
   281   1      9.7999999999999972      66.640000000000001      45.079999999999998
   282   1      9.7999999999999972      66.640000000000001                      49
   283   1      9.7999999999999972      68.599999999999994      47.039999999999999
   284   1      7.8399999999999972      66.640000000000001      50.959999999999994
   285   1      7.8399999999999972      68.599999999999994      52.919999999999995
   286   1      9.7999999999999972      66.640000000000001      52.919999999999995
   287   1      9.7999999999999972      68.599999999999994      50.959999999999994
   288   1      7.8399999999999972      66.640000000000001      54.879999999999995
   289   1      7.8399999999999972      68.599999999999994      56.839999999999996
   290   1      9.7999999999999972      66.640000000000001      56.839999999999996
   291   1      9.7999999999999972      68.599999999999994      54.879999999999995
   292   1      7.8399999999999972      66.640000000000001       58.79999999999999
   293   1      9.7999999999999972      66.640000000000001      60.759999999999998
   294   1      9.7999999999999972      68.599999999999994       58.79999999999999
   295   1      9.7999999999999972      66.640000000000001      64.679999999999993
   296   1      9.7999999999999972      68.599999999999994      62.719999999999999
   297   1      9.7999999999999972      70.560000000000002      52.919999999999995
   298   1      9.7999999999999972      70.560000000000002      56.839999999999996
   299   1      9.7999999999999972      72.519999999999996      54.879999999999995
   300   1      13.719999999999999                   33.32      50.959999999999994
   301   1      13.719999999999999                   33.32      54.879999999999995
   302   1      13.719999999999999                   33.32       58.79999999999999
   303   1      13.719999999999999      37.240000000000002      43.119999999999997
   304   1      11.759999999999998      37.240000000000002                      49
   305   1      13.719999999999999      35.280000000000001                      49
   306   1      13.719999999999999      37.240000000000002      47.039999999999999
   307   1      11.759999999999998      37.240000000000002      52.919999999999995
   308   1      13.719999999999999      35.280000000000001      52.919999999999995
   309   1      13.719999999999999      37.240000000000002      50.959999999999994
   310   1      11.759999999999998      35.280000000000001      54.879999999999995
   311   1      11.759999999999998      37.240000000000002      56.839999999999996
   312   1      13.719999999999999      35.280000000000001      56.839999999999996
   313   1      13.719999999999999      37.240000000000002      54.879999999999995
   314   1      11.759999999999998      37.240000000000002      60.759999999999998
   315   1      13.719999999999999      35.280000000000001      60.759999999999998
   316   1      13.719999999999999      37.240000000000002       58.79999999999999
   317   1      13.719999999999999      37.240000000000002      62.719999999999999
   318   1      13.719999999999999      37.240000000000002      66.640000000000001
   319   1      11.759999999999998      41.159999999999997      41.159999999999997
   320   1      13.719999999999999      39.199999999999996      41.159999999999997
   321   1      13.719999999999999      41.159999999999997      39.199999999999996
   322   1      11.759999999999998      41.159999999999997      45.079999999999998
   323   1      13.719999999999999      39.199999999999996      45.079999999999998
   324   1      13.719999999999999      41.159999999999997      43.119999999999997
   325   1      11.759999999999998      39.199999999999996      47.039999999999999
   326   1      11.759999999999998      41.159999999999997                      49
   327   1      13.719999999999999      39.199999999999996                      49
   328   1      13.719999999999999      41.159999999999997      47.039999999999999
   329   1      11.759999999999998      39.199999999999996      50.959999999999994
   330   1      11.759999999999998      41.159999999999997      52.919999999999995
   331   1      13.719999999999999      39.199999999999996      52.919999999999995
   332   1      13.719999999999999      41.159999999999997      50.959999999999994
   333   1      11.759999999999998      39.199999999999996      54.879999999999995
   334   1      11.759999999999998      41.159999999999997      56.839999999999996
   335   1      13.719999999999999      39.199999999999996      56.839999999999996
   336   1      13.719999999999999      41.159999999999997      54.879999999999995
   337   1      11.759999999999998      39.199999999999996       58.79999999999999
   338   1      11.759999999999998      41.159999999999997      60.759999999999998
   339   1      13.719999999999999      39.199999999999996      60.759999999999998
   340   1      13.719999999999999      41.159999999999997       58.79999999999999
   341   1      11.759999999999998      39.199999999999996      62.719999999999999
   342   1      11.759999999999998      41.159999999999997      64.679999999999993
   343   1      13.719999999999999      39.199999999999996      64.679999999999993
   344   1      13.719999999999999      41.159999999999997      62.719999999999999
   345   1      11.759999999999998      41.159999999999997      68.599999999999994
   346   1      13.719999999999999      39.199999999999996      68.599999999999994
   347   1      13.719999999999999      41.159999999999997      66.640000000000001
   348   1      13.719999999999999      41.159999999999997      70.560000000000002
   349   1      13.719999999999999      43.119999999999997      37.240000000000002
   350   1      11.759999999999998      45.079999999999998      41.159999999999997
   351   1      13.719999999999999      43.119999999999997      41.159999999999997
   352   1      13.719999999999999      45.079999999999998      39.199999999999996
   353   1      11.759999999999998      43.119999999999997      43.119999999999997
   354   1      11.759999999999998      45.079999999999998      45.079999999999998
   355   1      13.719999999999999      43.119999999999997      45.079999999999998
   356   1      13.719999999999999      45.079999999999998      43.119999999999997
   357   1      11.759999999999998      43.119999999999997      47.039999999999999
   358   1      11.759999999999998      45.079999999999998                      49