model_files/CuAu/CuAu_30000/CuAu_511/CuAu_511_fcc_30527_temp.data (written by ASE) 

30527 	 atoms 
2  atom types
0.0                      86  xlo xhi
0.0                      86  ylo yhi
0.0                      86  zlo zhi


Atoms 

     1   1  7.1054273576010019e-15      41.140000000000008      43.010000000000005
     2   1  7.1054273576010019e-15      43.010000000000005      41.140000000000008
     3   1  7.1054273576010019e-15      43.010000000000005       44.88000000000001
     4   1  7.1054273576010019e-15       44.88000000000001      43.010000000000005
     5   1      3.7400000000000091      22.440000000000012      43.010000000000005
     6   1      3.7400000000000091      24.310000000000009      41.140000000000008
     7   1      3.7400000000000091      26.180000000000007       39.27000000000001
     8   1      3.7400000000000091      24.310000000000009       44.88000000000001
     9   1      3.7400000000000091      26.180000000000007      43.010000000000005
    10   1      3.7400000000000091      26.180000000000007      46.750000000000014
    11   1      3.7400000000000091      28.050000000000011      37.400000000000013
    12   1      3.7400000000000091      29.920000000000012      35.530000000000015
    13   1      3.7400000000000091      28.050000000000011      41.140000000000008
    14   1      3.7400000000000091      29.920000000000012       39.27000000000001
    15   1      3.7400000000000091      28.050000000000011       44.88000000000001
    16   1      3.7400000000000091      29.920000000000012      43.010000000000005
    17   1      3.7400000000000091      28.050000000000011      48.620000000000005
    18   1      3.7400000000000091      29.920000000000012      46.750000000000014
    19   1      3.7400000000000091      29.920000000000012      50.490000000000009
    20   1      3.7400000000000091      31.790000000000013      33.660000000000011
    21   1      3.7400000000000091      33.660000000000011      31.790000000000013
    22   1      3.7400000000000091      31.790000000000013      37.400000000000013
    23   1      3.7400000000000091      33.660000000000011      35.530000000000015
    24   1      1.8700000000000114      33.660000000000011      41.140000000000008
    25   1      3.7400000000000091      31.790000000000013      41.140000000000008
    26   1      3.7400000000000091      33.660000000000011       39.27000000000001
    27   1      1.8700000000000114      31.790000000000013      43.010000000000005
    28   1      1.8700000000000114      33.660000000000011       44.88000000000001
    29   1      3.7400000000000091      31.790000000000013       44.88000000000001
    30   1      3.7400000000000091      33.660000000000011      43.010000000000005
    31   1      3.7400000000000091      31.790000000000013      48.620000000000005
    32   1      3.7400000000000091      33.660000000000011      46.750000000000014
    33   1      3.7400000000000091      31.790000000000013      52.360000000000007
    34   1      3.7400000000000091      33.660000000000011      50.490000000000009
    35   1      3.7400000000000091      33.660000000000011      54.230000000000004
    36   1      3.7400000000000091      35.530000000000015      29.920000000000012
    37   1      3.7400000000000091      37.400000000000013      28.050000000000011
    38   1      3.7400000000000091      35.530000000000015      33.660000000000011
    39   1      3.7400000000000091      37.400000000000013      31.790000000000013
    40   1      1.8700000000000114      37.400000000000013      37.400000000000013
    41   1      3.7400000000000091      35.530000000000015      37.400000000000013
    42   1      3.7400000000000091      37.400000000000013      35.530000000000015
    43   1      1.8700000000000114      35.530000000000015       39.27000000000001
    44   1      1.8700000000000114      37.400000000000013      41.140000000000008
    45   1      3.7400000000000091      35.530000000000015      41.140000000000008
    46   1      3.7400000000000091      37.400000000000013       39.27000000000001
    47   1      1.8700000000000114      35.530000000000015      43.010000000000005
    48   1      1.8700000000000114      37.400000000000013       44.88000000000001
    49   1      3.7400000000000091      35.530000000000015       44.88000000000001
    50   1      3.7400000000000091      37.400000000000013      43.010000000000005
    51   1      1.8700000000000114      35.530000000000015      46.750000000000014
    52   1      1.8700000000000114      37.400000000000013      48.620000000000005
    53   1      3.7400000000000091      35.530000000000015      48.620000000000005
    54   1      3.7400000000000091      37.400000000000013      46.750000000000014
    55   1      3.7400000000000091      35.530000000000015      52.360000000000007
    56   1      3.7400000000000091      37.400000000000013      50.490000000000009
    57   1      3.7400000000000091      35.530000000000015      56.100000000000009
    58   1      3.7400000000000091      37.400000000000013      54.230000000000004
    59   1      3.7400000000000091      37.400000000000013      57.970000000000013
    60   1      3.7400000000000091       39.27000000000001      26.180000000000007
    61   1      3.7400000000000091      41.140000000000008      24.310000000000009
    62   1      3.7400000000000091       39.27000000000001      29.920000000000012
    63   1      3.7400000000000091      41.140000000000008      28.050000000000011
    64   1      1.8700000000000114      41.140000000000008      33.660000000000011
    65   1      3.7400000000000091       39.27000000000001      33.660000000000011
    66   1      3.7400000000000091      41.140000000000008      31.790000000000013
    67   1      1.8700000000000114       39.27000000000001      35.530000000000015
    68   1      1.8700000000000114      41.140000000000008      37.400000000000013
    69   1      3.7400000000000091       39.27000000000001      37.400000000000013
    70   1      3.7400000000000091      41.140000000000008      35.530000000000015
    71   1      1.8700000000000114       39.27000000000001       39.27000000000001
    72   1      1.8700000000000114      41.140000000000008      41.140000000000008
    73   1      3.7400000000000091       39.27000000000001      41.140000000000008
    74   1      3.7400000000000091      41.140000000000008       39.27000000000001
    75   1      1.8700000000000114       39.27000000000001      43.010000000000005
    76   1      1.8700000000000114      41.140000000000008       44.88000000000001
    77   1      3.7400000000000091       39.27000000000001       44.88000000000001
    78   1      3.7400000000000091      41.140000000000008      43.010000000000005
    79   1      1.8700000000000114       39.27000000000001      46.750000000000014
    80   1      1.8700000000000114      41.140000000000008      48.620000000000005
    81   1      3.7400000000000091       39.27000000000001      48.620000000000005
    82   1      3.7400000000000091      41.140000000000008      46.750000000000014
    83   1      1.8700000000000114       39.27000000000001      50.490000000000009
    84   1      1.8700000000000114      41.140000000000008      52.360000000000007
    85   1      3.7400000000000091       39.27000000000001      52.360000000000007
    86   1      3.7400000000000091      41.140000000000008      50.490000000000009
    87   1      3.7400000000000091       39.27000000000001      56.100000000000009
    88   1      3.7400000000000091      41.140000000000008      54.230000000000004
    89   1      3.7400000000000091       39.27000000000001      59.840000000000003
    90   1      3.7400000000000091      41.140000000000008      57.970000000000013
    91   1      3.7400000000000091      41.140000000000008      61.710000000000015
    92   1      3.7400000000000091      43.010000000000005      22.440000000000012
    93   1      3.7400000000000091      43.010000000000005      26.180000000000007
    94   1      3.7400000000000091       44.88000000000001      24.310000000000009
    95   1      3.7400000000000091      43.010000000000005      29.920000000000012
    96   1      3.7400000000000091       44.88000000000001      28.050000000000011
    97   1      1.8700000000000114      43.010000000000005      31.790000000000013
    98   1      1.8700000000000114       44.88000000000001      33.660000000000011
    99   1      3.7400000000000091      43.010000000000005      33.660000000000011
   100   1      3.7400000000000091       44.88000000000001      31.790000000000013
   101   1      1.8700000000000114      43.010000000000005      35.530000000000015
   102   1      1.8700000000000114       44.88000000000001      37.400000000000013
   103   1      3.7400000000000091      43.010000000000005      37.400000000000013
   104   1      3.7400000000000091       44.88000000000001      35.530000000000015
   105   1      1.8700000000000114      43.010000000000005       39.27000000000001
   106   1      1.8700000000000114       44.88000000000001      41.140000000000008
   107   1      3.7400000000000091      43.010000000000005      41.140000000000008
   108   1      3.7400000000000091       44.88000000000001       39.27000000000001
   109   1      1.8700000000000114      43.010000000000005      43.010000000000005
   110   1      1.8700000000000114       44.88000000000001       44.88000000000001
   111   1      3.7400000000000091      43.010000000000005       44.88000000000001
   112   1      3.7400000000000091       44.88000000000001      43.010000000000005
   113   1      1.8700000000000114      43.010000000000005      46.750000000000014
   114   1      1.8700000000000114       44.88000000000001      48.620000000000005
   115   1      3.7400000000000091      43.010000000000005      48.620000000000005
   116   1      3.7400000000000091       44.88000000000001      46.750000000000014
   117   1      1.8700000000000114      43.010000000000005      50.490000000000009
   118   1      1.8700000000000114       44.88000000000001      52.360000000000007
   119   1      3.7400000000000091      43.010000000000005      52.360000000000007
   120   1      3.7400000000000091       44.88000000000001      50.490000000000009
   121   1      1.8700000000000114      43.010000000000005      54.230000000000004
   122   1      3.7400000000000091      43.010000000000005      56.100000000000009
   123   1      3.7400000000000091       44.88000000000001      54.230000000000004
   124   1      3.7400000000000091      43.010000000000005      59.840000000000003
   125   1      3.7400000000000091       44.88000000000001      57.970000000000013
   126   1      3.7400000000000091      43.010000000000005      63.580000000000013
   127   1      3.7400000000000091       44.88000000000001      61.710000000000015
   128   1      3.7400000000000091      46.750000000000014      26.180000000000007
   129   1      3.7400000000000091      46.750000000000014      29.920000000000012
   130   1      3.7400000000000091      48.620000000000005      28.050000000000011
   131   1      3.7400000000000091      46.750000000000014      33.660000000000011
   132   1      3.7400000000000091      48.620000000000005      31.790000000000013
   133   1      1.8700000000000114      46.750000000000014      35.530000000000015
   134   1      1.8700000000000114      48.620000000000005      37.400000000000013
   135   1      3.7400000000000091      46.750000000000014      37.400000000000013
   136   1      3.7400000000000091      48.620000000000005      35.530000000000015
   137   1      1.8700000000000114      46.750000000000014       39.27000000000001
   138   1      1.8700000000000114      48.620000000000005      41.140000000000008
   139   1      3.7400000000000091      46.750000000000014      41.140000000000008
   140   1      3.7400000000000091      48.620000000000005       39.27000000000001
   141   1      1.8700000000000114      46.750000000000014      43.010000000000005
   142   1      1.8700000000000114      48.620000000000005       44.88000000000001
   143   1      3.7400000000000091      46.750000000000014       44.88000000000001
   144   1      3.7400000000000091      48.620000000000005      43.010000000000005
   145   1      1.8700000000000114      46.750000000000014      46.750000000000014
   146   1      1.8700000000000114      48.620000000000005      48.620000000000005
   147   1      3.7400000000000091      46.750000000000014      48.620000000000005
   148   1      3.7400000000000091      48.620000000000005      46.750000000000014
   149   1      1.8700000000000114      46.750000000000014      50.490000000000009
   150   1      3.7400000000000091      46.750000000000014      52.360000000000007
   151   1      3.7400000000000091      48.620000000000005      50.490000000000009
   152   1      3.7400000000000091      46.750000000000014      56.100000000000009
   153   1      3.7400000000000091      48.620000000000005      54.230000000000004
   154   1      3.7400000000000091      46.750000000000014      59.840000000000003
   155   1      3.7400000000000091      48.620000000000005      57.970000000000013
   156   1      3.7400000000000091      50.490000000000009      29.920000000000012
   157   1      3.7400000000000091      50.490000000000009      33.660000000000011
   158   1      3.7400000000000091      52.360000000000007      31.790000000000013
   159   1      3.7400000000000091      50.490000000000009      37.400000000000013
   160   1      3.7400000000000091      52.360000000000007      35.530000000000015
   161   1      1.8700000000000114      50.490000000000009       39.27000000000001
   162   1      1.8700000000000114      52.360000000000007      41.140000000000008
   163   1      3.7400000000000091      50.490000000000009      41.140000000000008
   164   1      3.7400000000000091      52.360000000000007       39.27000000000001
   165   1      1.8700000000000114      50.490000000000009      43.010000000000005
   166   1      1.8700000000000114      52.360000000000007       44.88000000000001
   167   1      3.7400000000000091      50.490000000000009       44.88000000000001
   168   1      3.7400000000000091      52.360000000000007      43.010000000000005
   169   1      1.8700000000000114      50.490000000000009      46.750000000000014
   170   1      3.7400000000000091      50.490000000000009      48.620000000000005
   171   1      3.7400000000000091      52.360000000000007      46.750000000000014
   172   1      3.7400000000000091      50.490000000000009      52.360000000000007
   173   1      3.7400000000000091      52.360000000000007      50.490000000000009
   174   1      3.7400000000000091      50.490000000000009      56.100000000000009
   175   1      3.7400000000000091      52.360000000000007      54.230000000000004
   176   1      3.7400000000000091      54.230000000000004      33.660000000000011
   177   1      3.7400000000000091      54.230000000000004      37.400000000000013
   178   1      3.7400000000000091      56.100000000000009      35.530000000000015
   179   1      3.7400000000000091      54.230000000000004      41.140000000000008
   180   1      3.7400000000000091      56.100000000000009       39.27000000000001
   181   1      1.8700000000000114      54.230000000000004      43.010000000000005
   182   1      3.7400000000000091      54.230000000000004       44.88000000000001
   183   1      3.7400000000000091      56.100000000000009      43.010000000000005
   184   1      3.7400000000000091      54.230000000000004      48.620000000000005
   185   1      3.7400000000000091      56.100000000000009      46.750000000000014
   186   1      3.7400000000000091      54.230000000000004      52.360000000000007
   187   1      3.7400000000000091      56.100000000000009      50.490000000000009
   188   1      3.7400000000000091      57.970000000000013      37.400000000000013
   189   1      3.7400000000000091      57.970000000000013      41.140000000000008
   190   1      3.7400000000000091      59.840000000000003       39.27000000000001
   191   1      3.7400000000000091      57.970000000000013       44.88000000000001
   192   1      3.7400000000000091      59.840000000000003      43.010000000000005
   193   1      3.7400000000000091      57.970000000000013      48.620000000000005
   194   1      3.7400000000000091      59.840000000000003      46.750000000000014
   195   1      3.7400000000000091      61.710000000000015      41.140000000000008
   196   1      3.7400000000000091      61.710000000000015       44.88000000000001
   197   1      3.7400000000000091      63.580000000000013      43.010000000000005
   198   1      7.4800000000000111      7.4800000000000111       39.27000000000001
   199   1      7.4800000000000111      7.4800000000000111      43.010000000000005
   200   1      7.4800000000000111      7.4800000000000111      46.750000000000014
   201   1      7.4800000000000111      9.3500000000000085      37.400000000000013
   202   1      7.4800000000000111       11.22000000000001      35.530000000000015
   203   1      7.4800000000000111      9.3500000000000085      41.140000000000008
   204   1      7.4800000000000111       11.22000000000001       39.27000000000001
   205   1      7.4800000000000111      9.3500000000000085       44.88000000000001
   206   1      7.4800000000000111       11.22000000000001      43.010000000000005
   207   1      7.4800000000000111      9.3500000000000085      48.620000000000005
   208   1      7.4800000000000111       11.22000000000001      46.750000000000014
   209   1      7.4800000000000111       11.22000000000001      50.490000000000009
   210   1      7.4800000000000111      13.090000000000011      33.660000000000011
   211   1      7.4800000000000111      14.960000000000012      31.790000000000013
   212   1      7.4800000000000111      13.090000000000011      37.400000000000013
   213   1      7.4800000000000111      14.960000000000012      35.530000000000015
   214   1      5.6100000000000065      14.960000000000012      41.140000000000008
   215   1      7.4800000000000111      13.090000000000011      41.140000000000008
   216   1      7.4800000000000111      14.960000000000012       39.27000000000001
   217   1      5.6100000000000065      13.090000000000011      43.010000000000005
   218   1      5.6100000000000065      14.960000000000012       44.88000000000001
   219   1      7.4800000000000111      13.090000000000011       44.88000000000001
   220   1      7.4800000000000111      14.960000000000012      43.010000000000005
   221   1      7.4800000000000111      13.090000000000011      48.620000000000005
   222   1      7.4800000000000111      14.960000000000012      46.750000000000014
   223   1      7.4800000000000111      13.090000000000011      52.360000000000007
   224   1      7.4800000000000111      14.960000000000012      50.490000000000009
   225   1      7.4800000000000111      14.960000000000012      54.230000000000004
   226   1      7.4800000000000111      16.830000000000013      29.920000000000012
   227   1      7.4800000000000111      18.700000000000014      28.050000000000011
   228   1      7.4800000000000111      16.830000000000013      33.660000000000011
   229   1      7.4800000000000111      18.700000000000014      31.790000000000013
   230   1      5.6100000000000065      18.700000000000014      37.400000000000013
   231   1      7.4800000000000111      16.830000000000013      37.400000000000013
   232   1      7.4800000000000111      18.700000000000014      35.530000000000015
   233   1      5.6100000000000065      16.830000000000013       39.27000000000001
   234   1      5.6100000000000065      18.700000000000014      41.140000000000008
   235   1      7.4800000000000111      16.830000000000013      41.140000000000008
   236   1      7.4800000000000111      18.700000000000014       39.27000000000001
   237   1      5.6100000000000065      16.830000000000013      43.010000000000005
   238   1      5.6100000000000065      18.700000000000014       44.88000000000001
   239   1      7.4800000000000111      16.830000000000013       44.88000000000001
   240   1      7.4800000000000111      18.700000000000014      43.010000000000005
   241   1      5.6100000000000065      16.830000000000013      46.750000000000014
   242   1      5.6100000000000065      18.700000000000014      48.620000000000005
   243   1      7.4800000000000111      16.830000000000013      48.620000000000005
   244   1      7.4800000000000111      18.700000000000014      46.750000000000014
   245   1      7.4800000000000111      16.830000000000013      52.360000000000007
   246   1      7.4800000000000111      18.700000000000014      50.490000000000009
   247   1      7.4800000000000111      16.830000000000013      56.100000000000009
   248   1      7.4800000000000111      18.700000000000014      54.230000000000004
   249   1      7.4800000000000111      18.700000000000014      57.970000000000013
   250   1      7.4800000000000111      20.570000000000011      26.180000000000007
   251   1      7.4800000000000111      22.440000000000012      24.310000000000009
   252   1      7.4800000000000111      20.570000000000011      29.920000000000012
   253   1      7.4800000000000111      22.440000000000012      28.050000000000011
   254   1      5.6100000000000065      22.440000000000012      33.660000000000011
   255   1      7.4800000000000111      20.570000000000011      33.660000000000011
   256   1      7.4800000000000111      22.440000000000012      31.790000000000013
   257   1      5.6100000000000065      20.570000000000011      35.530000000000015
   258   1      5.6100000000000065      22.440000000000012      37.400000000000013
   259   1      7.4800000000000111      20.570000000000011      37.400000000000013
   260   1      7.4800000000000111      22.440000000000012      35.530000000000015
   261   1      5.6100000000000065      20.570000000000011       39.27000000000001
   262   1      5.6100000000000065      22.440000000000012      41.140000000000008
   263   1      7.4800000000000111      20.570000000000011      41.140000000000008
   264   1      7.4800000000000111      22.440000000000012       39.27000000000001
   265   1      5.6100000000000065      20.570000000000011      43.010000000000005
   266   1      5.6100000000000065      22.440000000000012       44.88000000000001
   267   1      7.4800000000000111      20.570000000000011       44.88000000000001
   268   1      7.4800000000000111      22.440000000000012      43.010000000000005
   269   1      5.6100000000000065      20.570000000000011      46.750000000000014
   270   1      5.6100000000000065      22.440000000000012      48.620000000000005
   271   1      7.4800000000000111      20.570000000000011      48.620000000000005
   272   1      7.4800000000000111      22.440000000000012      46.750000000000014
   273   1      5.6100000000000065      20.570000000000011      50.490000000000009
   274   1      5.6100000000000065      22.440000000000012      52.360000000000007
   275   1      7.4800000000000111      20.570000000000011      52.360000000000007
   276   1      7.4800000000000111      22.440000000000012      50.490000000000009
   277   1      7.4800000000000111      20.570000000000011      56.100000000000009
   278   1      7.4800000000000111      22.440000000000012      54.230000000000004
   279   1      7.4800000000000111      20.570000000000011      59.840000000000003
   280   1      7.4800000000000111      22.440000000000012      57.970000000000013
   281   1      7.4800000000000111      22.440000000000012      61.710000000000015
   282   1      7.4800000000000111      24.310000000000009      22.440000000000012
   283   1      7.4800000000000111      26.180000000000007      20.570000000000011
   284   1      7.4800000000000111      24.310000000000009      26.180000000000007
   285   1      7.4800000000000111      26.180000000000007      24.310000000000009
   286   1      5.6100000000000065      26.180000000000007      29.920000000000012
   287   1      7.4800000000000111      24.310000000000009      29.920000000000012
   288   1      7.4800000000000111      26.180000000000007      28.050000000000011
   289   1      5.6100000000000065      24.310000000000009      31.790000000000013
   290   1      5.6100000000000065      26.180000000000007      33.660000000000011
   291   1      7.4800000000000111      24.310000000000009      33.660000000000011
   292   1      7.4800000000000111      26.180000000000007      31.790000000000013
   293   1      5.6100000000000065      24.310000000000009      35.530000000000015
   294   1      5.6100000000000065      26.180000000000007      37.400000000000013
   295   1      7.4800000000000111      24.310000000000009      37.400000000000013
   296   1      7.4800000000000111      26.180000000000007      35.530000000000015
   297   1      5.6100000000000065      24.310000000000009       39.27000000000001
   298   1      5.6100000000000065      26.180000000000007      41.140000000000008
   299   1      7.4800000000000111      24.310000000000009      41.140000000000008
   300   1      7.4800000000000111      26.180000000000007       39.27000000000001
   301   1      5.6100000000000065      24.310000000000009      43.010000000000005
   302   1      5.6100000000000065      26.180000000000007       44.88000000000001
   303   1      7.4800000000000111      24.310000000000009       44.88000000000001
   304   1      7.4800000000000111      26.180000000000007      43.010000000000005
   305   1      5.6100000000000065      24.310000000000009      46.750000000000014
   306   1      5.6100000000000065      26.180000000000007      48.620000000000005
   307   1      7.4800000000000111      24.310000000000009      48.620000000000005
   308   1      7.4800000000000111      26.180000000000007      46.750000000000014
   309   1      5.6100000000000065      24.310000000000009      50.490000000000009
   310   1      5.6100000000000065      26.180000000000007      52.360000000000007
   311   1      7.4800000000000111      24.310000000000009      52.360000000000007
   312   1      7.4800000000000111      26.180000000000007      50.490000000000009
   313   1      5.6100000000000065      24.310000000000009      54.230000000000004
   314   1      5.6100000000000065      26.180000000000007      56.100000000000009
   315   1      7.4800000000000111      24.310000000000009      56.100000000000009
   316   1      7.4800000000000111      26.180000000000007      54.230000000000004
   317   1      7.4800000000000111      24.310000000000009      59.840000000000003
   318   1      7.4800000000000111      26.180000000000007      57.970000000000013
   319   1      7.4800000000000111      24.310000000000009      63.580000000000013
   320   1      7.4800000000000111      26.180000000000007      61.710000000000015
   321   1      7.4800000000000111      26.180000000000007      65.450000000000017
   322   1      7.4800000000000111      28.050000000000011      18.700000000000014
   323   1      7.4800000000000111      29.920000000000012      16.830000000000013
   324   1      7.4800000000000111      28.050000000000011      22.440000000000012
   325   1      7.4800000000000111      29.920000000000012      20.570000000000011
   326   1      5.6100000000000065      29.920000000000012      26.180000000000007
   327   1      7.4800000000000111      28.050000000000011      26.180000000000007
   328   1      7.4800000000000111      29.920000000000012      24.310000000000009
   329   1      5.6100000000000065      28.050000000000011      28.050000000000011
   330   1      5.6100000000000065      29.920000000000012      29.920000000000012
   331   1      7.4800000000000111      28.050000000000011      29.920000000000012
   332   1      7.4800000000000111      29.920000000000012      28.050000000000011
   333   1      5.6100000000000065      28.050000000000011      31.790000000000013
   334   1      5.6100000000000065      29.920000000000012      33.660000000000011
   335   1      7.4800000000000111      28.050000000000011      33.660000000000011
   336   1      7.4800000000000111      29.920000000000012      31.790000000000013
   337   1      5.6100000000000065      28.050000000000011      35.530000000000015
   338   1      5.6100000000000065      29.920000000000012      37.400000000000013
   339   1      7.4800000000000111      28.050000000000011      37.400000000000013
   340   1      7.4800000000000111      29.920000000000012      35.530000000000015
   341   1      5.6100000000000065      28.050000000000011       39.27000000000001
   342   1      5.6100000000000065      29.920000000000012      41.140000000000008
   343   1      7.4800000000000111      28.050000000000011      41.140000000000008
   344   1      7.4800000000000111      29.920000000000012       39.27000000000001
   345   1      5.6100000000000065      28.050000000000011      43.010000000000005
   346   1      5.6100000000000065      29.920000000000012       44.88000000000001
   347   1      7.4800000000000111      28.050000000000011       44.88000000000001
   348   1      7.4800000000000111      29.920000000000012      43.010000000000005
   349   1      5.6100000000000065      28.050000000000011      46.750000000000014
   350   1      5.6100000000000065      29.920000000000012      48.620000000000005
   351   1      7.4800000000000111      28.050000000000011      48.620000000000005
   352   1      7.4800000000000111      29.920000000000012      46.750000000000014
   353   1      5.6100000000000065      28.050000000000011      50.490000000000009
   354   1      5.6100000000000065      29.920000000000012      52.360000000000007
   355   1      7.4800000000000111      28.050000000000011      52.360000000000007
   356   1      7.4800000000000111      29.920000000000012      50.490000000000009
   357   1      5.6100000000000065      28.050000000000011      54.230000000000004
   358   1      5.6100000000000065      29.920000000000012      56.100000000000009