# LAMMPS data file written by OVITO Basic 3.12.4

3897 atoms
3 atom types

0.0 255.61 xlo xhi
0.0 74.05 ylo yhi
0.0 60.0 zlo zhi

Masses

1 183.84  # W
2 32.065  # S
3 78.96  # Se

Atoms  # atomic

1 1 65.1856622 2.033413 6.0648
2 2 66.7627759 2.9434875 7.6602
3 2 66.7627759 2.9434875 4.47
4 1 63.6111046 4.7636365 6.0648
5 2 65.1856622 5.673711 7.6602
6 2 65.1856622 5.673711 4.47
7 1 62.0339909 7.49386 6.0648
8 2 63.6111046 8.404675 7.6602
9 2 63.6111046 8.404675 4.47
10 1 60.4568772 10.224824 6.0648
11 2 62.0339909 11.1348985 7.6602
12 2 62.0339909 11.1348985 4.47
13 1 58.8797635 12.9550475 6.0648
14 2 60.4568772 13.8658625 7.6602
15 2 60.4568772 13.8658625 4.47
16 1 57.3052059 15.6860115 6.0648
17 2 58.8797635 16.596086 7.6602
18 2 58.8797635 16.596086 4.47
19 1 55.7280922 18.416235 6.0648
20 2 57.3052059 19.32705 7.6602
21 2 57.3052059 19.32705 4.47
22 1 54.1509785 21.147199 6.0648
23 2 55.7280922 22.0572735 7.6602
24 2 55.7280922 22.0572735 4.47
25 1 52.5738648 23.8774225 6.0648
26 2 54.1509785 24.787497 7.6602
27 2 54.1509785 24.787497 4.47
28 1 50.9967511 26.6083865 6.0648
29 2 52.5738648 27.518461 7.6602
30 2 52.5738648 27.518461 4.47
31 1 49.4221935 29.33861 6.0648
32 2 50.9967511 30.2486845 7.6602
33 2 50.9967511 30.2486845 4.47
34 1 47.8450798 32.069574 6.0648
35 2 49.4221935 32.9796485 7.6602
36 2 49.4221935 32.9796485 4.47
37 1 46.2679661 34.7997975 6.0648
38 2 47.8450798 35.709872 7.6602
39 2 47.8450798 35.709872 4.47
40 1 44.6908524 37.5307615 6.0648
41 2 46.2679661 38.440836 7.6602
42 2 46.2679661 38.440836 4.47
43 1 43.1162948 40.260985 6.0648
44 2 44.6908524 41.1710595 7.6602
45 2 44.6908524 41.1710595 4.47
46 1 41.5391811 42.991949 6.0648
47 2 43.1162948 43.9020235 7.6602
48 2 43.1162948 43.9020235 4.47
49 1 39.9620674 45.7221725 6.0648
50 2 41.5391811 46.632247 7.6602
51 2 41.5391811 46.632247 4.47
52 1 38.3849537 48.4531365 6.0648
53 2 39.9620674 49.363211 7.6602
54 2 39.9620674 49.363211 4.47
55 1 36.8103961 51.18336 6.0648
56 2 38.3849537 52.0934345 7.6602
57 2 38.3849537 52.0934345 4.47
58 1 35.2332824 53.914324 6.0648
59 2 36.8103961 54.8243985 7.6602
60 2 36.8103961 54.8243985 4.47
61 1 33.6561687 56.6445475 6.0648
62 2 35.2332824 57.554622 7.6602
63 2 35.2332824 57.554622 4.47
64 1 32.079055 59.3755115 6.0648
65 2 33.6561687 60.285586 7.6602
66 2 33.6561687 60.285586 4.47
67 1 30.5044974 62.105735 6.0648
68 2 32.079055 63.0158095 7.6602
69 2 32.079055 63.0158095 4.47
70 1 28.9273837 64.836699 6.0648
71 2 30.5044974 65.7467735 7.6602
72 2 30.5044974 65.7467735 4.47
73 1 27.35027 67.5669225 6.0648
74 2 28.9273837 68.476997 7.6602
75 2 28.9273837 68.476997 4.47
76 1 25.7731563 70.297146 6.0648
77 2 27.35027 71.207961 7.6602
78 2 27.35027 71.207961 4.47
79 1 68.3398896 2.033413 6.0648
80 2 69.9170033 2.9434875 7.6602
81 2 69.9170033 2.9434875 4.47
82 1 66.7627759 4.7636365 6.0648
83 2 68.3398896 5.673711 7.6602
84 2 68.3398896 5.673711 4.47
85 1 65.1856622 7.49386 6.0648
86 2 66.7627759 8.404675 7.6602
87 2 66.7627759 8.404675 4.47
88 1 63.6111046 10.224824 6.0648
89 2 65.1856622 11.1348985 7.6602
90 2 65.1856622 11.1348985 4.47
91 1 62.0339909 12.9550475 6.0648
92 2 63.6111046 13.8658625 7.6602
93 2 63.6111046 13.8658625 4.47
94 1 60.4568772 15.6860115 6.0648
95 2 62.0339909 16.596086 7.6602
96 2 62.0339909 16.596086 4.47
97 1 58.8797635 18.416235 6.0648
98 2 60.4568772 19.32705 7.6602
99 2 60.4568772 19.32705 4.47
100 1 57.3052059 21.147199 6.0648
101 2 58.8797635 22.0572735 7.6602
102 2 58.8797635 22.0572735 4.47
103 1 55.7280922 23.8774225 6.0648
104 2 57.3052059 24.787497 7.6602
105 2 57.3052059 24.787497 4.47
106 1 54.1509785 26.6083865 6.0648
107 2 55.7280922 27.518461 7.6602
108 2 55.7280922 27.518461 4.47
109 1 52.5738648 29.33861 6.0648
110 2 54.1509785 30.2486845 7.6602
111 2 54.1509785 30.2486845 4.47
112 1 50.9967511 32.069574 6.0648
113 2 52.5738648 32.9796485 7.6602
114 2 52.5738648 32.9796485 4.47
115 1 49.4221935 34.7997975 6.0648
116 2 50.9967511 35.709872 7.6602
117 2 50.9967511 35.709872 4.47
118 1 47.8450798 37.5307615 6.0648
119 2 49.4221935 38.440836 7.6602
120 2 49.4221935 38.440836 4.47
121 1 46.2679661 40.260985 6.0648
122 2 47.8450798 41.1710595 7.6602
123 2 47.8450798 41.1710595 4.47
124 1 44.6908524 42.991949 6.0648
125 2 46.2679661 43.9020235 7.6602
126 2 46.2679661 43.9020235 4.47
127 1 43.1162948 45.7221725 6.0648
128 2 44.6908524 46.632247 7.6602
129 2 44.6908524 46.632247 4.47
130 1 41.5391811 48.4531365 6.0648
131 2 43.1162948 49.363211 7.6602
132 2 43.1162948 49.363211 4.47
133 1 39.9620674 51.18336 6.0648
134 2 41.5391811 52.0934345 7.6602
135 2 41.5391811 52.0934345 4.47
136 1 38.3849537 53.914324 6.0648
137 2 39.9620674 54.8243985 7.6602
138 2 39.9620674 54.8243985 4.47
139 1 36.8103961 56.6445475 6.0648
140 2 38.3849537 57.554622 7.6602
141 2 38.3849537 57.554622 4.47
142 1 35.2332824 59.3755115 6.0648
143 2 36.8103961 60.285586 7.6602
144 2 36.8103961 60.285586 4.47
145 1 33.6561687 62.105735 6.0648
146 2 35.2332824 63.0158095 7.6602
147 2 35.2332824 63.0158095 4.47
148 1 32.079055 64.836699 6.0648
149 2 33.6561687 65.7467735 7.6602
150 2 33.6561687 65.7467735 4.47
151 1 30.5044974 67.5669225 6.0648
152 2 32.079055 68.476997 7.6602
153 2 32.079055 68.476997 4.47
154 1 28.9273837 70.297146 6.0648
155 2 30.5044974 71.207961 7.6602
156 2 30.5044974 71.207961 4.47
157 1 71.4915609 2.033413 6.0648
158 2 73.0686746 2.9434875 7.6602
159 2 73.0686746 2.9434875 4.47
160 1 69.9170033 4.7636365 6.0648
161 2 71.4915609 5.673711 7.6602
162 2 71.4915609 5.673711 4.47
163 1 68.3398896 7.49386 6.0648
164 2 69.9170033 8.404675 7.6602
165 2 69.9170033 8.404675 4.47
166 1 66.7627759 10.224824 6.0648
167 2 68.3398896 11.1348985 7.6602
168 2 68.3398896 11.1348985 4.47
169 1 65.1856622 12.9550475 6.0648
170 2 66.7627759 13.8658625 7.6602
171 2 66.7627759 13.8658625 4.47
172 1 63.6111046 15.6860115 6.0648
173 2 65.1856622 16.596086 7.6602
174 2 65.1856622 16.596086 4.47
175 1 62.0339909 18.416235 6.0648
176 2 63.6111046 19.32705 7.6602
177 2 63.6111046 19.32705 4.47
178 1 60.4568772 21.147199 6.0648
179 2 62.0339909 22.0572735 7.6602
180 2 62.0339909 22.0572735 4.47
181 1 58.8797635 23.8774225 6.0648
182 2 60.4568772 24.787497 7.6602
183 2 60.4568772 24.787497 4.47
184 1 57.3052059 26.6083865 6.0648
185 2 58.8797635 27.518461 7.6602
186 2 58.8797635 27.518461 4.47
187 1 55.7280922 29.33861 6.0648
188 2 57.3052059 30.2486845 7.6602
189 2 57.3052059 30.2486845 4.47
190 1 54.1509785 32.069574 6.0648
191 2 55.7280922 32.9796485 7.6602
192 2 55.7280922 32.9796485 4.47
193 1 52.5738648 34.7997975 6.0648
194 2 54.1509785 35.709872 7.6602
195 2 54.1509785 35.709872 4.47
196 1 50.9967511 37.5307615 6.0648
197 2 52.5738648 38.440836 7.6602
198 2 52.5738648 38.440836 4.47
199 1 49.4221935 40.260985 6.0648
200 2 50.9967511 41.1710595 7.6602
201 2 50.9967511 41.1710595 4.47
202 1 47.8450798 42.991949 6.0648
203 2 49.4221935 43.9020235 7.6602
204 2 49.4221935 43.9020235 4.47
205 1 46.2679661 45.7221725 6.0648
206 2 47.8450798 46.632247 7.6602
207 2 47.8450798 46.632247 4.47
208 1 44.6908524 48.4531365 6.0648
209 2 46.2679661 49.363211 7.6602
210 2 46.2679661 49.363211 4.47
211 1 43.1162948 51.18336 6.0648
212 2 44.6908524 52.0934345 7.6602
213 2 44.6908524 52.0934345 4.47
214 1 41.5391811 53.914324 6.0648
215 2 43.1162948 54.8243985 7.6602
216 2 43.1162948 54.8243985 4.47
217 1 39.9620674 56.6445475 6.0648
218 2 41.5391811 57.554622 7.6602
219 2 41.5391811 57.554622 4.47
220 1 38.3849537 59.3755115 6.0648
221 2 39.9620674 60.285586 7.6602
222 2 39.9620674 60.285586 4.47
223 1 36.8103961 62.105735 6.0648
224 2 38.3849537 63.0158095 7.6602
225 2 38.3849537 63.0158095 4.47
226 1 35.2332824 64.836699 6.0648
227 2 36.8103961 65.7467735 7.6602
228 2 36.8103961 65.7467735 4.47
229 1 33.6561687 67.5669225 6.0648
230 2 35.2332824 68.476997 7.6602
231 2 35.2332824 68.476997 4.47
232 1 32.079055 70.297146 6.0648
233 2 33.6561687 71.207961 7.6602
234 2 33.6561687 71.207961 4.47
235 1 74.6457883 2.033413 6.0648
236 2 76.222902 2.9434875 7.6602
237 2 76.222902 2.9434875 4.47
238 1 73.0686746 4.7636365 6.0648
239 2 74.6457883 5.673711 7.6602
240 2 74.6457883 5.673711 4.47
241 1 71.4915609 7.49386 6.0648
242 2 73.0686746 8.404675 7.6602
243 2 73.0686746 8.404675 4.47
244 1 69.9170033 10.224824 6.0648
245 2 71.4915609 11.1348985 7.6602
246 2 71.4915609 11.1348985 4.47
247 1 68.3398896 12.9550475 6.0648
248 2 69.9170033 13.8658625 7.6602
249 2 69.9170033 13.8658625 4.47
250 1 66.7627759 15.6860115 6.0648
251 2 68.3398896 16.596086 7.6602
252 2 68.3398896 16.596086 4.47
253 1 65.1856622 18.416235 6.0648
254 2 66.7627759 19.32705 7.6602
255 2 66.7627759 19.32705 4.47
256 1 63.6111046 21.147199 6.0648
257 2 65.1856622 22.0572735 7.6602
258 2 65.1856622 22.0572735 4.47
259 1 62.0339909 23.8774225 6.0648
260 2 63.6111046 24.787497 7.6602
261 2 63.6111046 24.787497 4.47
262 1 60.4568772 26.6083865 6.0648
263 2 62.0339909 27.518461 7.6602
264 2 62.0339909 27.518461 4.47
265 1 58.8797635 29.33861 6.0648
266 2 60.4568772 30.2486845 7.6602
267 2 60.4568772 30.2486845 4.47
268 1 57.3052059 32.069574 6.0648
269 2 58.8797635 32.9796485 7.6602
270 2 58.8797635 32.9796485 4.47
271 1 55.7280922 34.7997975 6.0648
272 2 57.3052059 35.709872 7.6602
273 2 57.3052059 35.709872 4.47
274 1 54.1509785 37.5307615 6.0648
275 2 55.7280922 38.440836 7.6602
276 2 55.7280922 38.440836 4.47
277 1 52.5738648 40.260985 6.0648
278 2 54.1509785 41.1710595 7.6602
279 2 54.1509785 41.1710595 4.47
280 1 50.9967511 42.991949 6.0648
281 2 52.5738648 43.9020235 7.6602
282 2 52.5738648 43.9020235 4.47
283 1 49.4221935 45.7221725 6.0648
284 2 50.9967511 46.632247 7.6602
285 2 50.9967511 46.632247 4.47
286 1 47.8450798 48.4531365 6.0648
287 2 49.4221935 49.363211 7.6602
288 2 49.4221935 49.363211 4.47
289 1 46.2679661 51.18336 6.0648
290 2 47.8450798 52.0934345 7.6602
291 2 47.8450798 52.0934345 4.47
292 1 44.6908524 53.914324 6.0648
293 2 46.2679661 54.8243985 7.6602
294 2 46.2679661 54.8243985 4.47
295 1 43.1162948 56.6445475 6.0648
296 2 44.6908524 57.554622 7.6602
297 2 44.6908524 57.554622 4.47
298 1 41.5391811 59.3755115 6.0648
299 2 43.1162948 60.285586 7.6602
300 2 43.1162948 60.285586 4.47
301 1 39.9620674 62.105735 6.0648
302 2 41.5391811 63.0158095 7.6602
303 2 41.5391811 63.0158095 4.47
304 1 38.3849537 64.836699 6.0648
305 2 39.9620674 65.7467735 7.6602
306 2 39.9620674 65.7467735 4.47
307 1 36.8103961 67.5669225 6.0648
308 2 38.3849537 68.476997 7.6602
309 2 38.3849537 68.476997 4.47
310 1 35.2332824 70.297146 6.0648
311 2 36.8103961 71.207961 7.6602
312 2 36.8103961 71.207961 4.47
313 1 77.7974596 2.033413 6.0648
314 2 79.3745733 2.9434875 7.6602
315 2 79.3745733 2.9434875 4.47
316 1 76.222902 4.7636365 6.0648
317 2 77.7974596 5.673711 7.6602
318 2 77.7974596 5.673711 4.47
319 1 74.6457883 7.49386 6.0648
320 2 76.222902 8.404675 7.6602
321 2 76.222902 8.404675 4.47
322 1 73.0686746 10.224824 6.0648
323 2 74.6457883 11.1348985 7.6602
324 2 74.6457883 11.1348985 4.47
325 1 71.4915609 12.9550475 6.0648
326 2 73.0686746 13.8658625 7.6602
327 2 73.0686746 13.8658625 4.47
328 1 69.9170033 15.6860115 6.0648
329 2 71.4915609 16.596086 7.6602
330 2 71.4915609 16.596086 4.47
331 1 68.3398896 18.416235 6.0648
332 2 69.9170033 19.32705 7.6602
333 2 69.9170033 19.32705 4.47
334 1 66.7627759 21.147199 6.0648
335 2 68.3398896 22.0572735 7.6602
336 2 68.3398896 22.0572735 4.47
337 1 65.1856622 23.8774225 6.0648
338 2 66.7627759 24.787497 7.6602
339 2 66.7627759 24.787497 4.47
340 1 63.6111046 26.6083865 6.0648
341 2 65.1856622 27.518461 7.6602
342 2 65.1856622 27.518461 4.47
343 1 62.0339909 29.33861 6.0648
344 2 63.6111046 30.2486845 7.6602
345 2 63.6111046 30.2486845 4.47
346 1 60.4568772 32.069574 6.0648
347 2 62.0339909 32.9796485 7.6602
348 2 62.0339909 32.9796485 4.47
349 1 58.8797635 34.7997975 6.0648
350 2 60.4568772 35.709872 7.6602
351 2 60.4568772 35.709872 4.47
352 1 57.3052059 37.5307615 6.0648
353 2 58.8797635 38.440836 7.6602
354 2 58.8797635 38.440836 4.47
355 1 55.7280922 40.260985 6.0648
356 2 57.3052059 41.1710595 7.6602
357 2 57.3052059 41.1710595 4.47
358 1 54.1509785 42.991949 6.0648
359 2 55.7280922 43.9020235 7.6602
360 2 55.7280922 43.9020235 4.47
361 1 52.5738648 45.7221725 6.0648
362 2 54.1509785 46.632247 7.6602
363 2 54.1509785 46.632247 4.47
364 1 50.9967511 48.4531365 6.0648
365 2 52.5738648 49.363211 7.6602
366 2 52.5738648 49.363211 4.47
367 1 49.4221935 51.18336 6.0648
368 2 50.9967511 52.0934345 7.6602
369 2 50.9967511 52.0934345 4.47
370 1 47.8450798 53.914324 6.0648
371 2 49.4221935 54.8243985 7.6602
372 2 49.4221935 54.8243985 4.47
373 1 46.2679661 56.6445475 6.0648
374 2 47.8450798 57.554622 7.6602
375 2 47.8450798 57.554622 4.47
376 1 44.6908524 59.3755115 6.0648
377 2 46.2679661 60.285586 7.6602
378 2 46.2679661 60.285586 4.47
379 1 43.1162948 62.105735 6.0648
380 2 44.6908524 63.0158095 7.6602
381 2 44.6908524 63.0158095 4.47
382 1 41.5391811 64.836699 6.0648
383 2 43.1162948 65.7467735 7.6602
384 2 43.1162948 65.7467735 4.47
385 1 39.9620674 67.5669225 6.0648
386 2 41.5391811 68.476997 7.6602
387 2 41.5391811 68.476997 4.47
388 1 38.3849537 70.297146 6.0648
389 2 39.9620674 71.207961 7.6602
390 2 39.9620674 71.207961 4.47
391 1 80.951687 2.033413 6.0648
392 2 82.5288007 2.9434875 7.6602
393 2 82.5288007 2.9434875 4.47
394 1 79.3745733 4.7636365 6.0648
395 2 80.951687 5.673711 7.6602
396 2 80.951687 5.673711 4.47
397 1 77.7974596 7.49386 6.0648
398 2 79.3745733 8.404675 7.6602
399 2 79.3745733 8.404675 4.47
400 1 76.222902 10.224824 6.0648
401 2 77.7974596 11.1348985 7.6602
402 2 77.7974596 11.1348985 4.47
403 1 74.6457883 12.9550475 6.0648
404 2 76.222902 13.8658625 7.6602
405 2 76.222902 13.8658625 4.47
406 1 73.0686746 15.6860115 6.0648
407 2 74.6457883 16.596086 7.6602
408 2 74.6457883 16.596086 4.47
409 1 71.4915609 18.416235 6.0648
410 2 73.0686746 19.32705 7.6602
411 2 73.0686746 19.32705 4.47
412 1 69.9170033 21.147199 6.0648
413 2 71.4915609 22.0572735 7.6602
414 2 71.4915609 22.0572735 4.47
415 1 68.3398896 23.8774225 6.0648
416 2 69.9170033 24.787497 7.6602
417 2 69.9170033 24.787497 4.47
418 1 66.7627759 26.6083865 6.0648
419 2 68.3398896 27.518461 7.6602
420 2 68.3398896 27.518461 4.47
421 1 65.1856622 29.33861 6.0648
422 2 66.7627759 30.2486845 7.6602
423 2 66.7627759 30.2486845 4.47
424 1 63.6111046 32.069574 6.0648
425 2 65.1856622 32.9796485 7.6602
426 2 65.1856622 32.9796485 4.47
427 1 62.0339909 34.7997975 6.0648
428 2 63.6111046 35.709872 7.6602
429 2 63.6111046 35.709872 4.47
430 1 60.4568772 37.5307615 6.0648
431 2 62.0339909 38.440836 7.6602
432 2 62.0339909 38.440836 4.47
433 1 58.8797635 40.260985 6.0648
434 2 60.4568772 41.1710595 7.6602
435 2 60.4568772 41.1710595 4.47
436 1 57.3052059 42.991949 6.0648
437 2 58.8797635 43.9020235 7.6602
438 2 58.8797635 43.9020235 4.47
439 1 55.7280922 45.7221725 6.0648
440 2 57.3052059 46.632247 7.6602
441 2 57.3052059 46.632247 4.47
442 1 54.1509785 48.4531365 6.0648
443 2 55.7280922 49.363211 7.6602
444 2 55.7280922 49.363211 4.47
445 1 52.5738648 51.18336 6.0648
446 2 54.1509785 52.0934345 7.6602
447 2 54.1509785 52.0934345 4.47
448 1 50.9967511 53.914324 6.0648
449 2 52.5738648 54.8243985 7.6602
450 2 52.5738648 54.8243985 4.47
451 1 49.4221935 56.6445475 6.0648
452 2 50.9967511 57.554622 7.6602
453 2 50.9967511 57.554622 4.47
454 1 47.8450798 59.3755115 6.0648
455 2 49.4221935 60.285586 7.6602
456 2 49.4221935 60.285586 4.47
457 1 46.2679661 62.105735 6.0648
458 2 47.8450798 63.0158095 7.6602
459 2 47.8450798 63.0158095 4.47
460 1 44.6908524 64.836699 6.0648
461 2 46.2679661 65.7467735 7.6602
462 2 46.2679661 65.7467735 4.47
463 1 43.1162948 67.5669225 6.0648
464 2 44.6908524 68.476997 7.6602
465 2 44.6908524 68.476997 4.47
466 1 41.5391811 70.297146 6.0648
467 2 43.1162948 71.207961 7.6602
468 2 43.1162948 71.207961 4.47
469 1 84.1033583 2.033413 6.0648
470 2 85.680472 2.9434875 7.6602
471 2 85.680472 2.9434875 4.47
472 1 82.5288007 4.7636365 6.0648
473 2 84.1033583 5.673711 7.6602
474 2 84.1033583 5.673711 4.47
475 1 80.951687 7.49386 6.0648
476 2 82.5288007 8.404675 7.6602
477 2 82.5288007 8.404675 4.47
478 1 79.3745733 10.224824 6.0648
479 2 80.951687 11.1348985 7.6602
480 2 80.951687 11.1348985 4.47
481 1 77.7974596 12.9550475 6.0648
482 2 79.3745733 13.8658625 7.6602
483 2 79.3745733 13.8658625 4.47
484 1 76.222902 15.6860115 6.0648
485 2 77.7974596 16.596086 7.6602
486 2 77.7974596 16.596086 4.47
487 1 74.6457883 18.416235 6.0648
488 2 76.222902 19.32705 7.6602
489 2 76.222902 19.32705 4.47
490 1 73.0686746 21.147199 6.0648
491 2 74.6457883 22.0572735 7.6602
492 2 74.6457883 22.0572735 4.47
493 1 71.4915609 23.8774225 6.0648
494 2 73.0686746 24.787497 7.6602
495 2 73.0686746 24.787497 4.47
496 1 69.9170033 26.6083865 6.0648
497 2 71.4915609 27.518461 7.6602
498 2 71.4915609 27.518461 4.47
499 1 68.3398896 29.33861 6.0648
500 2 69.9170033 30.2486845 7.6602
501 2 69.9170033 30.2486845 4.47
502 1 66.7627759 32.069574 6.0648
503 2 68.3398896 32.9796485 7.6602
504 2 68.3398896 32.9796485 4.47
505 1 65.1856622 34.7997975 6.0648
506 2 66.7627759 35.709872 7.6602
507 2 66.7627759 35.709872 4.47
508 1 63.6111046 37.5307615 6.0648
509 2 65.1856622 38.440836 7.6602
510 2 65.1856622 38.440836 4.47
511 1 62.0339909 40.260985 6.0648
512 2 63.6111046 41.1710595 7.6602
513 2 63.6111046 41.1710595 4.47
514 1 60.4568772 42.991949 6.0648
515 2 62.0339909 43.9020235 7.6602
516 2 62.0339909 43.9020235 4.47
517 1 58.8797635 45.7221725 6.0648
518 2 60.4568772 46.632247 7.6602
519 2 60.4568772 46.632247 4.47
520 1 57.3052059 48.4531365 6.0648
521 2 58.8797635 49.363211 7.6602
522 2 58.8797635 49.363211 4.47
523 1 55.7280922 51.18336 6.0648
524 2 57.3052059 52.0934345 7.6602
525 2 57.3052059 52.0934345 4.47
526 1 54.1509785 53.914324 6.0648
527 2 55.7280922 54.8243985 7.6602
528 2 55.7280922 54.8243985 4.47
529 1 52.5738648 56.6445475 6.0648
530 2 54.1509785 57.554622 7.6602
531 2 54.1509785 57.554622 4.47
532 1 50.9967511 59.3755115 6.0648
533 2 52.5738648 60.285586 7.6602
534 2 52.5738648 60.285586 4.47
535 1 49.4221935 62.105735 6.0648
536 2 50.9967511 63.0158095 7.6602
537 2 50.9967511 63.0158095 4.47
538 1 47.8450798 64.836699 6.0648
539 2 49.4221935 65.7467735 7.6602
540 2 49.4221935 65.7467735 4.47
541 1 46.2679661 67.5669225 6.0648
542 2 47.8450798 68.476997 7.6602
543 2 47.8450798 68.476997 4.47
544 1 44.6908524 70.297146 6.0648
545 2 46.2679661 71.207961 7.6602
546 2 46.2679661 71.207961 4.47
547 1 87.2575857 2.033413 6.0648
548 2 88.8346994 2.9434875 7.6602
549 2 88.8346994 2.9434875 4.47
550 1 85.680472 4.7636365 6.0648
551 2 87.2575857 5.673711 7.6602
552 2 87.2575857 5.673711 4.47
553 1 84.1033583 7.49386 6.0648
554 2 85.680472 8.404675 7.6602
555 2 85.680472 8.404675 4.47
556 1 82.5288007 10.224824 6.0648
557 2 84.1033583 11.1348985 7.6602
558 2 84.1033583 11.1348985 4.47
559 1 80.951687 12.9550475 6.0648
560 2 82.5288007 13.8658625 7.6602
561 2 82.5288007 13.8658625 4.47
562 1 79.3745733 15.6860115 6.0648
563 2 80.951687 16.596086 7.6602
564 2 80.951687 16.596086 4.47
565 1 77.7974596 18.416235 6.0648
566 2 79.3745733 19.32705 7.6602
567 2 79.3745733 19.32705 4.47
568 1 76.222902 21.147199 6.0648
569 2 77.7974596 22.0572735 7.6602
570 2 77.7974596 22.0572735 4.47
571 1 74.6457883 23.8774225 6.0648
572 2 76.222902 24.787497 7.6602
573 2 76.222902 24.787497 4.47
574 1 73.0686746 26.6083865 6.0648
575 2 74.6457883 27.518461 7.6602
576 2 74.6457883 27.518461 4.47
577 1 71.4915609 29.33861 6.0648
578 2 73.0686746 30.2486845 7.6602
579 2 73.0686746 30.2486845 4.47
580 1 69.9170033 32.069574 6.0648
581 2 71.4915609 32.9796485 7.6602
582 2 71.4915609 32.9796485 4.47
583 1 68.3398896 34.7997975 6.0648
584 2 69.9170033 35.709872 7.6602
585 2 69.9170033 35.709872 4.47
586 1 66.7627759 37.5307615 6.0648
587 2 68.3398896 38.440836 7.6602
588 2 68.3398896 38.440836 4.47
589 1 65.1856622 40.260985 6.0648
590 2 66.7627759 41.1710595 7.6602
591 2 66.7627759 41.1710595 4.47
592 1 63.6111046 42.991949 6.0648
593 2 65.1856622 43.9020235 7.6602
594 2 65.1856622 43.9020235 4.47
595 1 62.0339909 45.7221725 6.0648
596 2 63.6111046 46.632247 7.6602
597 2 63.6111046 46.632247 4.47
598 1 60.4568772 48.4531365 6.0648
599 2 62.0339909 49.363211 7.6602
600 2 62.0339909 49.363211 4.47
601 1 58.8797635 51.18336 6.0648
602 2 60.4568772 52.0934345 7.6602
603 2 60.4568772 52.0934345 4.47
604 1 57.3052059 53.914324 6.0648
605 2 58.8797635 54.8243985 7.6602
606 2 58.8797635 54.8243985 4.47
607 1 55.7280922 56.6445475 6.0648
608 2 57.3052059 57.554622 7.6602
609 2 57.3052059 57.554622 4.47
610 1 54.1509785 59.3755115 6.0648
611 2 55.7280922 60.285586 7.6602
612 2 55.7280922 60.285586 4.47
613 1 52.5738648 62.105735 6.0648
614 2 54.1509785 63.0158095 7.6602
615 2 54.1509785 63.0158095 4.47
616 1 50.9967511 64.836699 6.0648
617 2 52.5738648 65.7467735 7.6602
618 2 52.5738648 65.7467735 4.47
619 1 49.4221935 67.5669225 6.0648
620 2 50.9967511 68.476997 7.6602
621 2 50.9967511 68.476997 4.47
622 1 47.8450798 70.297146 6.0648
623 2 49.4221935 71.207961 7.6602
624 2 49.4221935 71.207961 4.47
625 1 90.409257 2.033413 6.0648
626 2 91.9863707 2.9434875 7.6602
627 2 91.9863707 2.9434875 4.47
628 1 88.8346994 4.7636365 6.0648
629 2 90.409257 5.673711 7.6602
630 2 90.409257 5.673711 4.47
631 1 87.2575857 7.49386 6.0648
632 2 88.8346994 8.404675 7.6602
633 2 88.8346994 8.404675 4.47
634 1 85.680472 10.224824 6.0648
635 2 87.2575857 11.1348985 7.6602
636 2 87.2575857 11.1348985 4.47
637 1 84.1033583 12.9550475 6.0648
638 2 85.680472 13.8658625 7.6602
639 2 85.680472 13.8658625 4.47
640 1 82.5288007 15.6860115 6.0648
641 2 84.1033583 16.596086 7.6602
642 2 84.1033583 16.596086 4.47
643 1 80.951687 18.416235 6.0648
644 2 82.5288007 19.32705 7.6602
645 2 82.5288007 19.32705 4.47
646 1 79.3745733 21.147199 6.0648
647 2 80.951687 22.0572735 7.6602
648 2 80.951687 22.0572735 4.47
649 1 77.7974596 23.8774225 6.0648
650 2 79.3745733 24.787497 7.6602
651 2 79.3745733 24.787497 4.47
652 1 76.222902 26.6083865 6.0648
653 2 77.7974596 27.518461 7.6602
654 2 77.7974596 27.518461 4.47
655 1 74.6457883 29.33861 6.0648
656 2 76.222902 30.2486845 7.6602
657 2 76.222902 30.2486845 4.47
658 1 73.0686746 32.069574 6.0648
659 2 74.6457883 32.9796485 7.6602
660 2 74.6457883 32.9796485 4.47
661 1 71.4915609 34.7997975 6.0648
662 2 73.0686746 35.709872 7.6602
663 2 73.0686746 35.709872 4.47
664 1 69.9170033 37.5307615 6.0648
665 2 71.4915609 38.440836 7.6602
666 2 71.4915609 38.440836 4.47
667 1 68.3398896 40.260985 6.0648
668 2 69.9170033 41.1710595 7.6602
669 2 69.9170033 41.1710595 4.47
670 1 66.7627759 42.991949 6.0648
671 2 68.3398896 43.9020235 7.6602
672 2 68.3398896 43.9020235 4.47
673 1 65.1856622 45.7221725 6.0648
674 2 66.7627759 46.632247 7.6602
675 2 66.7627759 46.632247 4.47
676 1 63.6111046 48.4531365 6.0648
677 2 65.1856622 49.363211 7.6602
678 2 65.1856622 49.363211 4.47
679 1 62.0339909 51.18336 6.0648
680 2 63.6111046 52.0934345 7.6602
681 2 63.6111046 52.0934345 4.47
682 1 60.4568772 53.914324 6.0648
683 2 62.0339909 54.8243985 7.6602
684 2 62.0339909 54.8243985 4.47
685 1 58.8797635 56.6445475 6.0648
686 2 60.4568772 57.554622 7.6602
687 2 60.4568772 57.554622 4.47
688 1 57.3052059 59.3755115 6.0648
689 2 58.8797635 60.285586 7.6602
690 2 58.8797635 60.285586 4.47
691 1 55.7280922 62.105735 6.0648
692 2 57.3052059 63.0158095 7.6602
693 2 57.3052059 63.0158095 4.47
694 1 54.1509785 64.836699 6.0648
695 2 55.7280922 65.7467735 7.6602
696 2 55.7280922 65.7467735 4.47
697 1 52.5738648 67.5669225 6.0648
698 2 54.1509785 68.476997 7.6602
699 2 54.1509785 68.476997 4.47
700 1 50.9967511 70.297146 6.0648
701 2 52.5738648 71.207961 7.6602
702 2 52.5738648 71.207961 4.47
703 1 93.5634844 2.033413 6.0648
704 2 95.1405981 2.9434875 7.6602
705 2 95.1405981 2.9434875 4.47
706 1 91.9863707 4.7636365 6.0648
707 2 93.5634844 5.673711 7.6602
708 2 93.5634844 5.673711 4.47
709 1 90.409257 7.49386 6.0648
710 2 91.9863707 8.404675 7.6602
711 2 91.9863707 8.404675 4.47
712 1 88.8346994 10.224824 6.0648
713 2 90.409257 11.1348985 7.6602
714 2 90.409257 11.1348985 4.47
715 1 87.2575857 12.9550475 6.0648
716 2 88.8346994 13.8658625 7.6602
717 2 88.8346994 13.8658625 4.47
718 1 85.680472 15.6860115 6.0648
719 2 87.2575857 16.596086 7.6602
720 2 87.2575857 16.596086 4.47
721 1 84.1033583 18.416235 6.0648
722 2 85.680472 19.32705 7.6602
723 2 85.680472 19.32705 4.47
724 1 82.5288007 21.147199 6.0648
725 2 84.1033583 22.0572735 7.6602
726 2 84.1033583 22.0572735 4.47
727 1 80.951687 23.8774225 6.0648
728 2 82.5288007 24.787497 7.6602
729 2 82.5288007 24.787497 4.47
730 1 79.3745733 26.6083865 6.0648
731 2 80.951687 27.518461 7.6602
732 2 80.951687 27.518461 4.47
733 1 77.7974596 29.33861 6.0648
734 2 79.3745733 30.2486845 7.6602
735 2 79.3745733 30.2486845 4.47
736 1 76.222902 32.069574 6.0648
737 2 77.7974596 32.9796485 7.6602
738 2 77.7974596 32.9796485 4.47
739 1 74.6457883 34.7997975 6.0648
740 2 76.222902 35.709872 7.6602
741 2 76.222902 35.709872 4.47
742 1 73.0686746 37.5307615 6.0648
743 2 74.6457883 38.440836 7.6602
744 2 74.6457883 38.440836 4.47
745 1 71.4915609 40.260985 6.0648
746 2 73.0686746 41.1710595 7.6602
747 2 73.0686746 41.1710595 4.47
748 1 69.9170033 42.991949 6.0648
749 2 71.4915609 43.9020235 7.6602
750 2 71.4915609 43.9020235 4.47
751 1 68.3398896 45.7221725 6.0648
752 2 69.9170033 46.632247 7.6602
753 2 69.9170033 46.632247 4.47
754 1 66.7627759 48.4531365 6.0648
755 2 68.3398896 49.363211 7.6602
756 2 68.3398896 49.363211 4.47
757 1 65.1856622 51.18336 6.0648
758 2 66.7627759 52.0934345 7.6602
759 2 66.7627759 52.0934345 4.47
760 1 63.6111046 53.914324 6.0648
761 2 65.1856622 54.8243985 7.6602
762 2 65.1856622 54.8243985 4.47
763 1 62.0339909 56.6445475 6.0648
764 2 63.6111046 57.554622 7.6602
765 2 63.6111046 57.554622 4.47
766 1 60.4568772 59.3755115 6.0648
767 2 62.0339909 60.285586 7.6602
768 2 62.0339909 60.285586 4.47
769 1 58.8797635 62.105735 6.0648
770 2 60.4568772 63.0158095 7.6602
771 2 60.4568772 63.0158095 4.47
772 1 57.3052059 64.836699 6.0648
773 2 58.8797635 65.7467735 7.6602
774 2 58.8797635 65.7467735 4.47
775 1 55.7280922 67.5669225 6.0648
776 2 57.3052059 68.476997 7.6602
777 2 57.3052059 68.476997 4.47
778 1 54.1509785 70.297146 6.0648
779 2 55.7280922 71.207961 7.6602
780 2 55.7280922 71.207961 4.47
781 1 96.7177118 2.033413 6.0648
782 2 98.2922694 2.9434875 7.6602
783 2 98.2922694 2.9434875 4.47
784 1 95.1405981 4.7636365 6.0648
785 2 96.7177118 5.673711 7.6602
786 2 96.7177118 5.673711 4.47
787 1 93.5634844 7.49386 6.0648
788 2 95.1405981 8.404675 7.6602
789 2 95.1405981 8.404675 4.47
790 1 91.9863707 10.224824 6.0648
791 2 93.5634844 11.1348985 7.6602
792 2 93.5634844 11.1348985 4.47
793 1 90.409257 12.9550475 6.0648
794 2 91.9863707 13.8658625 7.6602
795 2 91.9863707 13.8658625 4.47
796 1 88.8346994 15.6860115 6.0648
797 2 90.409257 16.596086 7.6602
798 2 90.409257 16.596086 4.47
799 1 87.2575857 18.416235 6.0648
800 2 88.8346994 19.32705 7.6602
801 2 88.8346994 19.32705 4.47
802 1 85.680472 21.147199 6.0648
803 2 87.2575857 22.0572735 7.6602
804 2 87.2575857 22.0572735 4.47
805 1 84.1033583 23.8774225 6.0648
806 2 85.680472 24.787497 7.6602
807 2 85.680472 24.787497 4.47
808 1 82.5288007 26.6083865 6.0648
809 2 84.1033583 27.518461 7.6602
810 2 84.1033583 27.518461 4.47
811 1 80.951687 29.33861 6.0648
812 2 82.5288007 30.2486845 7.6602
813 2 82.5288007 30.2486845 4.47
814 1 79.3745733 32.069574 6.0648
815 2 80.951687 32.9796485 7.6602
816 2 80.951687 32.9796485 4.47
817 1 77.7974596 34.7997975 6.0648
818 2 79.3745733 35.709872 7.6602
819 2 79.3745733 35.709872 4.47
820 1 76.222902 37.5307615 6.0648
821 2 77.7974596 38.440836 7.6602
822 2 77.7974596 38.440836 4.47
823 1 74.6457883 40.260985 6.0648
824 2 76.222902 41.1710595 7.6602
825 2 76.222902 41.1710595 4.47
826 1 73.0686746 42.991949 6.0648
827 2 74.6457883 43.9020235 7.6602
828 2 74.6457883 43.9020235 4.47
829 1 71.4915609 45.7221725 6.0648
830 2 73.0686746 46.632247 7.6602
831 2 73.0686746 46.632247 4.47
832 1 69.9170033 48.4531365 6.0648
833 2 71.4915609 49.363211 7.6602
834 2 71.4915609 49.363211 4.47
835 1 68.3398896 51.18336 6.0648
836 2 69.9170033 52.0934345 7.6602
837 2 69.9170033 52.0934345 4.47
838 1 66.7627759 53.914324 6.0648
839 2 68.3398896 54.8243985 7.6602
840 2 68.3398896 54.8243985 4.47
841 1 65.1856622 56.6445475 6.0648
842 2 66.7627759 57.554622 7.6602
843 2 66.7627759 57.554622 4.47
844 1 63.6111046 59.3755115 6.0648
845 2 65.1856622 60.285586 7.6602
846 2 65.1856622 60.285586 4.47
847 1 62.0339909 62.105735 6.0648
848 2 63.6111046 63.0158095 7.6602
849 2 63.6111046 63.0158095 4.47
850 1 60.4568772 64.836699 6.0648
851 2 62.0339909 65.7467735 7.6602
852 2 62.0339909 65.7467735 4.47
853 1 58.8797635 67.5669225 6.0648
854 2 60.4568772 68.476997 7.6602
855 2 60.4568772 68.476997 4.47
856 1 57.3052059 70.297146 6.0648
857 2 58.8797635 71.207961 7.6602
858 2 58.8797635 71.207961 4.47
859 1 99.8693831 2.033413 6.0648
860 2 101.4464968 2.9434875 7.6602
861 2 101.4464968 2.9434875 4.47
862 1 98.2922694 4.7636365 6.0648
863 2 99.8693831 5.673711 7.6602
864 2 99.8693831 5.673711 4.47
865 1 96.7177118 7.49386 6.0648
866 2 98.2922694 8.404675 7.6602
867 2 98.2922694 8.404675 4.47
868 1 95.1405981 10.224824 6.0648
869 2 96.7177118 11.1348985 7.6602
870 2 96.7177118 11.1348985 4.47
871 1 93.5634844 12.9550475 6.0648
872 2 95.1405981 13.8658625 7.6602
873 2 95.1405981 13.8658625 4.47
874 1 91.9863707 15.6860115 6.0648
875 2 93.5634844 16.596086 7.6602
876 2 93.5634844 16.596086 4.47
877 1 90.409257 18.416235 6.0648
878 2 91.9863707 19.32705 7.6602
879 2 91.9863707 19.32705 4.47
880 1 88.8346994 21.147199 6.0648
881 2 90.409257 22.0572735 7.6602
882 2 90.409257 22.0572735 4.47
883 1 87.2575857 23.8774225 6.0648
884 2 88.8346994 24.787497 7.6602
885 2 88.8346994 24.787497 4.47
886 1 85.680472 26.6083865 6.0648
887 2 87.2575857 27.518461 7.6602
888 2 87.2575857 27.518461 4.47
889 1 84.1033583 29.33861 6.0648
890 2 85.680472 30.2486845 7.6602
891 2 85.680472 30.2486845 4.47
892 1 82.5288007 32.069574 6.0648