LAMMPS data file via write_data, version 30 Nov 2020, timestep = 0

30729 atoms
5 atom types

0 117 xlo xhi
0 117 ylo yhi
0 117 zlo zhi

Masses

1 58.69
2 58.933
3 51.96
4 55.847
5 54.94

Atoms # atomic

1 5 1.7974999999999997 55.72250000000001 57.52000000000001 0 0 0
2 5 1.7974999999999997 57.52000000000001 55.72250000000001 0 0 0
3 5 0 57.52000000000001 57.52000000000001 0 0 0
6 4 5.392500000000005 52.127500000000005 53.92500000000001 0 0 0
7 3 5.392500000000005 52.127500000000005 57.52000000000001 0 0 0
9 1 5.392500000000005 53.92500000000001 52.127500000000005 0 0 0
10 2 3.5949999999999993 53.92500000000001 53.92500000000001 0 0 0
11 4 3.5949999999999993 55.72250000000001 55.72250000000001 0 0 0
12 2 5.392500000000005 53.92500000000001 55.72250000000001 0 0 0
13 4 5.392500000000005 55.72250000000001 53.92500000000001 0 0 0
14 5 3.5949999999999993 53.92500000000001 57.52000000000001 0 0 0
17 4 5.392500000000005 55.72250000000001 57.52000000000001 0 0 0
21 3 5.392500000000005 57.52000000000001 52.127500000000005 0 0 0
22 5 3.5949999999999993 57.52000000000001 53.92500000000001 0 0 0
24 3 5.392500000000005 57.52000000000001 55.72250000000001 0 0 0
26 5 3.5949999999999993 57.52000000000001 57.52000000000001 0 0 0
43 1 8.987500000000006 48.532500000000006 53.92500000000001 0 0 0
44 3 8.987500000000006 48.532500000000006 57.52000000000001 0 0 0
46 4 7.190000000000006 52.127500000000005 52.127500000000005 0 0 0
47 4 8.987500000000006 50.33000000000001 52.127500000000005 0 0 0
48 4 8.987500000000006 52.127500000000005 50.33000000000001 0 0 0
49 3 7.190000000000006 50.33000000000001 53.92500000000001 0 0 0
50 1 7.190000000000006 52.127500000000005 55.72250000000001 0 0 0
51 5 8.987500000000006 50.33000000000001 55.72250000000001 0 0 0
52 2 8.987500000000006 52.127500000000005 53.92500000000001 0 0 0
53 1 7.190000000000006 50.33000000000001 57.52000000000001 0 0 0
56 4 8.987500000000006 52.127500000000005 57.52000000000001 0 0 0
62 3 8.987500000000006 53.92500000000001 48.532500000000006 0 0 0
63 2 7.190000000000006 53.92500000000001 50.33000000000001 0 0 0
64 5 7.190000000000006 55.72250000000001 52.127500000000005 0 0 0
65 1 8.987500000000006 53.92500000000001 52.127500000000005 0 0 0
66 2 8.987500000000006 55.72250000000001 50.33000000000001 0 0 0
67 1 7.190000000000006 53.92500000000001 53.92500000000001 0 0 0
68 4 7.190000000000006 55.72250000000001 55.72250000000001 0 0 0
69 1 8.987500000000006 53.92500000000001 55.72250000000001 0 0 0
70 4 8.987500000000006 55.72250000000001 53.92500000000001 0 0 0
71 3 7.190000000000006 53.92500000000001 57.52000000000001 0 0 0
74 4 8.987500000000006 55.72250000000001 57.52000000000001 0 0 0
82 5 8.987500000000006 57.52000000000001 48.532500000000006 0 0 0
83 1 7.190000000000006 57.52000000000001 50.33000000000001 0 0 0
85 4 8.987500000000006 57.52000000000001 52.127500000000005 0 0 0
87 4 7.190000000000006 57.52000000000001 53.92500000000001 0 0 0
89 5 8.987500000000006 57.52000000000001 55.72250000000001 0 0 0
91 1 7.190000000000006 57.52000000000001 57.52000000000001 0 0 0
132 4 12.582500000000005 44.9375 53.92500000000001 0 0 0
133 5 12.582500000000005 44.9375 57.52000000000001 0 0 0
135 1 10.785000000000005 48.532500000000006 48.532500000000006 0 0 0
136 4 12.582500000000005 46.735000000000014 48.532500000000006 0 0 0
137 2 12.582500000000005 48.532500000000006 46.735000000000014 0 0 0
138 2 10.785000000000005 48.532500000000006 52.127500000000005 0 0 0
139 2 12.582500000000005 46.735000000000014 52.127500000000005 0 0 0
140 1 12.582500000000005 48.532500000000006 50.33000000000001 0 0 0
141 4 10.785000000000005 46.735000000000014 53.92500000000001 0 0 0
142 5 10.785000000000005 48.532500000000006 55.72250000000001 0 0 0
143 5 12.582500000000005 46.735000000000014 55.72250000000001 0 0 0
144 4 12.582500000000005 48.532500000000006 53.92500000000001 0 0 0
145 3 10.785000000000005 46.735000000000014 57.52000000000001 0 0 0
148 4 12.582500000000005 48.532500000000006 57.52000000000001 0 0 0
157 4 10.785000000000005 52.127500000000005 48.532500000000006 0 0 0
158 3 12.582500000000005 50.33000000000001 48.532500000000006 0 0 0
159 5 12.582500000000005 52.127500000000005 46.735000000000014 0 0 0
160 5 10.785000000000005 50.33000000000001 50.33000000000001 0 0 0
161 4 10.785000000000005 52.127500000000005 52.127500000000005 0 0 0
162 4 12.582500000000005 50.33000000000001 52.127500000000005 0 0 0
163 2 12.582500000000005 52.127500000000005 50.33000000000001 0 0 0
164 4 10.785000000000005 50.33000000000001 53.92500000000001 0 0 0
165 4 10.785000000000005 52.127500000000005 55.72250000000001 0 0 0
166 5 12.582500000000005 50.33000000000001 55.72250000000001 0 0 0
167 3 12.582500000000005 52.127500000000005 53.92500000000001 0 0 0
168 5 10.785000000000005 50.33000000000001 57.52000000000001 0 0 0
171 4 12.582500000000005 52.127500000000005 57.52000000000001 0 0 0
181 1 12.582500000000005 53.92500000000001 44.9375 0 0 0
182 3 10.785000000000005 53.92500000000001 46.735000000000014 0 0 0
183 4 10.785000000000005 55.72250000000001 48.532500000000006 0 0 0
184 4 12.582500000000005 53.92500000000001 48.532500000000006 0 0 0
185 3 12.582500000000005 55.72250000000001 46.735000000000014 0 0 0
186 4 10.785000000000005 53.92500000000001 50.33000000000001 0 0 0
187 4 10.785000000000005 55.72250000000001 52.127500000000005 0 0 0
188 3 12.582500000000005 53.92500000000001 52.127500000000005 0 0 0
189 4 12.582500000000005 55.72250000000001 50.33000000000001 0 0 0
190 1 10.785000000000005 53.92500000000001 53.92500000000001 0 0 0
191 5 10.785000000000005 55.72250000000001 55.72250000000001 0 0 0
192 5 12.582500000000005 53.92500000000001 55.72250000000001 0 0 0
193 2 12.582500000000005 55.72250000000001 53.92500000000001 0 0 0
194 3 10.785000000000005 53.92500000000001 57.52000000000001 0 0 0
197 1 12.582500000000005 55.72250000000001 57.52000000000001 0 0 0
209 4 12.582500000000005 57.52000000000001 44.9375 0 0 0
210 2 10.785000000000005 57.52000000000001 46.735000000000014 0 0 0
212 4 12.582500000000005 57.52000000000001 48.532500000000006 0 0 0
214 1 10.785000000000005 57.52000000000001 50.33000000000001 0 0 0
216 2 12.582500000000005 57.52000000000001 52.127500000000005 0 0 0
218 1 10.785000000000005 57.52000000000001 53.92500000000001 0 0 0
220 3 12.582500000000005 57.52000000000001 55.72250000000001 0 0 0
222 1 10.785000000000005 57.52000000000001 57.52000000000001 0 0 0
301 3 16.177500000000006 41.3425 53.92500000000001 0 0 0
302 1 16.177500000000006 41.3425 57.52000000000001 0 0 0
304 2 14.380000000000004 44.9375 48.532500000000006 0 0 0
305 1 16.177500000000006 43.14000000000001 48.532500000000006 0 0 0
306 5 16.177500000000006 44.9375 46.735000000000014 0 0 0
307 4 14.380000000000004 44.9375 52.127500000000005 0 0 0
308 1 16.177500000000006 43.14000000000001 52.127500000000005 0 0 0
309 5 16.177500000000006 44.9375 50.33000000000001 0 0 0
310 4 14.380000000000004 43.14000000000001 53.92500000000001 0 0 0
311 5 14.380000000000004 44.9375 55.72250000000001 0 0 0
312 1 16.177500000000006 43.14000000000001 55.72250000000001 0 0 0
313 3 16.177500000000006 44.9375 53.92500000000001 0 0 0
314 5 14.380000000000004 43.14000000000001 57.52000000000001 0 0 0
317 5 16.177500000000006 44.9375 57.52000000000001 0 0 0
326 2 14.380000000000004 48.532500000000006 44.9375 0 0 0
327 1 16.177500000000006 46.735000000000014 44.9375 0 0 0
328 1 16.177500000000006 48.532500000000006 43.14000000000001 0 0 0
329 5 14.380000000000004 46.735000000000014 46.735000000000014 0 0 0
330 1 14.380000000000004 48.532500000000006 48.532500000000006 0 0 0
331 3 16.177500000000006 46.735000000000014 48.532500000000006 0 0 0
332 5 16.177500000000006 48.532500000000006 46.735000000000014 0 0 0
333 4 14.380000000000004 46.735000000000014 50.33000000000001 0 0 0
334 4 14.380000000000004 48.532500000000006 52.127500000000005 0 0 0
335 4 16.177500000000006 46.735000000000014 52.127500000000005 0 0 0
336 2 16.177500000000006 48.532500000000006 50.33000000000001 0 0 0
337 5 14.380000000000004 46.735000000000014 53.92500000000001 0 0 0
338 3 14.380000000000004 48.532500000000006 55.72250000000001 0 0 0
339 5 16.177500000000006 46.735000000000014 55.72250000000001 0 0 0
340 2 16.177500000000006 48.532500000000006 53.92500000000001 0 0 0
341 4 14.380000000000004 46.735000000000014 57.52000000000001 0 0 0
344 1 16.177500000000006 48.532500000000006 57.52000000000001 0 0 0
358 2 14.380000000000004 52.127500000000005 44.9375 0 0 0
359 1 16.177500000000006 50.33000000000001 44.9375 0 0 0
360 2 16.177500000000006 52.127500000000005 43.14000000000001 0 0 0
361 3 14.380000000000004 50.33000000000001 46.735000000000014 0 0 0
362 1 14.380000000000004 52.127500000000005 48.532500000000006 0 0 0
363 1 16.177500000000006 50.33000000000001 48.532500000000006 0 0 0
364 1 16.177500000000006 52.127500000000005 46.735000000000014 0 0 0
365 3 14.380000000000004 50.33000000000001 50.33000000000001 0 0 0
366 2 14.380000000000004 52.127500000000005 52.127500000000005 0 0 0
367 2 16.177500000000006 50.33000000000001 52.127500000000005 0 0 0
368 5 16.177500000000006 52.127500000000005 50.33000000000001 0 0 0
369 3 14.380000000000004 50.33000000000001 53.92500000000001 0 0 0
370 1 14.380000000000004 52.127500000000005 55.72250000000001 0 0 0
371 2 16.177500000000006 50.33000000000001 55.72250000000001 0 0 0
372 2 16.177500000000006 52.127500000000005 53.92500000000001 0 0 0
373 5 14.380000000000004 50.33000000000001 57.52000000000001 0 0 0
376 2 16.177500000000006 52.127500000000005 57.52000000000001 0 0 0
390 5 16.177500000000006 53.92500000000001 41.3425 0 0 0
391 2 14.380000000000004 53.92500000000001 43.14000000000001 0 0 0
392 4 14.380000000000004 55.72250000000001 44.9375 0 0 0
393 4 16.177500000000006 53.92500000000001 44.9375 0 0 0
394 2 16.177500000000006 55.72250000000001 43.14000000000001 0 0 0
395 5 14.380000000000004 53.92500000000001 46.735000000000014 0 0 0
396 2 14.380000000000004 55.72250000000001 48.532500000000006 0 0 0
397 1 16.177500000000006 53.92500000000001 48.532500000000006 0 0 0
398 2 16.177500000000006 55.72250000000001 46.735000000000014 0 0 0
399 5 14.380000000000004 53.92500000000001 50.33000000000001 0 0 0
400 2 14.380000000000004 55.72250000000001 52.127500000000005 0 0 0
401 1 16.177500000000006 53.92500000000001 52.127500000000005 0 0 0
402 4 16.177500000000006 55.72250000000001 50.33000000000001 0 0 0
403 4 14.380000000000004 53.92500000000001 53.92500000000001 0 0 0
404 1 14.380000000000004 55.72250000000001 55.72250000000001 0 0 0
405 3 16.177500000000006 53.92500000000001 55.72250000000001 0 0 0
406 4 16.177500000000006 55.72250000000001 53.92500000000001 0 0 0
407 2 14.380000000000004 53.92500000000001 57.52000000000001 0 0 0
410 5 16.177500000000006 55.72250000000001 57.52000000000001 0 0 0
426 2 16.177500000000006 57.52000000000001 41.3425 0 0 0
427 2 14.380000000000004 57.52000000000001 43.14000000000001 0 0 0
429 1 16.177500000000006 57.52000000000001 44.9375 0 0 0
431 4 14.380000000000004 57.52000000000001 46.735000000000014 0 0 0
433 4 16.177500000000006 57.52000000000001 48.532500000000006 0 0 0
435 4 14.380000000000004 57.52000000000001 50.33000000000001 0 0 0
437 5 16.177500000000006 57.52000000000001 52.127500000000005 0 0 0
439 1 14.380000000000004 57.52000000000001 53.92500000000001 0 0 0
441 3 16.177500000000006 57.52000000000001 55.72250000000001 0 0 0
443 5 14.380000000000004 57.52000000000001 57.52000000000001 0 0 0
570 4 19.772500000000004 37.7475 53.92500000000001 0 0 0
571 1 19.772500000000004 37.7475 57.52000000000001 0 0 0
573 2 19.772500000000004 41.3425 43.14000000000001 0 0 0
574 2 17.975000000000005 41.3425 48.532500000000006 0 0 0
575 2 19.772500000000004 39.54500000000001 48.532500000000006 0 0 0
576 3 19.772500000000004 41.3425 46.735000000000014 0 0 0
577 5 17.975000000000005 41.3425 52.127500000000005 0 0 0
578 3 19.772500000000004 39.54500000000001 52.127500000000005 0 0 0
579 2 19.772500000000004 41.3425 50.33000000000001 0 0 0
580 4 17.975000000000005 39.54500000000001 53.92500000000001 0 0 0
581 1 17.975000000000005 41.3425 55.72250000000001 0 0 0
582 2 19.772500000000004 39.54500000000001 55.72250000000001 0 0 0
583 2 19.772500000000004 41.3425 53.92500000000001 0 0 0
584 5 17.975000000000005 39.54500000000001 57.52000000000001 0 0 0
587 4 19.772500000000004 41.3425 57.52000000000001 0 0 0
597 2 19.772500000000004 43.14000000000001 41.3425 0 0 0
598 1 17.975000000000005 43.14000000000001 43.14000000000001 0 0 0
599 1 17.975000000000005 44.9375 44.9375 0 0 0
600 5 19.772500000000004 43.14000000000001 44.9375 0 0 0
601 4 19.772500000000004 44.9375 43.14000000000001 0 0 0
602 4 17.975000000000005 43.14000000000001 46.735000000000014 0 0 0
603 3 17.975000000000005 44.9375 48.532500000000006 0 0 0
604 5 19.772500000000004 43.14000000000001 48.532500000000006 0 0 0
605 4 19.772500000000004 44.9375 46.735000000000014 0 0 0
606 1 17.975000000000005 43.14000000000001 50.33000000000001 0 0 0
607 1 17.975000000000005 44.9375 52.127500000000005 0 0 0
608 2 19.772500000000004 43.14000000000001 52.127500000000005 0 0 0
609 1 19.772500000000004 44.9375 50.33000000000001 0 0 0
610 5 17.975000000000005 43.14000000000001 53.92500000000001 0 0 0
611 2 17.975000000000005 44.9375 55.72250000000001 0 0 0
612 5 19.772500000000004 43.14000000000001 55.72250000000001 0 0 0
613 1 19.772500000000004 44.9375 53.92500000000001 0 0 0
614 1 17.975000000000005 43.14000000000001 57.52000000000001 0 0 0
617 4 19.772500000000004 44.9375 57.52000000000001 0 0 0
633 3 17.975000000000005 48.532500000000006 41.3425 0 0 0
634 2 19.772500000000004 46.735000000000014 41.3425 0 0 0
635 1 19.772500000000004 48.532500000000006 39.54500000000001 0 0 0
636 1 17.975000000000005 46.735000000000014 43.14000000000001 0 0 0
637 2 17.975000000000005 48.532500000000006 44.9375 0 0 0
638 4 19.772500000000004 46.735000000000014 44.9375 0 0 0
639 3 19.772500000000004 48.532500000000006 43.14000000000001 0 0 0
640 5 17.975000000000005 46.735000000000014 46.735000000000014 0 0 0
641 3 17.975000000000005 48.532500000000006 48.532500000000006 0 0 0
642 1 19.772500000000004 46.735000000000014 48.532500000000006 0 0 0
643 4 19.772500000000004 48.532500000000006 46.735000000000014 0 0 0
644 4 17.975000000000005 46.735000000000014 50.33000000000001 0 0 0
645 5 17.975000000000005 48.532500000000006 52.127500000000005 0 0 0
646 5 19.772500000000004 46.735000000000014 52.127500000000005 0 0 0
647 2 19.772500000000004 48.532500000000006 50.33000000000001 0 0 0
648 5 17.975000000000005 46.735000000000014 53.92500000000001 0 0 0
649 1 17.975000000000005 48.532500000000006 55.72250000000001 0 0 0
650 2 19.772500000000004 46.735000000000014 55.72250000000001 0 0 0
651 3 19.772500000000004 48.532500000000006 53.92500000000001 0 0 0
652 1 17.975000000000005 46.735000000000014 57.52000000000001 0 0 0
655 3 19.772500000000004 48.532500000000006 57.52000000000001 0 0 0
673 5 17.975000000000005 52.127500000000005 41.3425 0 0 0
674 2 19.772500000000004 50.33000000000001 41.3425 0 0 0
675 1 19.772500000000004 52.127500000000005 39.54500000000001 0 0 0
676 2 17.975000000000005 50.33000000000001 43.14000000000001 0 0 0
677 3 17.975000000000005 52.127500000000005 44.9375 0 0 0
678 2 19.772500000000004 50.33000000000001 44.9375 0 0 0
679 3 19.772500000000004 52.127500000000005 43.14000000000001 0 0 0
680 2 17.975000000000005 50.33000000000001 46.735000000000014 0 0 0
681 4 17.975000000000005 52.127500000000005 48.532500000000006 0 0 0
682 4 19.772500000000004 50.33000000000001 48.532500000000006 0 0 0
683 5 19.772500000000004 52.127500000000005 46.735000000000014 0 0 0
684 3 17.975000000000005 50.33000000000001 50.33000000000001 0 0 0
685 3 17.975000000000005 52.127500000000005 52.127500000000005 0 0 0
686 4 19.772500000000004 50.33000000000001 52.127500000000005 0 0 0
687 3 19.772500000000004 52.127500000000005 50.33000000000001 0 0 0
688 4 17.975000000000005 50.33000000000001 53.92500000000001 0 0 0
689 3 17.975000000000005 52.127500000000005 55.72250000000001 0 0 0
690 4 19.772500000000004 50.33000000000001 55.72250000000001 0 0 0
691 2 19.772500000000004 52.127500000000005 53.92500000000001 0 0 0
692 4 17.975000000000005 50.33000000000001 57.52000000000001 0 0 0
695 1 19.772500000000004 52.127500000000005 57.52000000000001 0 0 0
713 3 19.772500000000004 53.92500000000001 37.7475 0 0 0
714 5 17.975000000000005 53.92500000000001 39.54500000000001 0 0 0
715 4 17.975000000000005 55.72250000000001 41.3425 0 0 0
716 2 19.772500000000004 53.92500000000001 41.3425 0 0 0
717 1 19.772500000000004 55.72250000000001 39.54500000000001 0 0 0
718 2 17.975000000000005 53.92500000000001 43.14000000000001 0 0 0
719 1 17.975000000000005 55.72250000000001 44.9375 0 0 0
720 2 19.772500000000004 53.92500000000001 44.9375 0 0 0
721 5 19.772500000000004 55.72250000000001 43.14000000000001 0 0 0
722 5 17.975000000000005 53.92500000000001 46.735000000000014 0 0 0
723 1 17.975000000000005 55.72250000000001 48.532500000000006 0 0 0
724 4 19.772500000000004 53.92500000000001 48.532500000000006 0 0 0
725 4 19.772500000000004 55.72250000000001 46.735000000000014 0 0 0
726 4 17.975000000000005 53.92500000000001 50.33000000000001 0 0 0
727 1 17.975000000000005 55.72250000000001 52.127500000000005 0 0 0
728 2 19.772500000000004 53.92500000000001 52.127500000000005 0 0 0
729 3 19.772500000000004 55.72250000000001 50.33000000000001 0 0 0
730 2 17.975000000000005 53.92500000000001 53.92500000000001 0 0 0
731 2 17.975000000000005 55.72250000000001 55.72250000000001 0 0 0
732 5 19.772500000000004 53.92500000000001 55.72250000000001 0 0 0
733 4 19.772500000000004 55.72250000000001 53.92500000000001 0 0 0
734 2 17.975000000000005 53.92500000000001 57.52000000000001 0 0 0
737 3 19.772500000000004 55.72250000000001 57.52000000000001 0 0 0
757 1 19.772500000000004 57.52000000000001 37.7475 0 0 0
758 4 17.975000000000005 57.52000000000001 39.54500000000001 0 0 0
760 5 19.772500000000004 57.52000000000001 41.3425 0 0 0
762 1 17.975000000000005 57.52000000000001 43.14000000000001 0 0 0
764 2 19.772500000000004 57.52000000000001 44.9375 0 0 0
766 1 17.975000000000005 57.52000000000001 46.735000000000014 0 0 0
768 5 19.772500000000004 57.52000000000001 48.532500000000006 0 0 0
770 2 17.975000000000005 57.52000000000001 50.33000000000001 0 0 0
772 2 19.772500000000004 57.52000000000001 52.127500000000005 0 0 0
774 1 17.975000000000005 57.52000000000001 53.92500000000001 0 0 0
776 4 19.772500000000004 57.52000000000001 55.72250000000001 0 0 0
778 4 17.975000000000005 57.52000000000001 57.52000000000001 0 0 0
967 5 23.367500000000003 34.1525 53.92500000000001 0 0 0
968 5 23.367500000000003 34.1525 57.52000000000001 0 0 0
970 3 23.367500000000003 37.7475 43.14000000000001 0 0 0
971 3 21.570000000000004 37.7475 48.532500000000006 0 0 0
972 4 23.367500000000003 35.95000000000001 48.532500000000006 0 0 0
973 4 23.367500000000003 37.7475 46.735000000000014 0 0 0
974 3 21.570000000000004 37.7475 52.127500000000005 0 0 0
975 2 23.367500000000003 35.95000000000001 52.127500000000005 0 0 0
976 3 23.367500000000003 37.7475 50.33000000000001 0 0 0
977 1 21.570000000000004 35.95000000000001 53.92500000000001 0 0 0
978 5 21.570000000000004 37.7475 55.72250000000001 0 0 0
979 4 23.367500000000003 35.95000000000001 55.72250000000001 0 0 0
980 2 23.367500000000003 37.7475 53.92500000000001 0 0 0
981 3 21.570000000000004 35.95000000000001 57.52000000000001 0 0 0
984 5 23.367500000000003 37.7475 57.52000000000001 0 0 0
994 1 21.570000000000004 41.3425 41.3425 0 0 0
995 3 23.367500000000003 39.54500000000001 41.3425 0 0 0
996 2 23.367500000000003 41.3425 39.54500000000001 0 0 0
997 3 21.570000000000004 39.54500000000001 43.14000000000001 0 0 0
998 5 21.570000000000004 41.3425 44.9375 0 0 0
999 5 23.367500000000003 39.54500000000001 44.9375 0 0 0
1000 2 23.367500000000003 41.3425 43.14000000000001 0 0 0
1001 4 21.570000000000004 39.54500000000001 46.735000000000014 0 0 0
1002 3 21.570000000000004 41.3425 48.532500000000006 0 0 0
1003 5 23.367500000000003 39.54500000000001 48.532500000000006 0 0 0
1004 2 23.367500000000003 41.3425 46.735000000000014 0 0 0
1005 3 21.570000000000004 39.54500000000001 50.33000000000001 0 0 0
1006 4 21.570000000000004 41.3425 52.127500000000005 0 0 0
1007 2 23.367500000000003 39.54500000000001 52.127500000000005 0 0 0
1008 5 23.367500000000003 41.3425 50.33000000000001 0 0 0
1009 5 21.570000000000004 39.54500000000001 53.92500000000001 0 0 0
1010 1 21.570000000000004 41.3425 55.72250000000001 0 0 0
1011 1 23.367500000000003 39.54500000000001 55.72250000000001 0 0 0
1012 2 23.367500000000003 41.3425 53.92500000000001 0 0 0
1013 4 21.570000000000004 39.54500000000001 57.52000000000001 0 0 0
1016 2 23.367500000000003 41.3425 57.52000000000001 0 0 0
1034 2 23.367500000000003 43.14000000000001 37.7475 0 0 0
1035 5 21.570000000000004 43.14000000000001 39.54500000000001 0 0 0
1036 1 21.570000000000004 44.9375 41.3425 0 0 0
1037 4 23.367500000000003 43.14000000000001 41.3425 0 0 0
1038 3 23.367500000000003 44.9375 39.54500000000001 0 0 0
1039 1 21.570000000000004 43.14000000000001 43.14000000000001 0 0 0
1040 2 21.570000000000004 44.9375 44.9375 0 0 0
1041 3 23.367500000000003 43.14000000000001 44.9375 0 0 0
1042 4 23.367500000000003 44.9375 43.14000000000001 0 0 0
1043 2 21.570000000000004 43.14000000000001 46.735000000000014 0 0 0
1044 1 21.570000000000004 44.9375 48.532500000000006 0 0 0
1045 5 23.367500000000003 43.14000000000001 48.532500000000006 0 0 0
1046 1 23.367500000000003 44.9375 46.735000000000014 0 0 0
1047 1 21.570000000000004 43.14000000000001 50.33000000000001 0 0 0
1048 4 21.570000000000004 44.9375 52.127500000000005 0 0 0
1049 5 23.367500000000003 43.14000000000001 52.127500000000005 0 0 0
1050 4 23.367500000000003 44.9375 50.33000000000001 0 0 0
1051 5 21.570000000000004 43.14000000000001 53.92500000000001 0 0 0
1052 1 21.570000000000004 44.9375 55.72250000000001 0 0 0
1053 2 23.367500000000003 43.14000000000001 55.72250000000001 0 0 0
1054 3 23.367500000000003 44.9375 53.92500000000001 0 0 0
1055 2 21.570000000000004 43.14000000000001 57.52000000000001 0 0 0
1058 2 23.367500000000003 44.9375 57.52000000000001 0 0 0
1078 4 21.570000000000004 48.532500000000006 37.7475 0 0 0
1079 1 23.367500000000003 46.735000000000014 37.7475 0 0 0
1080 2 23.367500000000003 48.532500000000006 35.95000000000001 0 0 0
1081 4 21.570000000000004 46.735000000000014 39.54500000000001 0 0 0
1082 3 21.570000000000004 48.532500000000006 41.3425 0 0 0
1083 4 23.367500000000003 46.735000000000014 41.3425 0 0 0
1084 1 23.367500000000003 48.532500000000006 39.54500000000001 0 0 0
1085 1 21.570000000000004 46.735000000000014 43.14000000000001 0 0 0
1086 3 21.570000000000004 48.532500000000006 44.9375 0 0 0
1087 4 23.367500000000003 46.735000000000014 44.9375 0 0 0
1088 1 23.367500000000003 48.532500000000006 43.14000000000001 0 0 0
1089 4 21.570000000000004 46.735000000000014 46.735000000000014 0 0 0
1090 5 21.570000000000004 48.532500000000006 48.532500000000006 0 0 0
1091 5 23.367500000000003 46.735000000000014 48.532500000000006 0 0 0
1092 2 23.367500000000003 48.532500000000006 46.735000000000014 0 0 0
1093 5 21.570000000000004 46.735000000000014 50.33000000000001 0 0 0
1094 5 21.570000000000004 48.532500000000006 52.127500000000005 0 0 0
1095 5 23.367500000000003 46.735000000000014 52.127500000000005 0 0 0
1096 2 23.367500000000003 48.532500000000006 50.33000000000001 0 0 0
1097 1 21.570000000000004 46.735000000000014 53.92500000000001 0 0 0
1098 1 21.570000000000004 48.532500000000006 55.72250000000001 0 0 0
1099 1 23.367500000000003 46.735000000000014 55.72250000000001 0 0 0
1100 1 23.367500000000003 48.532500000000006 53.92500000000001 0 0 0
1101 3 21.570000000000004 46.735000000000014 57.52000000000001 0 0 0
1104 3 23.367500000000003 48.532500000000006 57.52000000000001 0 0 0
1126 2 21.570000000000004 52.127500000000005 37.7475 0 0 0
1127 4 23.367500000000003 50.33000000000001 37.7475 0 0 0
1128 1 23.367500000000003 52.127500000000005 35.95000000000001 0 0 0
1129 3 21.570000000000004 50.33000000000001 39.54500000000001 0 0 0
1130 3 21.570000000000004 52.127500000000005 41.3425 0 0 0
1131 3 23.367500000000003 50.33000000000001 41.3425 0 0 0
1132 2 23.367500000000003 52.127500000000005 39.54500000000001 0 0 0
1133 2 21.570000000000004 50.33000000000001 43.14000000000001 0 0 0
1134 2 21.570000000000004 52.127500000000005 44.9375 0 0 0
1135 5 23.367500000000003 50.33000000000001 44.9375 0 0 0
1136 4 23.367500000000003 52.127500000000005 43.14000000000001 0 0 0
1137 4 21.570000000000004 50.33000000000001 46.735000000000014 0 0 0
1138 2 21.570000000000004 52.127500000000005 48.532500000000006 0 0 0
1139 2 23.367500000000003 50.33000000000001 48.532500000000006 0 0 0
1140 5 23.367500000000003 52.127500000000005 46.735000000000014 0 0 0
1141 2 21.570000000000004 50.33000000000001 50.33000000000001 0 0 0
1142 4 21.570000000000004 52.127500000000005 52.127500000000005 0 0 0
1143 2 23.367500000000003 50.33000000000001 52.127500000000005 0 0 0
1144 1 23.367500000000003 52.127500000000005 50.33000000000001 0 0 0
1145 2 21.570000000000004 50.33000000000001 53.92500000000001 0 0 0
1146 3 21.570000000000004 52.127500000000005 55.72250000000001 0 0 0
1147 4 23.367500000000003 50.33000000000001 55.72250000000001 0 0 0
1148 4 23.367500000000003 52.127500000000005 53.92500000000001 0 0 0
1149 5 21.570000000000004 50.33000000000001 57.52000000000001 0 0 0
1152 5 23.367500000000003 52.127500000000005 57.52000000000001 0 0 0
1174 4 23.367500000000003 53.92500000000001 34.1525 0 0 0
1175 4 21.570000000000004 53.92500000000001 35.95000000000001 0 0 0
1176 5 21.570000000000004 55.72250000000001 37.7475 0 0 0
1177 4 23.367500000000003 53.92500000000001 37.7475 0 0 0
1178 1 23.367500000000003 55.72250000000001 35.95000000000001 0 0 0
1179 2 21.570000000000004 53.92500000000001 39.54500000000001 0 0 0
1180 2 21.570000000000004 55.72250000000001 41.3425 0 0 0
1181 1 23.367500000000003 53.92500000000001 41.3425 0 0 0
1182 5 23.367500000000003 55.72250000000001 39.54500000000001 0 0 0
1183 5 21.570000000000004 53.92500000000001 43.14000000000001 0 0 0
1184 1 21.570000000000004 55.72250000000001 44.9375 0 0 0
1185 1 23.367500000000003 53.92500000000001 44.9375 0 0 0
1186 3 23.367500000000003 55.72250000000001 43.14000000000001 0 0 0
1187 1 21.570000000000004 53.92500000000001 46.735000000000014 0 0 0
1188 4 21.570000000000004 55.72250000000001 48.532500000000006 0 0 0
1189 1 23.367500000000003 53.92500000000001 48.532500000000006 0 0 0
1190 5 23.367500000000003 55.72250000000001 46.735000000000014 0 0 0
1191 3 21.570000000000004 53.92500000000001 50.33000000000001 0 0 0
1192 2 21.570000000000004 55.72250000000001 52.127500000000005 0 0 0
1193 2 23.367500000000003 53.92500000000001 52.127500000000005 0 0 0
1194 5 23.367500000000003 55.72250000000001 50.33000000000001 0 0 0
1195 4 21.570000000000004 53.92500000000001 53.92500000000001 0 0 0
1196 5 21.570000000000004 55.72250000000001 55.72250000000001 0 0 0
1197 3 23.367500000000003 53.92500000000001 55.72250000000001 0 0 0
1198 3 23.367500000000003 55.72250000000001 53.92500000000001 0 0 0
1199 5 21.570000000000004 53.92500000000001 57.52000000000001 0 0 0
1202 3 23.367500000000003 55.72250000000001 57.52000000000001 0 0 0
1226 5 23.367500000000003 57.52000000000001 34.1525 0 0 0
1227 4 21.570000000000004 57.52000000000001 35.95000000000001 0 0 0
1229 5 23.367500000000003 57.52000000000001 37.7475 0 0 0
1231 1 21.570000000000004 57.52000000000001 39.54500000000001 0 0 0
1233 4 23.367500000000003 57.52000000000001 41.3425 0 0 0
1235 3 21.570000000000004 57.52000000000001 43.14000000000001 0 0 0
1237 1 23.367500000000003 57.52000000000001 44.9375 0 0 0
1239 5 21.570000000000004 57.52000000000001 46.735000000000014 0 0 0
1241 3 23.367500000000003 57.52000000000001 48.532500000000006 0 0 0
1243 2 21.570000000000004 57.52000000000001 50.33000000000001 0 0 0
1245 1 23.367500000000003 57.52000000000001 52.127500000000005 0 0 0
1247 5 21.570000000000004 57.52000000000001 53.92500000000001 0 0 0
1249 5 23.367500000000003 57.52000000000001 55.72250000000001 0 0 0
1251 2 21.570000000000004 57.52000000000001 57.52000000000001 0 0 0
1512 5 26.962500000000006 30.557500000000008 53.92500000000001 0 0 0
1513 1 26.962500000000006 30.557500000000008 57.52000000000001 0 0 0
1515 4 26.962500000000006 34.1525 43.14000000000001 0 0 0
1516 5 25.165000000000003 34.1525 48.532500000000006 0 0 0
1517 3 26.962500000000006 32.35500000000001 48.532500000000006 0 0 0
1518 1 26.962500000000006 34.1525 46.735000000000014 0 0 0
1519 5 25.165000000000003 34.1525 52.127500000000005 0 0 0
1520 2 26.962500000000006 32.35500000000001 52.127500000000005 0 0 0
1521 4 26.962500000000006 34.1525 50.33000000000001 0 0 0
1522 3 25.165000000000003 32.35500000000001 53.92500000000001 0 0 0
1523 1 25.165000000000003 34.1525 55.72250000000001 0 0 0
1524 5 26.962500000000006 32.35500000000001 55.72250000000001 0 0 0
1525 3 26.962500000000006 34.1525 53.92500000000001 0 0 0
1526 3 25.165000000000003 32.35500000000001 57.52000000000001 0 0 0
1529 4 26.962500000000006 34.1525 57.52000000000001 0 0 0
1539 1 25.165000000000003 37.7475 37.7475 0 0 0
1540 4 26.962500000000006 35.95000000000001 37.7475 0 0 0
1541 4 26.962500000000006 37.7475 35.95000000000001 0 0 0
1542 4 25.165000000000003 37.7475 41.3425 0 0 0
1543 5 26.962500000000006 35.95000000000001 41.3425 0 0 0
1544 5 26.962500000000006 37.7475 39.54500000000001 0 0 0
1545 5 25.165000000000003 35.95000000000001 43.14000000000001 0 0 0
1546 2 25.165000000000003 37.7475 44.9375 0 0 0
1547 1 26.962500000000006 35.95000000000001 44.9375 0 0 0
1548 5 26.962500000000006 37.7475 43.14000000000001 0 0 0
1549 5 25.165000000000003 35.95000000000001 46.735000000000014 0 0 0
1550 3 25.165000000000003 37.7475 48.532500000000006 0 0 0
1551 5 26.962500000000006 35.95000000000001 48.532500000000006 0 0 0
1552 3 26.962500000000006 37.7475 46.735000000000014 0 0 0