model_files/PdCu/PdCu_30000/PdCu_310/PdCu_310_fcc_30527_temp.data (written by ASE) 

30527 	 atoms 
2  atom types
0.0                      86  xlo xhi
0.0                      86  ylo yhi
0.0                      86  zlo zhi


Atoms 

     1   1  1.4210854715202004e-14       39.63750000000001      41.525000000000013
     2   1  1.4210854715202004e-14      41.525000000000013       39.63750000000001
     3   1  1.4210854715202004e-14       39.63750000000001      45.300000000000011
     4   1  1.4210854715202004e-14      41.525000000000013      43.412500000000009
     5   1  1.4210854715202004e-14      41.525000000000013                 47.1875
     6   1  1.4210854715202004e-14      43.412500000000009      41.525000000000013
     7   1  1.4210854715202004e-14      45.300000000000011       39.63750000000001
     8   1  1.4210854715202004e-14      43.412500000000009      45.300000000000011
     9   1  1.4210854715202004e-14      45.300000000000011      43.412500000000009
    10   1  1.4210854715202004e-14      45.300000000000011                 47.1875
    11   1  1.4210854715202004e-14                 47.1875      41.525000000000013
    12   1  1.4210854715202004e-14                 47.1875      45.300000000000011
    13   1      3.7750000000000123      28.312500000000011       30.20000000000001
    14   1      3.7750000000000123       30.20000000000001      28.312500000000011
    15   1      3.7750000000000123      28.312500000000011      33.975000000000016
    16   1      3.7750000000000123       30.20000000000001      32.087500000000013
    17   1      3.7750000000000123      28.312500000000011      37.750000000000014
    18   1      3.7750000000000123       30.20000000000001      35.862500000000011
    19   1      3.7750000000000123      28.312500000000011      41.525000000000013
    20   1      3.7750000000000123       30.20000000000001       39.63750000000001
    21   1      3.7750000000000123      28.312500000000011      45.300000000000011
    22   1      3.7750000000000123       30.20000000000001      43.412500000000009
    23   1      3.7750000000000123      28.312500000000011      49.075000000000003
    24   1      3.7750000000000123       30.20000000000001                 47.1875
    25   1      3.7750000000000123      28.312500000000011      52.850000000000023
    26   1      3.7750000000000123       30.20000000000001      50.962500000000006
    27   1      3.7750000000000123      28.312500000000011      56.625000000000014
    28   1      3.7750000000000123       30.20000000000001      54.737500000000011
    29   1      3.7750000000000123       30.20000000000001       58.51250000000001
    30   1      3.7750000000000123      32.087500000000013       30.20000000000001
    31   1      3.7750000000000123      33.975000000000016      28.312500000000011
    32   1      1.8875000000000099      33.975000000000016      33.975000000000016
    33   1      3.7750000000000123      32.087500000000013      33.975000000000016
    34   1      3.7750000000000123      33.975000000000016      32.087500000000013
    35   1      1.8875000000000099      33.975000000000016      37.750000000000014
    36   1      3.7750000000000123      32.087500000000013      37.750000000000014
    37   1      3.7750000000000123      33.975000000000016      35.862500000000011
    38   1      1.8875000000000099      33.975000000000016      41.525000000000013
    39   1      3.7750000000000123      32.087500000000013      41.525000000000013
    40   1      3.7750000000000123      33.975000000000016       39.63750000000001
    41   1      1.8875000000000099      33.975000000000016      45.300000000000011
    42   1      3.7750000000000123      32.087500000000013      45.300000000000011
    43   1      3.7750000000000123      33.975000000000016      43.412500000000009
    44   1      1.8875000000000099      33.975000000000016      49.075000000000003
    45   1      3.7750000000000123      32.087500000000013      49.075000000000003
    46   1      3.7750000000000123      33.975000000000016                 47.1875
    47   1      1.8875000000000099      33.975000000000016      52.850000000000023
    48   1      3.7750000000000123      32.087500000000013      52.850000000000023
    49   1      3.7750000000000123      33.975000000000016      50.962500000000006
    50   1      3.7750000000000123      32.087500000000013      56.625000000000014
    51   1      3.7750000000000123      33.975000000000016      54.737500000000011
    52   1      3.7750000000000123      33.975000000000016       58.51250000000001
    53   1      3.7750000000000123      35.862500000000011       30.20000000000001
    54   1      3.7750000000000123      37.750000000000014      28.312500000000011
    55   1      1.8875000000000099      37.750000000000014      33.975000000000016
    56   1      3.7750000000000123      35.862500000000011      33.975000000000016
    57   1      3.7750000000000123      37.750000000000014      32.087500000000013
    58   1      1.8875000000000099      35.862500000000011      35.862500000000011
    59   1      1.8875000000000099      37.750000000000014      37.750000000000014
    60   1      3.7750000000000123      35.862500000000011      37.750000000000014
    61   1      3.7750000000000123      37.750000000000014      35.862500000000011
    62   1      1.8875000000000099      35.862500000000011       39.63750000000001
    63   1      1.8875000000000099      37.750000000000014      41.525000000000013
    64   1      3.7750000000000123      35.862500000000011      41.525000000000013
    65   1      3.7750000000000123      37.750000000000014       39.63750000000001
    66   1      1.8875000000000099      35.862500000000011      43.412500000000009
    67   1      1.8875000000000099      37.750000000000014      45.300000000000011
    68   1      3.7750000000000123      35.862500000000011      45.300000000000011
    69   1      3.7750000000000123      37.750000000000014      43.412500000000009
    70   1      1.8875000000000099      35.862500000000011                 47.1875
    71   1      1.8875000000000099      37.750000000000014      49.075000000000003
    72   1      3.7750000000000123      35.862500000000011      49.075000000000003
    73   1      3.7750000000000123      37.750000000000014                 47.1875
    74   1      1.8875000000000099      35.862500000000011      50.962500000000006
    75   1      1.8875000000000099      37.750000000000014      52.850000000000023
    76   1      3.7750000000000123      35.862500000000011      52.850000000000023
    77   1      3.7750000000000123      37.750000000000014      50.962500000000006
    78   1      3.7750000000000123      35.862500000000011      56.625000000000014
    79   1      3.7750000000000123      37.750000000000014      54.737500000000011
    80   1      3.7750000000000123      37.750000000000014       58.51250000000001
    81   1      3.7750000000000123       39.63750000000001       30.20000000000001
    82   1      3.7750000000000123      41.525000000000013      28.312500000000011
    83   1      1.8875000000000099      41.525000000000013      33.975000000000016
    84   1      3.7750000000000123       39.63750000000001      33.975000000000016
    85   1      3.7750000000000123      41.525000000000013      32.087500000000013
    86   1      1.8875000000000099       39.63750000000001      35.862500000000011
    87   1      1.8875000000000099      41.525000000000013      37.750000000000014
    88   1      3.7750000000000123       39.63750000000001      37.750000000000014
    89   1      3.7750000000000123      41.525000000000013      35.862500000000011
    90   1      1.8875000000000099       39.63750000000001       39.63750000000001
    91   1      1.8875000000000099      41.525000000000013      41.525000000000013
    92   1      3.7750000000000123       39.63750000000001      41.525000000000013
    93   1      3.7750000000000123      41.525000000000013       39.63750000000001
    94   1      1.8875000000000099       39.63750000000001      43.412500000000009
    95   1      1.8875000000000099      41.525000000000013      45.300000000000011
    96   1      3.7750000000000123       39.63750000000001      45.300000000000011
    97   1      3.7750000000000123      41.525000000000013      43.412500000000009
    98   1      1.8875000000000099       39.63750000000001                 47.1875
    99   1      1.8875000000000099      41.525000000000013      49.075000000000003
   100   1      3.7750000000000123       39.63750000000001      49.075000000000003
   101   1      3.7750000000000123      41.525000000000013                 47.1875
   102   1      1.8875000000000099       39.63750000000001      50.962500000000006
   103   1      1.8875000000000099      41.525000000000013      52.850000000000023
   104   1      3.7750000000000123       39.63750000000001      52.850000000000023
   105   1      3.7750000000000123      41.525000000000013      50.962500000000006
   106   1      3.7750000000000123       39.63750000000001      56.625000000000014
   107   1      3.7750000000000123      41.525000000000013      54.737500000000011
   108   1      3.7750000000000123      41.525000000000013       58.51250000000001
   109   1      3.7750000000000123      43.412500000000009       30.20000000000001
   110   1      3.7750000000000123      45.300000000000011      28.312500000000011
   111   1      1.8875000000000099      45.300000000000011      33.975000000000016
   112   1      3.7750000000000123      43.412500000000009      33.975000000000016
   113   1      3.7750000000000123      45.300000000000011      32.087500000000013
   114   1      1.8875000000000099      43.412500000000009      35.862500000000011
   115   1      1.8875000000000099      45.300000000000011      37.750000000000014
   116   1      3.7750000000000123      43.412500000000009      37.750000000000014
   117   1      3.7750000000000123      45.300000000000011      35.862500000000011
   118   1      1.8875000000000099      43.412500000000009       39.63750000000001
   119   1      1.8875000000000099      45.300000000000011      41.525000000000013
   120   1      3.7750000000000123      43.412500000000009      41.525000000000013
   121   1      3.7750000000000123      45.300000000000011       39.63750000000001
   122   1      1.8875000000000099      43.412500000000009      43.412500000000009
   123   1      1.8875000000000099      45.300000000000011      45.300000000000011
   124   1      3.7750000000000123      43.412500000000009      45.300000000000011
   125   1      3.7750000000000123      45.300000000000011      43.412500000000009
   126   1      1.8875000000000099      43.412500000000009                 47.1875
   127   1      1.8875000000000099      45.300000000000011      49.075000000000003
   128   1      3.7750000000000123      43.412500000000009      49.075000000000003
   129   1      3.7750000000000123      45.300000000000011                 47.1875
   130   1      1.8875000000000099      43.412500000000009      50.962500000000006
   131   1      1.8875000000000099      45.300000000000011      52.850000000000023
   132   1      3.7750000000000123      43.412500000000009      52.850000000000023
   133   1      3.7750000000000123      45.300000000000011      50.962500000000006
   134   1      3.7750000000000123      43.412500000000009      56.625000000000014
   135   1      3.7750000000000123      45.300000000000011      54.737500000000011
   136   1      3.7750000000000123      45.300000000000011       58.51250000000001
   137   1      3.7750000000000123                 47.1875       30.20000000000001
   138   1      3.7750000000000123      49.075000000000003      28.312500000000011
   139   1      1.8875000000000099      49.075000000000003      33.975000000000016
   140   1      3.7750000000000123                 47.1875      33.975000000000016
   141   1      3.7750000000000123      49.075000000000003      32.087500000000013
   142   1      1.8875000000000099                 47.1875      35.862500000000011
   143   1      1.8875000000000099      49.075000000000003      37.750000000000014
   144   1      3.7750000000000123                 47.1875      37.750000000000014
   145   1      3.7750000000000123      49.075000000000003      35.862500000000011
   146   1      1.8875000000000099                 47.1875       39.63750000000001
   147   1      1.8875000000000099      49.075000000000003      41.525000000000013
   148   1      3.7750000000000123                 47.1875      41.525000000000013
   149   1      3.7750000000000123      49.075000000000003       39.63750000000001
   150   1      1.8875000000000099                 47.1875      43.412500000000009
   151   1      1.8875000000000099      49.075000000000003      45.300000000000011
   152   1      3.7750000000000123                 47.1875      45.300000000000011
   153   1      3.7750000000000123      49.075000000000003      43.412500000000009
   154   1      1.8875000000000099                 47.1875                 47.1875
   155   1      1.8875000000000099      49.075000000000003      49.075000000000003
   156   1      3.7750000000000123                 47.1875      49.075000000000003
   157   1      3.7750000000000123      49.075000000000003                 47.1875
   158   1      1.8875000000000099                 47.1875      50.962500000000006
   159   1      1.8875000000000099      49.075000000000003      52.850000000000023
   160   1      3.7750000000000123                 47.1875      52.850000000000023
   161   1      3.7750000000000123      49.075000000000003      50.962500000000006
   162   1      3.7750000000000123                 47.1875      56.625000000000014
   163   1      3.7750000000000123      49.075000000000003      54.737500000000011
   164   1      3.7750000000000123      49.075000000000003       58.51250000000001
   165   1      3.7750000000000123      50.962500000000006       30.20000000000001
   166   1      3.7750000000000123      52.850000000000023      28.312500000000011
   167   1      1.8875000000000099      52.850000000000023      33.975000000000016
   168   1      3.7750000000000123      50.962500000000006      33.975000000000016
   169   1      3.7750000000000123      52.850000000000023      32.087500000000013
   170   1      1.8875000000000099      50.962500000000006      35.862500000000011
   171   1      1.8875000000000099      52.850000000000023      37.750000000000014
   172   1      3.7750000000000123      50.962500000000006      37.750000000000014
   173   1      3.7750000000000123      52.850000000000023      35.862500000000011
   174   1      1.8875000000000099      50.962500000000006       39.63750000000001
   175   1      1.8875000000000099      52.850000000000023      41.525000000000013
   176   1      3.7750000000000123      50.962500000000006      41.525000000000013
   177   1      3.7750000000000123      52.850000000000023       39.63750000000001
   178   1      1.8875000000000099      50.962500000000006      43.412500000000009
   179   1      1.8875000000000099      52.850000000000023      45.300000000000011
   180   1      3.7750000000000123      50.962500000000006      45.300000000000011
   181   1      3.7750000000000123      52.850000000000023      43.412500000000009
   182   1      1.8875000000000099      50.962500000000006                 47.1875
   183   1      1.8875000000000099      52.850000000000023      49.075000000000003
   184   1      3.7750000000000123      50.962500000000006      49.075000000000003
   185   1      3.7750000000000123      52.850000000000023                 47.1875
   186   1      1.8875000000000099      50.962500000000006      50.962500000000006
   187   1      1.8875000000000099      52.850000000000023      52.850000000000023
   188   1      3.7750000000000123      50.962500000000006      52.850000000000023
   189   1      3.7750000000000123      52.850000000000023      50.962500000000006
   190   1      3.7750000000000123      50.962500000000006      56.625000000000014
   191   1      3.7750000000000123      52.850000000000023      54.737500000000011
   192   1      3.7750000000000123      52.850000000000023       58.51250000000001
   193   1      3.7750000000000123      54.737500000000011       30.20000000000001
   194   1      3.7750000000000123      56.625000000000014      28.312500000000011
   195   1      3.7750000000000123      54.737500000000011      33.975000000000016
   196   1      3.7750000000000123      56.625000000000014      32.087500000000013
   197   1      3.7750000000000123      54.737500000000011      37.750000000000014
   198   1      3.7750000000000123      56.625000000000014      35.862500000000011
   199   1      3.7750000000000123      54.737500000000011      41.525000000000013
   200   1      3.7750000000000123      56.625000000000014       39.63750000000001
   201   1      3.7750000000000123      54.737500000000011      45.300000000000011
   202   1      3.7750000000000123      56.625000000000014      43.412500000000009
   203   1      3.7750000000000123      54.737500000000011      49.075000000000003
   204   1      3.7750000000000123      56.625000000000014                 47.1875
   205   1      3.7750000000000123      54.737500000000011      52.850000000000023
   206   1      3.7750000000000123      56.625000000000014      50.962500000000006
   207   1      3.7750000000000123      54.737500000000011      56.625000000000014
   208   1      3.7750000000000123      56.625000000000014      54.737500000000011
   209   1      3.7750000000000123      56.625000000000014       58.51250000000001
   210   1      3.7750000000000123       58.51250000000001       30.20000000000001
   211   1      3.7750000000000123       58.51250000000001      33.975000000000016
   212   1      3.7750000000000123       58.51250000000001      37.750000000000014
   213   1      3.7750000000000123       58.51250000000001      41.525000000000013
   214   1      3.7750000000000123       58.51250000000001      45.300000000000011
   215   1      3.7750000000000123       58.51250000000001      49.075000000000003
   216   1      3.7750000000000123       58.51250000000001      52.850000000000023
   217   1      3.7750000000000123       58.51250000000001      56.625000000000014
   218   1      7.5500000000000105      16.987500000000011      18.875000000000011
   219   1      7.5500000000000105      18.875000000000011      16.987500000000011
   220   1      7.5500000000000105      16.987500000000011      22.650000000000009
   221   1      7.5500000000000105      18.875000000000011       20.76250000000001
   222   1      7.5500000000000105      16.987500000000011      26.425000000000011
   223   1      7.5500000000000105      18.875000000000011      24.537500000000012
   224   1      7.5500000000000105      16.987500000000011       30.20000000000001
   225   1      7.5500000000000105      18.875000000000011      28.312500000000011
   226   1      7.5500000000000105      16.987500000000011      33.975000000000016
   227   1      7.5500000000000105      18.875000000000011      32.087500000000013
   228   1      7.5500000000000105      16.987500000000011      37.750000000000014
   229   1      7.5500000000000105      18.875000000000011      35.862500000000011
   230   1      7.5500000000000105      16.987500000000011      41.525000000000013
   231   1      7.5500000000000105      18.875000000000011       39.63750000000001
   232   1      7.5500000000000105      16.987500000000011      45.300000000000011
   233   1      7.5500000000000105      18.875000000000011      43.412500000000009
   234   1      7.5500000000000105      16.987500000000011      49.075000000000003
   235   1      7.5500000000000105      18.875000000000011                 47.1875
   236   1      7.5500000000000105      16.987500000000011      52.850000000000023
   237   1      7.5500000000000105      18.875000000000011      50.962500000000006
   238   1      7.5500000000000105      16.987500000000011      56.625000000000014
   239   1      7.5500000000000105      18.875000000000011      54.737500000000011
   240   1      7.5500000000000105      16.987500000000011      60.400000000000013
   241   1      7.5500000000000105      18.875000000000011       58.51250000000001
   242   1      7.5500000000000105      16.987500000000011      64.175000000000011
   243   1      7.5500000000000105      18.875000000000011      62.287500000000016
   244   1      7.5500000000000105      16.987500000000011      67.950000000000017
   245   1      7.5500000000000105      18.875000000000011      66.062500000000014
   246   1      7.5500000000000105      18.875000000000011      69.837500000000006
   247   1      7.5500000000000105       20.76250000000001      18.875000000000011
   248   1      7.5500000000000105      22.650000000000009      16.987500000000011
   249   1      5.6625000000000085      22.650000000000009      22.650000000000009
   250   1      7.5500000000000105       20.76250000000001      22.650000000000009
   251   1      7.5500000000000105      22.650000000000009       20.76250000000001
   252   1      5.6625000000000085      22.650000000000009      26.425000000000011
   253   1      7.5500000000000105       20.76250000000001      26.425000000000011
   254   1      7.5500000000000105      22.650000000000009      24.537500000000012
   255   1      5.6625000000000085      22.650000000000009       30.20000000000001
   256   1      7.5500000000000105       20.76250000000001       30.20000000000001
   257   1      7.5500000000000105      22.650000000000009      28.312500000000011
   258   1      5.6625000000000085      22.650000000000009      33.975000000000016
   259   1      7.5500000000000105       20.76250000000001      33.975000000000016
   260   1      7.5500000000000105      22.650000000000009      32.087500000000013
   261   1      5.6625000000000085      22.650000000000009      37.750000000000014
   262   1      7.5500000000000105       20.76250000000001      37.750000000000014
   263   1      7.5500000000000105      22.650000000000009      35.862500000000011
   264   1      5.6625000000000085      22.650000000000009      41.525000000000013
   265   1      7.5500000000000105       20.76250000000001      41.525000000000013
   266   1      7.5500000000000105      22.650000000000009       39.63750000000001
   267   1      5.6625000000000085      22.650000000000009      45.300000000000011
   268   1      7.5500000000000105       20.76250000000001      45.300000000000011
   269   1      7.5500000000000105      22.650000000000009      43.412500000000009
   270   1      5.6625000000000085      22.650000000000009      49.075000000000003
   271   1      7.5500000000000105       20.76250000000001      49.075000000000003
   272   1      7.5500000000000105      22.650000000000009                 47.1875
   273   1      5.6625000000000085      22.650000000000009      52.850000000000023
   274   1      7.5500000000000105       20.76250000000001      52.850000000000023
   275   1      7.5500000000000105      22.650000000000009      50.962500000000006
   276   1      5.6625000000000085      22.650000000000009      56.625000000000014
   277   1      7.5500000000000105       20.76250000000001      56.625000000000014
   278   1      7.5500000000000105      22.650000000000009      54.737500000000011
   279   1      5.6625000000000085      22.650000000000009      60.400000000000013
   280   1      7.5500000000000105       20.76250000000001      60.400000000000013
   281   1      7.5500000000000105      22.650000000000009       58.51250000000001
   282   1      5.6625000000000085      22.650000000000009      64.175000000000011
   283   1      7.5500000000000105       20.76250000000001      64.175000000000011
   284   1      7.5500000000000105      22.650000000000009      62.287500000000016
   285   1      7.5500000000000105       20.76250000000001      67.950000000000017
   286   1      7.5500000000000105      22.650000000000009      66.062500000000014
   287   1      7.5500000000000105      22.650000000000009      69.837500000000006
   288   1      7.5500000000000105      24.537500000000012      18.875000000000011
   289   1      7.5500000000000105      26.425000000000011      16.987500000000011
   290   1      5.6625000000000085      26.425000000000011      22.650000000000009
   291   1      7.5500000000000105      24.537500000000012      22.650000000000009
   292   1      7.5500000000000105      26.425000000000011       20.76250000000001
   293   1      5.6625000000000085      24.537500000000012      24.537500000000012
   294   1      5.6625000000000085      26.425000000000011      26.425000000000011
   295   1      7.5500000000000105      24.537500000000012      26.425000000000011
   296   1      7.5500000000000105      26.425000000000011      24.537500000000012
   297   1      5.6625000000000085      24.537500000000012      28.312500000000011
   298   1      5.6625000000000085      26.425000000000011       30.20000000000001
   299   1      7.5500000000000105      24.537500000000012       30.20000000000001
   300   1      7.5500000000000105      26.425000000000011      28.312500000000011
   301   1      5.6625000000000085      24.537500000000012      32.087500000000013
   302   1      5.6625000000000085      26.425000000000011      33.975000000000016
   303   1      7.5500000000000105      24.537500000000012      33.975000000000016
   304   1      7.5500000000000105      26.425000000000011      32.087500000000013
   305   1      5.6625000000000085      24.537500000000012      35.862500000000011
   306   1      5.6625000000000085      26.425000000000011      37.750000000000014
   307   1      7.5500000000000105      24.537500000000012      37.750000000000014
   308   1      7.5500000000000105      26.425000000000011      35.862500000000011
   309   1      5.6625000000000085      24.537500000000012       39.63750000000001
   310   1      5.6625000000000085      26.425000000000011      41.525000000000013
   311   1      7.5500000000000105      24.537500000000012      41.525000000000013
   312   1      7.5500000000000105      26.425000000000011       39.63750000000001
   313   1      5.6625000000000085      24.537500000000012      43.412500000000009
   314   1      5.6625000000000085      26.425000000000011      45.300000000000011
   315   1      7.5500000000000105      24.537500000000012      45.300000000000011
   316   1      7.5500000000000105      26.425000000000011      43.412500000000009
   317   1      5.6625000000000085      24.537500000000012                 47.1875
   318   1      5.6625000000000085      26.425000000000011      49.075000000000003
   319   1      7.5500000000000105      24.537500000000012      49.075000000000003
   320   1      7.5500000000000105      26.425000000000011                 47.1875
   321   1      5.6625000000000085      24.537500000000012      50.962500000000006
   322   1      5.6625000000000085      26.425000000000011      52.850000000000023
   323   1      7.5500000000000105      24.537500000000012      52.850000000000023
   324   1      7.5500000000000105      26.425000000000011      50.962500000000006
   325   1      5.6625000000000085      24.537500000000012      54.737500000000011
   326   1      5.6625000000000085      26.425000000000011      56.625000000000014
   327   1      7.5500000000000105      24.537500000000012      56.625000000000014
   328   1      7.5500000000000105      26.425000000000011      54.737500000000011
   329   1      5.6625000000000085      24.537500000000012       58.51250000000001
   330   1      5.6625000000000085      26.425000000000011      60.400000000000013
   331   1      7.5500000000000105      24.537500000000012      60.400000000000013
   332   1      7.5500000000000105      26.425000000000011       58.51250000000001
   333   1      5.6625000000000085      24.537500000000012      62.287500000000016
   334   1      5.6625000000000085      26.425000000000011      64.175000000000011
   335   1      7.5500000000000105      24.537500000000012      64.175000000000011
   336   1      7.5500000000000105      26.425000000000011      62.287500000000016
   337   1      7.5500000000000105      24.537500000000012      67.950000000000017
   338   1      7.5500000000000105      26.425000000000011      66.062500000000014
   339   1      7.5500000000000105      26.425000000000011      69.837500000000006
   340   1      7.5500000000000105      28.312500000000011      18.875000000000011
   341   1      7.5500000000000105       30.20000000000001      16.987500000000011
   342   1      5.6625000000000085       30.20000000000001      22.650000000000009
   343   1      7.5500000000000105      28.312500000000011      22.650000000000009
   344   1      7.5500000000000105       30.20000000000001       20.76250000000001
   345   1      5.6625000000000085      28.312500000000011      24.537500000000012
   346   1      5.6625000000000085       30.20000000000001      26.425000000000011
   347   1      7.5500000000000105      28.312500000000011      26.425000000000011
   348   1      7.5500000000000105       30.20000000000001      24.537500000000012
   349   1      5.6625000000000085      28.312500000000011      28.312500000000011
   350   1      5.6625000000000085       30.20000000000001       30.20000000000001
   351   1      7.5500000000000105      28.312500000000011       30.20000000000001
   352   1      7.5500000000000105       30.20000000000001      28.312500000000011
   353   1      5.6625000000000085      28.312500000000011      32.087500000000013
   354   1      5.6625000000000085       30.20000000000001      33.975000000000016
   355   1      7.5500000000000105      28.312500000000011      33.975000000000016
   356   1      7.5500000000000105       30.20000000000001      32.087500000000013
   357   1      5.6625000000000085      28.312500000000011      35.862500000000011
   358   1      5.6625000000000085       30.20000000000001      37.750000000000014