model_files/Ag/Ag_30000/Ag_553/data.Ag_553_fcc_29881 (written by ASE) 

29881 	 atoms 
1  atom types
0.0                     130  xlo xhi
0.0                     130  ylo yhi
0.0                     130  zlo zhi


Atoms 

     1   1                       0      63.395000000000003      63.395000000000003
     2   1      2.0449999999999946      61.349999999999994      63.395000000000003
     3   1      2.0449999999999946      63.395000000000003      61.349999999999994
     4   1                       0      63.395000000000003      67.484999999999999
     5   1      2.0449999999999946      61.349999999999994      67.484999999999999
     6   1      2.0449999999999946      63.395000000000003      65.440000000000012
     7   1      2.0449999999999946      63.395000000000003      69.530000000000001
     8   1                       0      67.484999999999999      63.395000000000003
     9   1      2.0449999999999946      65.440000000000012      63.395000000000003
    10   1      2.0449999999999946      67.484999999999999      61.349999999999994
    11   1                       0      65.440000000000012      65.440000000000012
    12   1                       0      67.484999999999999      67.484999999999999
    13   1      2.0449999999999946      65.440000000000012      67.484999999999999
    14   1      2.0449999999999946      67.484999999999999      65.440000000000012
    15   1      2.0449999999999946      67.484999999999999      69.530000000000001
    16   1      2.0449999999999946      69.530000000000001      63.395000000000003
    17   1      2.0449999999999946      69.530000000000001      67.484999999999999
    18   1      4.0899999999999972                  59.305      63.395000000000003
    19   1       6.134999999999998      57.259999999999991      63.395000000000003
    20   1       6.134999999999998                  59.305      61.349999999999994
    21   1      4.0899999999999972                  59.305      67.484999999999999
    22   1       6.134999999999998      57.259999999999991      67.484999999999999
    23   1       6.134999999999998                  59.305      65.440000000000012
    24   1       6.134999999999998                  59.305      69.530000000000001
    25   1      4.0899999999999972      63.395000000000003                  59.305
    26   1       6.134999999999998      61.349999999999994                  59.305
    27   1       6.134999999999998      63.395000000000003      57.259999999999991
    28   1      4.0899999999999972      61.349999999999994      61.349999999999994
    29   1      4.0899999999999972      63.395000000000003      63.395000000000003
    30   1       6.134999999999998      61.349999999999994      63.395000000000003
    31   1       6.134999999999998      63.395000000000003      61.349999999999994
    32   1      4.0899999999999972      61.349999999999994      65.440000000000012
    33   1      4.0899999999999972      63.395000000000003      67.484999999999999
    34   1       6.134999999999998      61.349999999999994      67.484999999999999
    35   1       6.134999999999998      63.395000000000003      65.440000000000012
    36   1      4.0899999999999972      61.349999999999994      69.530000000000001
    37   1      4.0899999999999972      63.395000000000003      71.575000000000003
    38   1       6.134999999999998      61.349999999999994      71.575000000000003
    39   1       6.134999999999998      63.395000000000003      69.530000000000001
    40   1       6.134999999999998      63.395000000000003      73.620000000000005
    41   1      4.0899999999999972      67.484999999999999                  59.305
    42   1       6.134999999999998      65.440000000000012                  59.305
    43   1       6.134999999999998      67.484999999999999      57.259999999999991
    44   1      4.0899999999999972      65.440000000000012      61.349999999999994
    45   1      4.0899999999999972      67.484999999999999      63.395000000000003
    46   1       6.134999999999998      65.440000000000012      63.395000000000003
    47   1       6.134999999999998      67.484999999999999      61.349999999999994
    48   1      4.0899999999999972      65.440000000000012      65.440000000000012
    49   1      4.0899999999999972      67.484999999999999      67.484999999999999
    50   1       6.134999999999998      65.440000000000012      67.484999999999999
    51   1       6.134999999999998      67.484999999999999      65.440000000000012
    52   1      4.0899999999999972      65.440000000000012      69.530000000000001
    53   1      4.0899999999999972      67.484999999999999      71.575000000000003
    54   1       6.134999999999998      65.440000000000012      71.575000000000003
    55   1       6.134999999999998      67.484999999999999      69.530000000000001
    56   1       6.134999999999998      67.484999999999999      73.620000000000005
    57   1       6.134999999999998      69.530000000000001                  59.305
    58   1      4.0899999999999972      69.530000000000001      61.349999999999994
    59   1      4.0899999999999972      71.575000000000003      63.395000000000003
    60   1       6.134999999999998      69.530000000000001      63.395000000000003
    61   1       6.134999999999998      71.575000000000003      61.349999999999994
    62   1      4.0899999999999972      69.530000000000001      65.440000000000012
    63   1      4.0899999999999972      71.575000000000003      67.484999999999999
    64   1       6.134999999999998      69.530000000000001      67.484999999999999
    65   1       6.134999999999998      71.575000000000003      65.440000000000012
    66   1      4.0899999999999972      69.530000000000001      69.530000000000001
    67   1       6.134999999999998      69.530000000000001      71.575000000000003
    68   1       6.134999999999998      71.575000000000003      69.530000000000001
    69   1       6.134999999999998      73.620000000000005      63.395000000000003
    70   1       6.134999999999998      73.620000000000005      67.484999999999999
    71   1      8.1799999999999944      55.215000000000003      63.395000000000003
    72   1      10.224999999999994      53.169999999999995      63.395000000000003
    73   1      10.224999999999994      55.215000000000003      61.349999999999994
    74   1      8.1799999999999944      55.215000000000003      67.484999999999999
    75   1      10.224999999999994      53.169999999999995      67.484999999999999
    76   1      10.224999999999994      55.215000000000003      65.440000000000012
    77   1      10.224999999999994      55.215000000000003      69.530000000000001
    78   1      8.1799999999999944                  59.305                  59.305
    79   1      10.224999999999994      57.259999999999991                  59.305
    80   1      10.224999999999994                  59.305      57.259999999999991
    81   1      8.1799999999999944      57.259999999999991      61.349999999999994
    82   1      8.1799999999999944                  59.305      63.395000000000003
    83   1      10.224999999999994      57.259999999999991      63.395000000000003
    84   1      10.224999999999994                  59.305      61.349999999999994
    85   1      8.1799999999999944      57.259999999999991      65.440000000000012
    86   1      8.1799999999999944                  59.305      67.484999999999999
    87   1      10.224999999999994      57.259999999999991      67.484999999999999
    88   1      10.224999999999994                  59.305      65.440000000000012
    89   1      8.1799999999999944      57.259999999999991      69.530000000000001
    90   1      8.1799999999999944                  59.305      71.575000000000003
    91   1      10.224999999999994      57.259999999999991      71.575000000000003
    92   1      10.224999999999994                  59.305      69.530000000000001
    93   1      10.224999999999994                  59.305      73.620000000000005
    94   1      8.1799999999999944      63.395000000000003      55.215000000000003
    95   1      10.224999999999994      61.349999999999994      55.215000000000003
    96   1      10.224999999999994      63.395000000000003      53.169999999999995
    97   1      8.1799999999999944      61.349999999999994      57.259999999999991
    98   1      8.1799999999999944      63.395000000000003                  59.305
    99   1      10.224999999999994      61.349999999999994                  59.305
   100   1      10.224999999999994      63.395000000000003      57.259999999999991
   101   1      8.1799999999999944      61.349999999999994      61.349999999999994
   102   1      8.1799999999999944      63.395000000000003      63.395000000000003
   103   1      10.224999999999994      61.349999999999994      63.395000000000003
   104   1      10.224999999999994      63.395000000000003      61.349999999999994
   105   1      8.1799999999999944      61.349999999999994      65.440000000000012
   106   1      8.1799999999999944      63.395000000000003      67.484999999999999
   107   1      10.224999999999994      61.349999999999994      67.484999999999999
   108   1      10.224999999999994      63.395000000000003      65.440000000000012
   109   1      8.1799999999999944      61.349999999999994      69.530000000000001
   110   1      8.1799999999999944      63.395000000000003      71.575000000000003
   111   1      10.224999999999994      61.349999999999994      71.575000000000003
   112   1      10.224999999999994      63.395000000000003      69.530000000000001
   113   1      8.1799999999999944      61.349999999999994      73.620000000000005
   114   1      8.1799999999999944      63.395000000000003      75.664999999999992
   115   1      10.224999999999994      61.349999999999994      75.664999999999992
   116   1      10.224999999999994      63.395000000000003      73.620000000000005
   117   1      10.224999999999994      63.395000000000003      77.709999999999994
   118   1      8.1799999999999944      67.484999999999999      55.215000000000003
   119   1      10.224999999999994      65.440000000000012      55.215000000000003
   120   1      10.224999999999994      67.484999999999999      53.169999999999995
   121   1      8.1799999999999944      65.440000000000012      57.259999999999991
   122   1      8.1799999999999944      67.484999999999999                  59.305
   123   1      10.224999999999994      65.440000000000012                  59.305
   124   1      10.224999999999994      67.484999999999999      57.259999999999991
   125   1      8.1799999999999944      65.440000000000012      61.349999999999994
   126   1      8.1799999999999944      67.484999999999999      63.395000000000003
   127   1      10.224999999999994      65.440000000000012      63.395000000000003
   128   1      10.224999999999994      67.484999999999999      61.349999999999994
   129   1      8.1799999999999944      65.440000000000012      65.440000000000012
   130   1      8.1799999999999944      67.484999999999999      67.484999999999999
   131   1      10.224999999999994      65.440000000000012      67.484999999999999
   132   1      10.224999999999994      67.484999999999999      65.440000000000012
   133   1      8.1799999999999944      65.440000000000012      69.530000000000001
   134   1      8.1799999999999944      67.484999999999999      71.575000000000003
   135   1      10.224999999999994      65.440000000000012      71.575000000000003
   136   1      10.224999999999994      67.484999999999999      69.530000000000001
   137   1      8.1799999999999944      65.440000000000012      73.620000000000005
   138   1      8.1799999999999944      67.484999999999999      75.664999999999992
   139   1      10.224999999999994      65.440000000000012      75.664999999999992
   140   1      10.224999999999994      67.484999999999999      73.620000000000005
   141   1      10.224999999999994      67.484999999999999      77.709999999999994
   142   1      10.224999999999994      69.530000000000001      55.215000000000003
   143   1      8.1799999999999944      69.530000000000001      57.259999999999991
   144   1      8.1799999999999944      71.575000000000003                  59.305
   145   1      10.224999999999994      69.530000000000001                  59.305
   146   1      10.224999999999994      71.575000000000003      57.259999999999991
   147   1      8.1799999999999944      69.530000000000001      61.349999999999994
   148   1      8.1799999999999944      71.575000000000003      63.395000000000003
   149   1      10.224999999999994      69.530000000000001      63.395000000000003
   150   1      10.224999999999994      71.575000000000003      61.349999999999994
   151   1      8.1799999999999944      69.530000000000001      65.440000000000012
   152   1      8.1799999999999944      71.575000000000003      67.484999999999999
   153   1      10.224999999999994      69.530000000000001      67.484999999999999
   154   1      10.224999999999994      71.575000000000003      65.440000000000012
   155   1      8.1799999999999944      69.530000000000001      69.530000000000001
   156   1      8.1799999999999944      71.575000000000003      71.575000000000003
   157   1      10.224999999999994      69.530000000000001      71.575000000000003
   158   1      10.224999999999994      71.575000000000003      69.530000000000001
   159   1      8.1799999999999944      69.530000000000001      73.620000000000005
   160   1      10.224999999999994      69.530000000000001      75.664999999999992
   161   1      10.224999999999994      71.575000000000003      73.620000000000005
   162   1      10.224999999999994      73.620000000000005                  59.305
   163   1      8.1799999999999944      73.620000000000005      61.349999999999994
   164   1      8.1799999999999944      75.664999999999992      63.395000000000003
   165   1      10.224999999999994      73.620000000000005      63.395000000000003
   166   1      10.224999999999994      75.664999999999992      61.349999999999994
   167   1      8.1799999999999944      73.620000000000005      65.440000000000012
   168   1      8.1799999999999944      75.664999999999992      67.484999999999999
   169   1      10.224999999999994      73.620000000000005      67.484999999999999
   170   1      10.224999999999994      75.664999999999992      65.440000000000012
   171   1      8.1799999999999944      73.620000000000005      69.530000000000001
   172   1      10.224999999999994      73.620000000000005      71.575000000000003
   173   1      10.224999999999994      75.664999999999992      69.530000000000001
   174   1      10.224999999999994      77.709999999999994      63.395000000000003
   175   1      10.224999999999994      77.709999999999994      67.484999999999999
   176   1      12.269999999999996      51.125000000000007      63.395000000000003
   177   1      14.314999999999998      49.079999999999998      63.395000000000003
   178   1      14.314999999999998      51.125000000000007      61.349999999999994
   179   1      12.269999999999996      51.125000000000007      67.484999999999999
   180   1      14.314999999999998      49.079999999999998      67.484999999999999
   181   1      14.314999999999998      51.125000000000007      65.440000000000012
   182   1      14.314999999999998      51.125000000000007      69.530000000000001
   183   1      12.269999999999996      55.215000000000003                  59.305
   184   1      14.314999999999998      53.169999999999995                  59.305
   185   1      14.314999999999998      55.215000000000003      57.259999999999991
   186   1      12.269999999999996      53.169999999999995      61.349999999999994
   187   1      12.269999999999996      55.215000000000003      63.395000000000003
   188   1      14.314999999999998      53.169999999999995      63.395000000000003
   189   1      14.314999999999998      55.215000000000003      61.349999999999994
   190   1      12.269999999999996      53.169999999999995      65.440000000000012
   191   1      12.269999999999996      55.215000000000003      67.484999999999999
   192   1      14.314999999999998      53.169999999999995      67.484999999999999
   193   1      14.314999999999998      55.215000000000003      65.440000000000012
   194   1      12.269999999999996      53.169999999999995      69.530000000000001
   195   1      12.269999999999996      55.215000000000003      71.575000000000003
   196   1      14.314999999999998      53.169999999999995      71.575000000000003
   197   1      14.314999999999998      55.215000000000003      69.530000000000001
   198   1      14.314999999999998      55.215000000000003      73.620000000000005
   199   1      12.269999999999996                  59.305      55.215000000000003
   200   1      14.314999999999998      57.259999999999991      55.215000000000003
   201   1      14.314999999999998                  59.305      53.169999999999995
   202   1      12.269999999999996      57.259999999999991      57.259999999999991
   203   1      12.269999999999996                  59.305                  59.305
   204   1      14.314999999999998      57.259999999999991                  59.305
   205   1      14.314999999999998                  59.305      57.259999999999991
   206   1      12.269999999999996      57.259999999999991      61.349999999999994
   207   1      12.269999999999996                  59.305      63.395000000000003
   208   1      14.314999999999998      57.259999999999991      63.395000000000003
   209   1      14.314999999999998                  59.305      61.349999999999994
   210   1      12.269999999999996      57.259999999999991      65.440000000000012
   211   1      12.269999999999996                  59.305      67.484999999999999
   212   1      14.314999999999998      57.259999999999991      67.484999999999999
   213   1      14.314999999999998                  59.305      65.440000000000012
   214   1      12.269999999999996      57.259999999999991      69.530000000000001
   215   1      12.269999999999996                  59.305      71.575000000000003
   216   1      14.314999999999998      57.259999999999991      71.575000000000003
   217   1      14.314999999999998                  59.305      69.530000000000001
   218   1      12.269999999999996      57.259999999999991      73.620000000000005
   219   1      12.269999999999996                  59.305      75.664999999999992
   220   1      14.314999999999998      57.259999999999991      75.664999999999992
   221   1      14.314999999999998                  59.305      73.620000000000005
   222   1      14.314999999999998                  59.305      77.709999999999994
   223   1      12.269999999999996      63.395000000000003      51.125000000000007
   224   1      14.314999999999998      61.349999999999994      51.125000000000007
   225   1      14.314999999999998      63.395000000000003      49.079999999999998
   226   1      12.269999999999996      61.349999999999994      53.169999999999995
   227   1      12.269999999999996      63.395000000000003      55.215000000000003
   228   1      14.314999999999998      61.349999999999994      55.215000000000003
   229   1      14.314999999999998      63.395000000000003      53.169999999999995
   230   1      12.269999999999996      61.349999999999994      57.259999999999991
   231   1      12.269999999999996      63.395000000000003                  59.305
   232   1      14.314999999999998      61.349999999999994                  59.305
   233   1      14.314999999999998      63.395000000000003      57.259999999999991
   234   1      12.269999999999996      61.349999999999994      61.349999999999994
   235   1      12.269999999999996      63.395000000000003      63.395000000000003
   236   1      14.314999999999998      61.349999999999994      63.395000000000003
   237   1      14.314999999999998      63.395000000000003      61.349999999999994
   238   1      12.269999999999996      61.349999999999994      65.440000000000012
   239   1      12.269999999999996      63.395000000000003      67.484999999999999
   240   1      14.314999999999998      61.349999999999994      67.484999999999999
   241   1      14.314999999999998      63.395000000000003      65.440000000000012
   242   1      12.269999999999996      61.349999999999994      69.530000000000001
   243   1      12.269999999999996      63.395000000000003      71.575000000000003
   244   1      14.314999999999998      61.349999999999994      71.575000000000003
   245   1      14.314999999999998      63.395000000000003      69.530000000000001
   246   1      12.269999999999996      61.349999999999994      73.620000000000005
   247   1      12.269999999999996      63.395000000000003      75.664999999999992
   248   1      14.314999999999998      61.349999999999994      75.664999999999992
   249   1      14.314999999999998      63.395000000000003      73.620000000000005
   250   1      12.269999999999996      61.349999999999994      77.709999999999994
   251   1      12.269999999999996      63.395000000000003       79.75500000000001
   252   1      14.314999999999998      61.349999999999994       79.75500000000001
   253   1      14.314999999999998      63.395000000000003      77.709999999999994
   254   1      14.314999999999998      63.395000000000003      81.799999999999997
   255   1      12.269999999999996      67.484999999999999      51.125000000000007
   256   1      14.314999999999998      65.440000000000012      51.125000000000007
   257   1      14.314999999999998      67.484999999999999      49.079999999999998
   258   1      12.269999999999996      65.440000000000012      53.169999999999995
   259   1      12.269999999999996      67.484999999999999      55.215000000000003
   260   1      14.314999999999998      65.440000000000012      55.215000000000003
   261   1      14.314999999999998      67.484999999999999      53.169999999999995
   262   1      12.269999999999996      65.440000000000012      57.259999999999991
   263   1      12.269999999999996      67.484999999999999                  59.305
   264   1      14.314999999999998      65.440000000000012                  59.305
   265   1      14.314999999999998      67.484999999999999      57.259999999999991
   266   1      12.269999999999996      65.440000000000012      61.349999999999994
   267   1      12.269999999999996      67.484999999999999      63.395000000000003
   268   1      14.314999999999998      65.440000000000012      63.395000000000003
   269   1      14.314999999999998      67.484999999999999      61.349999999999994
   270   1      12.269999999999996      65.440000000000012      65.440000000000012
   271   1      12.269999999999996      67.484999999999999      67.484999999999999
   272   1      14.314999999999998      65.440000000000012      67.484999999999999
   273   1      14.314999999999998      67.484999999999999      65.440000000000012
   274   1      12.269999999999996      65.440000000000012      69.530000000000001
   275   1      12.269999999999996      67.484999999999999      71.575000000000003
   276   1      14.314999999999998      65.440000000000012      71.575000000000003
   277   1      14.314999999999998      67.484999999999999      69.530000000000001
   278   1      12.269999999999996      65.440000000000012      73.620000000000005
   279   1      12.269999999999996      67.484999999999999      75.664999999999992
   280   1      14.314999999999998      65.440000000000012      75.664999999999992
   281   1      14.314999999999998      67.484999999999999      73.620000000000005
   282   1      12.269999999999996      65.440000000000012      77.709999999999994
   283   1      12.269999999999996      67.484999999999999       79.75500000000001
   284   1      14.314999999999998      65.440000000000012       79.75500000000001
   285   1      14.314999999999998      67.484999999999999      77.709999999999994
   286   1      14.314999999999998      67.484999999999999      81.799999999999997
   287   1      14.314999999999998      69.530000000000001      51.125000000000007
   288   1      12.269999999999996      69.530000000000001      53.169999999999995
   289   1      12.269999999999996      71.575000000000003      55.215000000000003
   290   1      14.314999999999998      69.530000000000001      55.215000000000003
   291   1      14.314999999999998      71.575000000000003      53.169999999999995
   292   1      12.269999999999996      69.530000000000001      57.259999999999991
   293   1      12.269999999999996      71.575000000000003                  59.305
   294   1      14.314999999999998      69.530000000000001                  59.305
   295   1      14.314999999999998      71.575000000000003      57.259999999999991
   296   1      12.269999999999996      69.530000000000001      61.349999999999994
   297   1      12.269999999999996      71.575000000000003      63.395000000000003
   298   1      14.314999999999998      69.530000000000001      63.395000000000003
   299   1      14.314999999999998      71.575000000000003      61.349999999999994
   300   1      12.269999999999996      69.530000000000001      65.440000000000012
   301   1      12.269999999999996      71.575000000000003      67.484999999999999
   302   1      14.314999999999998      69.530000000000001      67.484999999999999
   303   1      14.314999999999998      71.575000000000003      65.440000000000012
   304   1      12.269999999999996      69.530000000000001      69.530000000000001
   305   1      12.269999999999996      71.575000000000003      71.575000000000003
   306   1      14.314999999999998      69.530000000000001      71.575000000000003
   307   1      14.314999999999998      71.575000000000003      69.530000000000001
   308   1      12.269999999999996      69.530000000000001      73.620000000000005
   309   1      12.269999999999996      71.575000000000003      75.664999999999992
   310   1      14.314999999999998      69.530000000000001      75.664999999999992
   311   1      14.314999999999998      71.575000000000003      73.620000000000005
   312   1      12.269999999999996      69.530000000000001      77.709999999999994
   313   1      14.314999999999998      69.530000000000001       79.75500000000001
   314   1      14.314999999999998      71.575000000000003      77.709999999999994
   315   1      14.314999999999998      73.620000000000005      55.215000000000003
   316   1      12.269999999999996      73.620000000000005      57.259999999999991
   317   1      12.269999999999996      75.664999999999992                  59.305
   318   1      14.314999999999998      73.620000000000005                  59.305
   319   1      14.314999999999998      75.664999999999992      57.259999999999991
   320   1      12.269999999999996      73.620000000000005      61.349999999999994
   321   1      12.269999999999996      75.664999999999992      63.395000000000003
   322   1      14.314999999999998      73.620000000000005      63.395000000000003
   323   1      14.314999999999998      75.664999999999992      61.349999999999994
   324   1      12.269999999999996      73.620000000000005      65.440000000000012
   325   1      12.269999999999996      75.664999999999992      67.484999999999999
   326   1      14.314999999999998      73.620000000000005      67.484999999999999
   327   1      14.314999999999998      75.664999999999992      65.440000000000012
   328   1      12.269999999999996      73.620000000000005      69.530000000000001
   329   1      12.269999999999996      75.664999999999992      71.575000000000003
   330   1      14.314999999999998      73.620000000000005      71.575000000000003
   331   1      14.314999999999998      75.664999999999992      69.530000000000001
   332   1      12.269999999999996      73.620000000000005      73.620000000000005
   333   1      14.314999999999998      73.620000000000005      75.664999999999992
   334   1      14.314999999999998      75.664999999999992      73.620000000000005
   335   1      14.314999999999998      77.709999999999994                  59.305
   336   1      12.269999999999996      77.709999999999994      61.349999999999994
   337   1      12.269999999999996       79.75500000000001      63.395000000000003
   338   1      14.314999999999998      77.709999999999994      63.395000000000003
   339   1      14.314999999999998       79.75500000000001      61.349999999999994
   340   1      12.269999999999996      77.709999999999994      65.440000000000012
   341   1      12.269999999999996       79.75500000000001      67.484999999999999
   342   1      14.314999999999998      77.709999999999994      67.484999999999999
   343   1      14.314999999999998       79.75500000000001      65.440000000000012
   344   1      12.269999999999996      77.709999999999994      69.530000000000001
   345   1      14.314999999999998      77.709999999999994      71.575000000000003
   346   1      14.314999999999998       79.75500000000001      69.530000000000001
   347   1      14.314999999999998      81.799999999999997      63.395000000000003
   348   1      14.314999999999998      81.799999999999997      67.484999999999999
   349   1      16.360000000000003      47.034999999999997      63.395000000000003
   350   1      18.404999999999994      44.989999999999995      63.395000000000003
   351   1      18.404999999999994      47.034999999999997      61.349999999999994
   352   1      16.360000000000003      47.034999999999997      67.484999999999999
   353   1      18.404999999999994      44.989999999999995      67.484999999999999
   354   1      18.404999999999994      47.034999999999997      65.440000000000012
   355   1      18.404999999999994      47.034999999999997      69.530000000000001
   356   1      18.404999999999994      51.125000000000007      53.169999999999995
   357   1      16.360000000000003      51.125000000000007                  59.305
   358   1      18.404999999999994      49.079999999999998                  59.305