model_files/Cu/Cu_30000/Cu_321/data.Cu_321_fcc_29817 (written by ASE) 

29817 	 atoms 
1  atom types
0.0                     103  xlo xhi
0.0                     103  ylo yhi
0.0                     103  zlo zhi


Atoms 

     1   1      1.8049999999999995                  45.125      50.539999999999999
     2   1                       0      48.734999999999992      48.734999999999992
     3   1      1.8049999999999995      46.929999999999993      48.734999999999992
     4   1      1.8049999999999995      48.734999999999992      46.929999999999993
     5   1                       0      48.734999999999992      52.344999999999992
     6   1      1.8049999999999995      46.929999999999993      52.344999999999992
     7   1      1.8049999999999995      48.734999999999992      50.539999999999999
     8   1      1.8049999999999995      48.734999999999992      54.149999999999991
     9   1      1.8049999999999995      50.539999999999999                  45.125
    10   1                       0      52.344999999999992      48.734999999999992
    11   1      1.8049999999999995      50.539999999999999      48.734999999999992
    12   1      1.8049999999999995      52.344999999999992      46.929999999999993
    13   1                       0      50.539999999999999      50.539999999999999
    14   1                       0      52.344999999999992      52.344999999999992
    15   1      1.8049999999999995      50.539999999999999      52.344999999999992
    16   1      1.8049999999999995      52.344999999999992      50.539999999999999
    17   1      1.8049999999999995      50.539999999999999      55.954999999999998
    18   1      1.8049999999999995      52.344999999999992      54.149999999999991
    19   1      1.8049999999999995      54.149999999999991      48.734999999999992
    20   1      1.8049999999999995      54.149999999999991      52.344999999999992
    21   1      1.8049999999999995      55.954999999999998      50.539999999999999
    22   1      5.4149999999999991      41.515000000000001      46.929999999999993
    23   1      5.4149999999999991      41.515000000000001      50.539999999999999
    24   1      5.4149999999999991      41.515000000000001      54.149999999999991
    25   1       3.609999999999999                  45.125                  45.125
    26   1      5.4149999999999991      43.319999999999993                  45.125
    27   1      5.4149999999999991                  45.125      43.319999999999993
    28   1       3.609999999999999                  45.125      48.734999999999992
    29   1      5.4149999999999991      43.319999999999993      48.734999999999992
    30   1      5.4149999999999991                  45.125      46.929999999999993
    31   1       3.609999999999999      43.319999999999993      50.539999999999999
    32   1       3.609999999999999                  45.125      52.344999999999992
    33   1      5.4149999999999991      43.319999999999993      52.344999999999992
    34   1      5.4149999999999991                  45.125      50.539999999999999
    35   1       3.609999999999999                  45.125      55.954999999999998
    36   1      5.4149999999999991      43.319999999999993      55.954999999999998
    37   1      5.4149999999999991                  45.125      54.149999999999991
    38   1      5.4149999999999991                  45.125      57.759999999999998
    39   1      5.4149999999999991      46.929999999999993      41.515000000000001
    40   1       3.609999999999999      48.734999999999992                  45.125
    41   1      5.4149999999999991      46.929999999999993                  45.125
    42   1      5.4149999999999991      48.734999999999992      43.319999999999993
    43   1       3.609999999999999      46.929999999999993      46.929999999999993
    44   1       3.609999999999999      48.734999999999992      48.734999999999992
    45   1      5.4149999999999991      46.929999999999993      48.734999999999992
    46   1      5.4149999999999991      48.734999999999992      46.929999999999993
    47   1       3.609999999999999      46.929999999999993      50.539999999999999
    48   1       3.609999999999999      48.734999999999992      52.344999999999992
    49   1      5.4149999999999991      46.929999999999993      52.344999999999992
    50   1      5.4149999999999991      48.734999999999992      50.539999999999999
    51   1       3.609999999999999      46.929999999999993      54.149999999999991
    52   1       3.609999999999999      48.734999999999992      55.954999999999998
    53   1      5.4149999999999991      46.929999999999993      55.954999999999998
    54   1      5.4149999999999991      48.734999999999992      54.149999999999991
    55   1      5.4149999999999991      46.929999999999993      59.564999999999991
    56   1      5.4149999999999991      48.734999999999992      57.759999999999998
    57   1      5.4149999999999991      50.539999999999999      41.515000000000001
    58   1       3.609999999999999      50.539999999999999      43.319999999999993
    59   1       3.609999999999999      52.344999999999992                  45.125
    60   1      5.4149999999999991      50.539999999999999                  45.125
    61   1      5.4149999999999991      52.344999999999992      43.319999999999993
    62   1       3.609999999999999      50.539999999999999      46.929999999999993
    63   1       3.609999999999999      52.344999999999992      48.734999999999992
    64   1      5.4149999999999991      50.539999999999999      48.734999999999992
    65   1      5.4149999999999991      52.344999999999992      46.929999999999993
    66   1       3.609999999999999      50.539999999999999      50.539999999999999
    67   1       3.609999999999999      52.344999999999992      52.344999999999992
    68   1      5.4149999999999991      50.539999999999999      52.344999999999992
    69   1      5.4149999999999991      52.344999999999992      50.539999999999999
    70   1       3.609999999999999      50.539999999999999      54.149999999999991
    71   1       3.609999999999999      52.344999999999992      55.954999999999998
    72   1      5.4149999999999991      50.539999999999999      55.954999999999998
    73   1      5.4149999999999991      52.344999999999992      54.149999999999991
    74   1       3.609999999999999      50.539999999999999      57.759999999999998
    75   1      5.4149999999999991      50.539999999999999      59.564999999999991
    76   1      5.4149999999999991      52.344999999999992      57.759999999999998
    77   1      5.4149999999999991      54.149999999999991      41.515000000000001
    78   1       3.609999999999999      55.954999999999998                  45.125
    79   1      5.4149999999999991      54.149999999999991                  45.125
    80   1      5.4149999999999991      55.954999999999998      43.319999999999993
    81   1       3.609999999999999      54.149999999999991      46.929999999999993
    82   1       3.609999999999999      55.954999999999998      48.734999999999992
    83   1      5.4149999999999991      54.149999999999991      48.734999999999992
    84   1      5.4149999999999991      55.954999999999998      46.929999999999993
    85   1       3.609999999999999      54.149999999999991      50.539999999999999
    86   1       3.609999999999999      55.954999999999998      52.344999999999992
    87   1      5.4149999999999991      54.149999999999991      52.344999999999992
    88   1      5.4149999999999991      55.954999999999998      50.539999999999999
    89   1       3.609999999999999      54.149999999999991      54.149999999999991
    90   1       3.609999999999999      55.954999999999998      55.954999999999998
    91   1      5.4149999999999991      54.149999999999991      55.954999999999998
    92   1      5.4149999999999991      55.954999999999998      54.149999999999991
    93   1      5.4149999999999991      54.149999999999991      59.564999999999991
    94   1      5.4149999999999991      55.954999999999998      57.759999999999998
    95   1      5.4149999999999991      57.759999999999998                  45.125
    96   1      5.4149999999999991      57.759999999999998      48.734999999999992
    97   1      5.4149999999999991      59.564999999999991      46.929999999999993
    98   1       3.609999999999999      57.759999999999998      50.539999999999999
    99   1      5.4149999999999991      57.759999999999998      52.344999999999992
   100   1      5.4149999999999991      59.564999999999991      50.539999999999999
   101   1      5.4149999999999991      57.759999999999998      55.954999999999998
   102   1      5.4149999999999991      59.564999999999991      54.149999999999991
   103   1      9.0249999999999968      34.295000000000002      50.539999999999999
   104   1      9.0249999999999968      37.904999999999994      43.319999999999993
   105   1       7.219999999999998      37.904999999999994      48.734999999999992
   106   1      9.0249999999999968      36.100000000000001      48.734999999999992
   107   1      9.0249999999999968      37.904999999999994      46.929999999999993
   108   1       7.219999999999998      37.904999999999994      52.344999999999992
   109   1      9.0249999999999968      36.100000000000001      52.344999999999992
   110   1      9.0249999999999968      37.904999999999994      50.539999999999999
   111   1      9.0249999999999968      37.904999999999994      54.149999999999991
   112   1      9.0249999999999968      37.904999999999994      57.759999999999998
   113   1       7.219999999999998      41.515000000000001      41.515000000000001
   114   1      9.0249999999999968      39.710000000000001      41.515000000000001
   115   1      9.0249999999999968      41.515000000000001      39.710000000000001
   116   1       7.219999999999998      41.515000000000001                  45.125
   117   1      9.0249999999999968      39.710000000000001                  45.125
   118   1      9.0249999999999968      41.515000000000001      43.319999999999993
   119   1       7.219999999999998      39.710000000000001      46.929999999999993
   120   1       7.219999999999998      41.515000000000001      48.734999999999992
   121   1      9.0249999999999968      39.710000000000001      48.734999999999992
   122   1      9.0249999999999968      41.515000000000001      46.929999999999993
   123   1       7.219999999999998      39.710000000000001      50.539999999999999
   124   1       7.219999999999998      41.515000000000001      52.344999999999992
   125   1      9.0249999999999968      39.710000000000001      52.344999999999992
   126   1      9.0249999999999968      41.515000000000001      50.539999999999999
   127   1       7.219999999999998      39.710000000000001      54.149999999999991
   128   1       7.219999999999998      41.515000000000001      55.954999999999998
   129   1      9.0249999999999968      39.710000000000001      55.954999999999998
   130   1      9.0249999999999968      41.515000000000001      54.149999999999991
   131   1       7.219999999999998      41.515000000000001      59.564999999999991
   132   1      9.0249999999999968      39.710000000000001      59.564999999999991
   133   1      9.0249999999999968      41.515000000000001      57.759999999999998
   134   1      9.0249999999999968      41.515000000000001      61.370000000000005
   135   1      9.0249999999999968      43.319999999999993      37.904999999999994
   136   1       7.219999999999998                  45.125      41.515000000000001
   137   1      9.0249999999999968      43.319999999999993      41.515000000000001
   138   1      9.0249999999999968                  45.125      39.710000000000001
   139   1       7.219999999999998      43.319999999999993      43.319999999999993
   140   1       7.219999999999998                  45.125                  45.125
   141   1      9.0249999999999968      43.319999999999993                  45.125
   142   1      9.0249999999999968                  45.125      43.319999999999993
   143   1       7.219999999999998      43.319999999999993      46.929999999999993
   144   1       7.219999999999998                  45.125      48.734999999999992
   145   1      9.0249999999999968      43.319999999999993      48.734999999999992
   146   1      9.0249999999999968                  45.125      46.929999999999993
   147   1       7.219999999999998      43.319999999999993      50.539999999999999
   148   1       7.219999999999998                  45.125      52.344999999999992
   149   1      9.0249999999999968      43.319999999999993      52.344999999999992
   150   1      9.0249999999999968                  45.125      50.539999999999999
   151   1       7.219999999999998      43.319999999999993      54.149999999999991
   152   1       7.219999999999998                  45.125      55.954999999999998
   153   1      9.0249999999999968      43.319999999999993      55.954999999999998
   154   1      9.0249999999999968                  45.125      54.149999999999991
   155   1       7.219999999999998      43.319999999999993      57.759999999999998
   156   1       7.219999999999998                  45.125      59.564999999999991
   157   1      9.0249999999999968      43.319999999999993      59.564999999999991
   158   1      9.0249999999999968                  45.125      57.759999999999998
   159   1      9.0249999999999968      43.319999999999993      63.175000000000004
   160   1      9.0249999999999968                  45.125      61.370000000000005
   161   1       7.219999999999998      48.734999999999992      37.904999999999994
   162   1      9.0249999999999968      46.929999999999993      37.904999999999994
   163   1      9.0249999999999968      48.734999999999992      36.100000000000001
   164   1       7.219999999999998      46.929999999999993      39.710000000000001
   165   1       7.219999999999998      48.734999999999992      41.515000000000001
   166   1      9.0249999999999968      46.929999999999993      41.515000000000001
   167   1      9.0249999999999968      48.734999999999992      39.710000000000001
   168   1       7.219999999999998      46.929999999999993      43.319999999999993
   169   1       7.219999999999998      48.734999999999992                  45.125
   170   1      9.0249999999999968      46.929999999999993                  45.125
   171   1      9.0249999999999968      48.734999999999992      43.319999999999993
   172   1       7.219999999999998      46.929999999999993      46.929999999999993
   173   1       7.219999999999998      48.734999999999992      48.734999999999992
   174   1      9.0249999999999968      46.929999999999993      48.734999999999992
   175   1      9.0249999999999968      48.734999999999992      46.929999999999993
   176   1       7.219999999999998      46.929999999999993      50.539999999999999
   177   1       7.219999999999998      48.734999999999992      52.344999999999992
   178   1      9.0249999999999968      46.929999999999993      52.344999999999992
   179   1      9.0249999999999968      48.734999999999992      50.539999999999999
   180   1       7.219999999999998      46.929999999999993      54.149999999999991
   181   1       7.219999999999998      48.734999999999992      55.954999999999998
   182   1      9.0249999999999968      46.929999999999993      55.954999999999998
   183   1      9.0249999999999968      48.734999999999992      54.149999999999991
   184   1       7.219999999999998      46.929999999999993      57.759999999999998
   185   1       7.219999999999998      48.734999999999992      59.564999999999991
   186   1      9.0249999999999968      46.929999999999993      59.564999999999991
   187   1      9.0249999999999968      48.734999999999992      57.759999999999998
   188   1       7.219999999999998      46.929999999999993      61.370000000000005
   189   1       7.219999999999998      48.734999999999992      63.175000000000004
   190   1      9.0249999999999968      46.929999999999993      63.175000000000004
   191   1      9.0249999999999968      48.734999999999992      61.370000000000005
   192   1      9.0249999999999968      48.734999999999992       64.97999999999999
   193   1      9.0249999999999968      50.539999999999999      34.295000000000002
   194   1       7.219999999999998      52.344999999999992      37.904999999999994
   195   1      9.0249999999999968      50.539999999999999      37.904999999999994
   196   1      9.0249999999999968      52.344999999999992      36.100000000000001
   197   1       7.219999999999998      50.539999999999999      39.710000000000001
   198   1       7.219999999999998      52.344999999999992      41.515000000000001
   199   1      9.0249999999999968      50.539999999999999      41.515000000000001
   200   1      9.0249999999999968      52.344999999999992      39.710000000000001
   201   1       7.219999999999998      50.539999999999999      43.319999999999993
   202   1       7.219999999999998      52.344999999999992                  45.125
   203   1      9.0249999999999968      50.539999999999999                  45.125
   204   1      9.0249999999999968      52.344999999999992      43.319999999999993
   205   1       7.219999999999998      50.539999999999999      46.929999999999993
   206   1       7.219999999999998      52.344999999999992      48.734999999999992
   207   1      9.0249999999999968      50.539999999999999      48.734999999999992
   208   1      9.0249999999999968      52.344999999999992      46.929999999999993
   209   1       7.219999999999998      50.539999999999999      50.539999999999999
   210   1       7.219999999999998      52.344999999999992      52.344999999999992
   211   1      9.0249999999999968      50.539999999999999      52.344999999999992
   212   1      9.0249999999999968      52.344999999999992      50.539999999999999
   213   1       7.219999999999998      50.539999999999999      54.149999999999991
   214   1       7.219999999999998      52.344999999999992      55.954999999999998
   215   1      9.0249999999999968      50.539999999999999      55.954999999999998
   216   1      9.0249999999999968      52.344999999999992      54.149999999999991
   217   1       7.219999999999998      50.539999999999999      57.759999999999998
   218   1       7.219999999999998      52.344999999999992      59.564999999999991
   219   1      9.0249999999999968      50.539999999999999      59.564999999999991
   220   1      9.0249999999999968      52.344999999999992      57.759999999999998
   221   1       7.219999999999998      50.539999999999999      61.370000000000005
   222   1       7.219999999999998      52.344999999999992      63.175000000000004
   223   1      9.0249999999999968      50.539999999999999      63.175000000000004
   224   1      9.0249999999999968      52.344999999999992      61.370000000000005
   225   1      9.0249999999999968      50.539999999999999      66.785000000000011
   226   1      9.0249999999999968      52.344999999999992       64.97999999999999
   227   1      9.0249999999999968      54.149999999999991      37.904999999999994
   228   1       7.219999999999998      54.149999999999991      39.710000000000001
   229   1       7.219999999999998      55.954999999999998      41.515000000000001
   230   1      9.0249999999999968      54.149999999999991      41.515000000000001
   231   1      9.0249999999999968      55.954999999999998      39.710000000000001
   232   1       7.219999999999998      54.149999999999991      43.319999999999993
   233   1       7.219999999999998      55.954999999999998                  45.125
   234   1      9.0249999999999968      54.149999999999991                  45.125
   235   1      9.0249999999999968      55.954999999999998      43.319999999999993
   236   1       7.219999999999998      54.149999999999991      46.929999999999993
   237   1       7.219999999999998      55.954999999999998      48.734999999999992
   238   1      9.0249999999999968      54.149999999999991      48.734999999999992
   239   1      9.0249999999999968      55.954999999999998      46.929999999999993
   240   1       7.219999999999998      54.149999999999991      50.539999999999999
   241   1       7.219999999999998      55.954999999999998      52.344999999999992
   242   1      9.0249999999999968      54.149999999999991      52.344999999999992
   243   1      9.0249999999999968      55.954999999999998      50.539999999999999
   244   1       7.219999999999998      54.149999999999991      54.149999999999991
   245   1       7.219999999999998      55.954999999999998      55.954999999999998
   246   1      9.0249999999999968      54.149999999999991      55.954999999999998
   247   1      9.0249999999999968      55.954999999999998      54.149999999999991
   248   1       7.219999999999998      54.149999999999991      57.759999999999998
   249   1       7.219999999999998      55.954999999999998      59.564999999999991
   250   1      9.0249999999999968      54.149999999999991      59.564999999999991
   251   1      9.0249999999999968      55.954999999999998      57.759999999999998
   252   1       7.219999999999998      54.149999999999991      61.370000000000005
   253   1      9.0249999999999968      54.149999999999991      63.175000000000004
   254   1      9.0249999999999968      55.954999999999998      61.370000000000005
   255   1      9.0249999999999968      57.759999999999998      37.904999999999994
   256   1       7.219999999999998      59.564999999999991      41.515000000000001
   257   1      9.0249999999999968      57.759999999999998      41.515000000000001
   258   1      9.0249999999999968      59.564999999999991      39.710000000000001
   259   1       7.219999999999998      57.759999999999998      43.319999999999993
   260   1       7.219999999999998      59.564999999999991                  45.125
   261   1      9.0249999999999968      57.759999999999998                  45.125
   262   1      9.0249999999999968      59.564999999999991      43.319999999999993
   263   1       7.219999999999998      57.759999999999998      46.929999999999993
   264   1       7.219999999999998      59.564999999999991      48.734999999999992
   265   1      9.0249999999999968      57.759999999999998      48.734999999999992
   266   1      9.0249999999999968      59.564999999999991      46.929999999999993
   267   1       7.219999999999998      57.759999999999998      50.539999999999999
   268   1       7.219999999999998      59.564999999999991      52.344999999999992
   269   1      9.0249999999999968      57.759999999999998      52.344999999999992
   270   1      9.0249999999999968      59.564999999999991      50.539999999999999
   271   1       7.219999999999998      57.759999999999998      54.149999999999991
   272   1       7.219999999999998      59.564999999999991      55.954999999999998
   273   1      9.0249999999999968      57.759999999999998      55.954999999999998
   274   1      9.0249999999999968      59.564999999999991      54.149999999999991
   275   1       7.219999999999998      57.759999999999998      57.759999999999998
   276   1       7.219999999999998      59.564999999999991      59.564999999999991
   277   1      9.0249999999999968      57.759999999999998      59.564999999999991
   278   1      9.0249999999999968      59.564999999999991      57.759999999999998
   279   1      9.0249999999999968      57.759999999999998      63.175000000000004
   280   1      9.0249999999999968      59.564999999999991      61.370000000000005
   281   1      9.0249999999999968      61.370000000000005      41.515000000000001
   282   1      9.0249999999999968      61.370000000000005                  45.125
   283   1      9.0249999999999968      63.175000000000004      43.319999999999993
   284   1       7.219999999999998      61.370000000000005      46.929999999999993
   285   1       7.219999999999998      63.175000000000004      48.734999999999992
   286   1      9.0249999999999968      61.370000000000005      48.734999999999992
   287   1      9.0249999999999968      63.175000000000004      46.929999999999993
   288   1       7.219999999999998      61.370000000000005      50.539999999999999
   289   1       7.219999999999998      63.175000000000004      52.344999999999992
   290   1      9.0249999999999968      61.370000000000005      52.344999999999992
   291   1      9.0249999999999968      63.175000000000004      50.539999999999999
   292   1       7.219999999999998      61.370000000000005      54.149999999999991
   293   1      9.0249999999999968      61.370000000000005      55.954999999999998
   294   1      9.0249999999999968      63.175000000000004      54.149999999999991
   295   1      9.0249999999999968      61.370000000000005      59.564999999999991
   296   1      9.0249999999999968      63.175000000000004      57.759999999999998
   297   1      9.0249999999999968       64.97999999999999      48.734999999999992
   298   1      9.0249999999999968       64.97999999999999      52.344999999999992
   299   1      9.0249999999999968      66.785000000000011      50.539999999999999
   300   1      12.634999999999996      30.685000000000002      46.929999999999993
   301   1      12.634999999999996      30.685000000000002      50.539999999999999
   302   1      12.634999999999996      30.685000000000002      54.149999999999991
   303   1      12.634999999999996      34.295000000000002      39.710000000000001
   304   1      10.829999999999998      34.295000000000002                  45.125
   305   1      12.634999999999996      32.489999999999995                  45.125
   306   1      12.634999999999996      34.295000000000002      43.319999999999993
   307   1      10.829999999999998      34.295000000000002      48.734999999999992
   308   1      12.634999999999996      32.489999999999995      48.734999999999992
   309   1      12.634999999999996      34.295000000000002      46.929999999999993
   310   1      10.829999999999998      32.489999999999995      50.539999999999999
   311   1      10.829999999999998      34.295000000000002      52.344999999999992
   312   1      12.634999999999996      32.489999999999995      52.344999999999992
   313   1      12.634999999999996      34.295000000000002      50.539999999999999
   314   1      10.829999999999998      34.295000000000002      55.954999999999998
   315   1      12.634999999999996      32.489999999999995      55.954999999999998
   316   1      12.634999999999996      34.295000000000002      54.149999999999991
   317   1      12.634999999999996      34.295000000000002      57.759999999999998
   318   1      12.634999999999996      34.295000000000002      61.370000000000005
   319   1      10.829999999999998      37.904999999999994      37.904999999999994
   320   1      12.634999999999996      36.100000000000001      37.904999999999994
   321   1      12.634999999999996      37.904999999999994      36.100000000000001
   322   1      10.829999999999998      37.904999999999994      41.515000000000001
   323   1      12.634999999999996      36.100000000000001      41.515000000000001
   324   1      12.634999999999996      37.904999999999994      39.710000000000001
   325   1      10.829999999999998      36.100000000000001      43.319999999999993
   326   1      10.829999999999998      37.904999999999994                  45.125
   327   1      12.634999999999996      36.100000000000001                  45.125
   328   1      12.634999999999996      37.904999999999994      43.319999999999993
   329   1      10.829999999999998      36.100000000000001      46.929999999999993
   330   1      10.829999999999998      37.904999999999994      48.734999999999992
   331   1      12.634999999999996      36.100000000000001      48.734999999999992
   332   1      12.634999999999996      37.904999999999994      46.929999999999993
   333   1      10.829999999999998      36.100000000000001      50.539999999999999
   334   1      10.829999999999998      37.904999999999994      52.344999999999992
   335   1      12.634999999999996      36.100000000000001      52.344999999999992
   336   1      12.634999999999996      37.904999999999994      50.539999999999999
   337   1      10.829999999999998      36.100000000000001      54.149999999999991
   338   1      10.829999999999998      37.904999999999994      55.954999999999998
   339   1      12.634999999999996      36.100000000000001      55.954999999999998
   340   1      12.634999999999996      37.904999999999994      54.149999999999991
   341   1      10.829999999999998      36.100000000000001      57.759999999999998
   342   1      10.829999999999998      37.904999999999994      59.564999999999991
   343   1      12.634999999999996      36.100000000000001      59.564999999999991
   344   1      12.634999999999996      37.904999999999994      57.759999999999998
   345   1      10.829999999999998      37.904999999999994      63.175000000000004
   346   1      12.634999999999996      36.100000000000001      63.175000000000004
   347   1      12.634999999999996      37.904999999999994      61.370000000000005
   348   1      12.634999999999996      37.904999999999994       64.97999999999999
   349   1      12.634999999999996      39.710000000000001      34.295000000000002
   350   1      10.829999999999998      41.515000000000001      37.904999999999994
   351   1      12.634999999999996      39.710000000000001      37.904999999999994
   352   1      12.634999999999996      41.515000000000001      36.100000000000001
   353   1      10.829999999999998      39.710000000000001      39.710000000000001
   354   1      10.829999999999998      41.515000000000001      41.515000000000001
   355   1      12.634999999999996      39.710000000000001      41.515000000000001
   356   1      12.634999999999996      41.515000000000001      39.710000000000001
   357   1      10.829999999999998      39.710000000000001      43.319999999999993
   358   1      10.829999999999998      41.515000000000001                  45.125