model_files/Co/Co_30000/Co_530/data.Co_530_hcp_29831 (written by ASE) 

29831 	 atoms 
1  atom types
0.0                      67  xlo xhi
0.0                      67  ylo yhi
0.0                      67  zlo zhi


Atoms 

     1   1      66.999999999999986      31.374999999999993      31.374999999999993
     2   1      1.2549999999999952       30.11999999999999      31.374999999999993
     3   1      1.2549999999999952      31.374999999999993       30.11999999999999
     4   1      66.999999999999986      31.374999999999993      33.884999999999998
     5   1      1.2549999999999952       30.11999999999999      33.884999999999998
     6   1      1.2549999999999952      31.374999999999993      32.629999999999995
     7   1      1.2549999999999952      31.374999999999993      35.139999999999993
     8   1      66.999999999999986      33.884999999999998      31.374999999999993
     9   1      1.2549999999999952      32.629999999999995      31.374999999999993
    10   1      1.2549999999999952      33.884999999999998       30.11999999999999
    11   1      66.999999999999986      32.629999999999995      32.629999999999995
    12   1      66.999999999999986      33.884999999999998      33.884999999999998
    13   1      1.2549999999999952      32.629999999999995      33.884999999999998
    14   1      1.2549999999999952      33.884999999999998      32.629999999999995
    15   1      1.2549999999999952      33.884999999999998      35.139999999999993
    16   1      1.2549999999999952      35.139999999999993      31.374999999999993
    17   1      1.2549999999999952      35.139999999999993      33.884999999999998
    18   1       3.764999999999993      25.099999999999994      26.354999999999993
    19   1       3.764999999999993      26.354999999999993      25.099999999999994
    20   1       3.764999999999993      25.099999999999994      28.864999999999991
    21   1       3.764999999999993      26.354999999999993      27.609999999999992
    22   1       3.764999999999993      25.099999999999994      31.374999999999993
    23   1       3.764999999999993      26.354999999999993       30.11999999999999
    24   1       3.764999999999993      25.099999999999994      33.884999999999998
    25   1       3.764999999999993      26.354999999999993      32.629999999999995
    26   1       3.764999999999993      25.099999999999994      36.394999999999996
    27   1       3.764999999999993      26.354999999999993      35.139999999999993
    28   1       3.764999999999993      25.099999999999994      38.904999999999994
    29   1       3.764999999999993      26.354999999999993      37.649999999999991
    30   1       3.764999999999993      26.354999999999993      40.159999999999989
    31   1       3.764999999999993      27.609999999999992      26.354999999999993
    32   1       3.764999999999993      28.864999999999991      25.099999999999994
    33   1      2.5099999999999945      27.609999999999992      27.609999999999992
    34   1      2.5099999999999945      28.864999999999991      28.864999999999991
    35   1       3.764999999999993      27.609999999999992      28.864999999999991
    36   1       3.764999999999993      28.864999999999991      27.609999999999992
    37   1      2.5099999999999945      27.609999999999992       30.11999999999999
    38   1      2.5099999999999945      28.864999999999991      31.374999999999993
    39   1       3.764999999999993      27.609999999999992      31.374999999999993
    40   1       3.764999999999993      28.864999999999991       30.11999999999999
    41   1      2.5099999999999945      27.609999999999992      32.629999999999995
    42   1      2.5099999999999945      28.864999999999991      33.884999999999998
    43   1       3.764999999999993      27.609999999999992      33.884999999999998
    44   1       3.764999999999993      28.864999999999991      32.629999999999995
    45   1      2.5099999999999945      27.609999999999992      35.139999999999993
    46   1      2.5099999999999945      28.864999999999991      36.394999999999996
    47   1       3.764999999999993      27.609999999999992      36.394999999999996
    48   1       3.764999999999993      28.864999999999991      35.139999999999993
    49   1      2.5099999999999945      27.609999999999992      37.649999999999991
    50   1       3.764999999999993      27.609999999999992      38.904999999999994
    51   1       3.764999999999993      28.864999999999991      37.649999999999991
    52   1       3.764999999999993      28.864999999999991      40.159999999999989
    53   1       3.764999999999993       30.11999999999999      26.354999999999993
    54   1       3.764999999999993      31.374999999999993      25.099999999999994
    55   1      2.5099999999999945       30.11999999999999      27.609999999999992
    56   1      2.5099999999999945      31.374999999999993      28.864999999999991
    57   1       3.764999999999993       30.11999999999999      28.864999999999991
    58   1       3.764999999999993      31.374999999999993      27.609999999999992
    59   1      2.5099999999999945       30.11999999999999       30.11999999999999
    60   1      2.5099999999999945      31.374999999999993      31.374999999999993
    61   1       3.764999999999993       30.11999999999999      31.374999999999993
    62   1       3.764999999999993      31.374999999999993       30.11999999999999
    63   1      2.5099999999999945       30.11999999999999      32.629999999999995
    64   1      2.5099999999999945      31.374999999999993      33.884999999999998
    65   1       3.764999999999993       30.11999999999999      33.884999999999998
    66   1       3.764999999999993      31.374999999999993      32.629999999999995
    67   1      2.5099999999999945       30.11999999999999      35.139999999999993
    68   1      2.5099999999999945      31.374999999999993      36.394999999999996
    69   1       3.764999999999993       30.11999999999999      36.394999999999996
    70   1       3.764999999999993      31.374999999999993      35.139999999999993
    71   1      2.5099999999999945       30.11999999999999      37.649999999999991
    72   1       3.764999999999993       30.11999999999999      38.904999999999994
    73   1       3.764999999999993      31.374999999999993      37.649999999999991
    74   1       3.764999999999993      31.374999999999993      40.159999999999989
    75   1       3.764999999999993      32.629999999999995      26.354999999999993
    76   1       3.764999999999993      33.884999999999998      25.099999999999994
    77   1      2.5099999999999945      32.629999999999995      27.609999999999992
    78   1      2.5099999999999945      33.884999999999998      28.864999999999991
    79   1       3.764999999999993      32.629999999999995      28.864999999999991
    80   1       3.764999999999993      33.884999999999998      27.609999999999992
    81   1      2.5099999999999945      32.629999999999995       30.11999999999999
    82   1      2.5099999999999945      33.884999999999998      31.374999999999993
    83   1       3.764999999999993      32.629999999999995      31.374999999999993
    84   1       3.764999999999993      33.884999999999998       30.11999999999999
    85   1      2.5099999999999945      32.629999999999995      32.629999999999995
    86   1      2.5099999999999945      33.884999999999998      33.884999999999998
    87   1       3.764999999999993      32.629999999999995      33.884999999999998
    88   1       3.764999999999993      33.884999999999998      32.629999999999995
    89   1      2.5099999999999945      32.629999999999995      35.139999999999993
    90   1      2.5099999999999945      33.884999999999998      36.394999999999996
    91   1       3.764999999999993      32.629999999999995      36.394999999999996
    92   1       3.764999999999993      33.884999999999998      35.139999999999993
    93   1      2.5099999999999945      32.629999999999995      37.649999999999991
    94   1       3.764999999999993      32.629999999999995      38.904999999999994
    95   1       3.764999999999993      33.884999999999998      37.649999999999991
    96   1       3.764999999999993      33.884999999999998      40.159999999999989
    97   1       3.764999999999993      35.139999999999993      26.354999999999993
    98   1       3.764999999999993      36.394999999999996      25.099999999999994
    99   1      2.5099999999999945      35.139999999999993      27.609999999999992
   100   1      2.5099999999999945      36.394999999999996      28.864999999999991
   101   1       3.764999999999993      35.139999999999993      28.864999999999991
   102   1       3.764999999999993      36.394999999999996      27.609999999999992
   103   1      2.5099999999999945      35.139999999999993       30.11999999999999
   104   1      2.5099999999999945      36.394999999999996      31.374999999999993
   105   1       3.764999999999993      35.139999999999993      31.374999999999993
   106   1       3.764999999999993      36.394999999999996       30.11999999999999
   107   1      2.5099999999999945      35.139999999999993      32.629999999999995
   108   1      2.5099999999999945      36.394999999999996      33.884999999999998
   109   1       3.764999999999993      35.139999999999993      33.884999999999998
   110   1       3.764999999999993      36.394999999999996      32.629999999999995
   111   1      2.5099999999999945      35.139999999999993      35.139999999999993
   112   1      2.5099999999999945      36.394999999999996      36.394999999999996
   113   1       3.764999999999993      35.139999999999993      36.394999999999996
   114   1       3.764999999999993      36.394999999999996      35.139999999999993
   115   1      2.5099999999999945      35.139999999999993      37.649999999999991
   116   1       3.764999999999993      35.139999999999993      38.904999999999994
   117   1       3.764999999999993      36.394999999999996      37.649999999999991
   118   1       3.764999999999993      36.394999999999996      40.159999999999989
   119   1       3.764999999999993      37.649999999999991      26.354999999999993
   120   1       3.764999999999993      38.904999999999994      25.099999999999994
   121   1      2.5099999999999945      37.649999999999991      27.609999999999992
   122   1       3.764999999999993      37.649999999999991      28.864999999999991
   123   1       3.764999999999993      38.904999999999994      27.609999999999992
   124   1      2.5099999999999945      37.649999999999991       30.11999999999999
   125   1       3.764999999999993      37.649999999999991      31.374999999999993
   126   1       3.764999999999993      38.904999999999994       30.11999999999999
   127   1      2.5099999999999945      37.649999999999991      32.629999999999995
   128   1       3.764999999999993      37.649999999999991      33.884999999999998
   129   1       3.764999999999993      38.904999999999994      32.629999999999995
   130   1      2.5099999999999945      37.649999999999991      35.139999999999993
   131   1       3.764999999999993      37.649999999999991      36.394999999999996
   132   1       3.764999999999993      38.904999999999994      35.139999999999993
   133   1      2.5099999999999945      37.649999999999991      37.649999999999991
   134   1       3.764999999999993      37.649999999999991      38.904999999999994
   135   1       3.764999999999993      38.904999999999994      37.649999999999991
   136   1       3.764999999999993      38.904999999999994      40.159999999999989
   137   1       3.764999999999993      40.159999999999989      26.354999999999993
   138   1       3.764999999999993      40.159999999999989      28.864999999999991
   139   1       3.764999999999993      40.159999999999989      31.374999999999993
   140   1       3.764999999999993      40.159999999999989      33.884999999999998
   141   1       3.764999999999993      40.159999999999989      36.394999999999996
   142   1       3.764999999999993      40.159999999999989      38.904999999999994
   143   1       6.274999999999995       21.33499999999999      22.589999999999993
   144   1       6.274999999999995       21.33499999999999      25.099999999999994
   145   1       6.274999999999995       21.33499999999999      27.609999999999992
   146   1       6.274999999999995       21.33499999999999       30.11999999999999
   147   1       6.274999999999995       21.33499999999999      32.629999999999995
   148   1       6.274999999999995       21.33499999999999      35.139999999999993
   149   1       6.274999999999995       21.33499999999999      37.649999999999991
   150   1       6.274999999999995       21.33499999999999      40.159999999999989
   151   1       6.274999999999995       21.33499999999999      42.669999999999987
   152   1       6.274999999999995      22.589999999999993       21.33499999999999
   153   1       5.019999999999996      23.844999999999988      23.844999999999988
   154   1       6.274999999999995      22.589999999999993      23.844999999999988
   155   1       6.274999999999995      23.844999999999988      22.589999999999993
   156   1       5.019999999999996      23.844999999999988      26.354999999999993
   157   1       6.274999999999995      22.589999999999993      26.354999999999993
   158   1       6.274999999999995      23.844999999999988      25.099999999999994
   159   1       5.019999999999996      23.844999999999988      28.864999999999991
   160   1       6.274999999999995      22.589999999999993      28.864999999999991
   161   1       6.274999999999995      23.844999999999988      27.609999999999992
   162   1       5.019999999999996      23.844999999999988      31.374999999999993
   163   1       6.274999999999995      22.589999999999993      31.374999999999993
   164   1       6.274999999999995      23.844999999999988       30.11999999999999
   165   1       5.019999999999996      23.844999999999988      33.884999999999998
   166   1       6.274999999999995      22.589999999999993      33.884999999999998
   167   1       6.274999999999995      23.844999999999988      32.629999999999995
   168   1       5.019999999999996      23.844999999999988      36.394999999999996
   169   1       6.274999999999995      22.589999999999993      36.394999999999996
   170   1       6.274999999999995      23.844999999999988      35.139999999999993
   171   1       5.019999999999996      23.844999999999988      38.904999999999994
   172   1       6.274999999999995      22.589999999999993      38.904999999999994
   173   1       6.274999999999995      23.844999999999988      37.649999999999991
   174   1       5.019999999999996      23.844999999999988      41.414999999999992
   175   1       6.274999999999995      22.589999999999993      41.414999999999992
   176   1       6.274999999999995      23.844999999999988      40.159999999999989
   177   1       6.274999999999995      22.589999999999993      43.924999999999983
   178   1       6.274999999999995      23.844999999999988      42.669999999999987
   179   1       6.274999999999995      25.099999999999994       21.33499999999999
   180   1       5.019999999999996      26.354999999999993      23.844999999999988
   181   1       6.274999999999995      25.099999999999994      23.844999999999988
   182   1       6.274999999999995      26.354999999999993      22.589999999999993
   183   1       5.019999999999996      25.099999999999994      25.099999999999994
   184   1       5.019999999999996      26.354999999999993      26.354999999999993
   185   1       6.274999999999995      25.099999999999994      26.354999999999993
   186   1       6.274999999999995      26.354999999999993      25.099999999999994
   187   1       5.019999999999996      25.099999999999994      27.609999999999992
   188   1       5.019999999999996      26.354999999999993      28.864999999999991
   189   1       6.274999999999995      25.099999999999994      28.864999999999991
   190   1       6.274999999999995      26.354999999999993      27.609999999999992
   191   1       5.019999999999996      25.099999999999994       30.11999999999999
   192   1       5.019999999999996      26.354999999999993      31.374999999999993
   193   1       6.274999999999995      25.099999999999994      31.374999999999993
   194   1       6.274999999999995      26.354999999999993       30.11999999999999
   195   1       5.019999999999996      25.099999999999994      32.629999999999995
   196   1       5.019999999999996      26.354999999999993      33.884999999999998
   197   1       6.274999999999995      25.099999999999994      33.884999999999998
   198   1       6.274999999999995      26.354999999999993      32.629999999999995
   199   1       5.019999999999996      25.099999999999994      35.139999999999993
   200   1       5.019999999999996      26.354999999999993      36.394999999999996
   201   1       6.274999999999995      25.099999999999994      36.394999999999996
   202   1       6.274999999999995      26.354999999999993      35.139999999999993
   203   1       5.019999999999996      25.099999999999994      37.649999999999991
   204   1       5.019999999999996      26.354999999999993      38.904999999999994
   205   1       6.274999999999995      25.099999999999994      38.904999999999994
   206   1       6.274999999999995      26.354999999999993      37.649999999999991
   207   1       5.019999999999996      25.099999999999994      40.159999999999989
   208   1       5.019999999999996      26.354999999999993      41.414999999999992
   209   1       6.274999999999995      25.099999999999994      41.414999999999992
   210   1       6.274999999999995      26.354999999999993      40.159999999999989
   211   1       6.274999999999995      25.099999999999994      43.924999999999983
   212   1       6.274999999999995      26.354999999999993      42.669999999999987
   213   1       6.274999999999995      27.609999999999992       21.33499999999999
   214   1       5.019999999999996      28.864999999999991      23.844999999999988
   215   1       6.274999999999995      27.609999999999992      23.844999999999988
   216   1       6.274999999999995      28.864999999999991      22.589999999999993
   217   1       5.019999999999996      27.609999999999992      25.099999999999994
   218   1       5.019999999999996      28.864999999999991      26.354999999999993
   219   1       6.274999999999995      27.609999999999992      26.354999999999993
   220   1       6.274999999999995      28.864999999999991      25.099999999999994
   221   1       5.019999999999996      27.609999999999992      27.609999999999992
   222   1       5.019999999999996      28.864999999999991      28.864999999999991
   223   1       6.274999999999995      27.609999999999992      28.864999999999991
   224   1       6.274999999999995      28.864999999999991      27.609999999999992
   225   1       5.019999999999996      27.609999999999992       30.11999999999999
   226   1       5.019999999999996      28.864999999999991      31.374999999999993
   227   1       6.274999999999995      27.609999999999992      31.374999999999993
   228   1       6.274999999999995      28.864999999999991       30.11999999999999
   229   1       5.019999999999996      27.609999999999992      32.629999999999995
   230   1       5.019999999999996      28.864999999999991      33.884999999999998
   231   1       6.274999999999995      27.609999999999992      33.884999999999998
   232   1       6.274999999999995      28.864999999999991      32.629999999999995
   233   1       5.019999999999996      27.609999999999992      35.139999999999993
   234   1       5.019999999999996      28.864999999999991      36.394999999999996
   235   1       6.274999999999995      27.609999999999992      36.394999999999996
   236   1       6.274999999999995      28.864999999999991      35.139999999999993
   237   1       5.019999999999996      27.609999999999992      37.649999999999991
   238   1       5.019999999999996      28.864999999999991      38.904999999999994
   239   1       6.274999999999995      27.609999999999992      38.904999999999994
   240   1       6.274999999999995      28.864999999999991      37.649999999999991
   241   1       5.019999999999996      27.609999999999992      40.159999999999989
   242   1       5.019999999999996      28.864999999999991      41.414999999999992
   243   1       6.274999999999995      27.609999999999992      41.414999999999992
   244   1       6.274999999999995      28.864999999999991      40.159999999999989
   245   1       6.274999999999995      27.609999999999992      43.924999999999983
   246   1       6.274999999999995      28.864999999999991      42.669999999999987
   247   1       6.274999999999995       30.11999999999999       21.33499999999999
   248   1       5.019999999999996      31.374999999999993      23.844999999999988
   249   1       6.274999999999995       30.11999999999999      23.844999999999988
   250   1       6.274999999999995      31.374999999999993      22.589999999999993
   251   1       5.019999999999996       30.11999999999999      25.099999999999994
   252   1       5.019999999999996      31.374999999999993      26.354999999999993
   253   1       6.274999999999995       30.11999999999999      26.354999999999993
   254   1       6.274999999999995      31.374999999999993      25.099999999999994
   255   1       5.019999999999996       30.11999999999999      27.609999999999992
   256   1       5.019999999999996      31.374999999999993      28.864999999999991
   257   1       6.274999999999995       30.11999999999999      28.864999999999991
   258   1       6.274999999999995      31.374999999999993      27.609999999999992
   259   1       5.019999999999996       30.11999999999999       30.11999999999999
   260   1       5.019999999999996      31.374999999999993      31.374999999999993
   261   1       6.274999999999995       30.11999999999999      31.374999999999993
   262   1       6.274999999999995      31.374999999999993       30.11999999999999
   263   1       5.019999999999996       30.11999999999999      32.629999999999995
   264   1       5.019999999999996      31.374999999999993      33.884999999999998
   265   1       6.274999999999995       30.11999999999999      33.884999999999998
   266   1       6.274999999999995      31.374999999999993      32.629999999999995
   267   1       5.019999999999996       30.11999999999999      35.139999999999993
   268   1       5.019999999999996      31.374999999999993      36.394999999999996
   269   1       6.274999999999995       30.11999999999999      36.394999999999996
   270   1       6.274999999999995      31.374999999999993      35.139999999999993
   271   1       5.019999999999996       30.11999999999999      37.649999999999991
   272   1       5.019999999999996      31.374999999999993      38.904999999999994
   273   1       6.274999999999995       30.11999999999999      38.904999999999994
   274   1       6.274999999999995      31.374999999999993      37.649999999999991
   275   1       5.019999999999996       30.11999999999999      40.159999999999989
   276   1       5.019999999999996      31.374999999999993      41.414999999999992
   277   1       6.274999999999995       30.11999999999999      41.414999999999992
   278   1       6.274999999999995      31.374999999999993      40.159999999999989
   279   1       6.274999999999995       30.11999999999999      43.924999999999983
   280   1       6.274999999999995      31.374999999999993      42.669999999999987
   281   1       6.274999999999995      32.629999999999995       21.33499999999999
   282   1       5.019999999999996      33.884999999999998      23.844999999999988
   283   1       6.274999999999995      32.629999999999995      23.844999999999988
   284   1       6.274999999999995      33.884999999999998      22.589999999999993
   285   1       5.019999999999996      32.629999999999995      25.099999999999994
   286   1       5.019999999999996      33.884999999999998      26.354999999999993
   287   1       6.274999999999995      32.629999999999995      26.354999999999993
   288   1       6.274999999999995      33.884999999999998      25.099999999999994
   289   1       5.019999999999996      32.629999999999995      27.609999999999992
   290   1       5.019999999999996      33.884999999999998      28.864999999999991
   291   1       6.274999999999995      32.629999999999995      28.864999999999991
   292   1       6.274999999999995      33.884999999999998      27.609999999999992
   293   1       5.019999999999996      32.629999999999995       30.11999999999999
   294   1       5.019999999999996      33.884999999999998      31.374999999999993
   295   1       6.274999999999995      32.629999999999995      31.374999999999993
   296   1       6.274999999999995      33.884999999999998       30.11999999999999
   297   1       5.019999999999996      32.629999999999995      32.629999999999995
   298   1       5.019999999999996      33.884999999999998      33.884999999999998
   299   1       6.274999999999995      32.629999999999995      33.884999999999998
   300   1       6.274999999999995      33.884999999999998      32.629999999999995
   301   1       5.019999999999996      32.629999999999995      35.139999999999993
   302   1       5.019999999999996      33.884999999999998      36.394999999999996
   303   1       6.274999999999995      32.629999999999995      36.394999999999996
   304   1       6.274999999999995      33.884999999999998      35.139999999999993
   305   1       5.019999999999996      32.629999999999995      37.649999999999991
   306   1       5.019999999999996      33.884999999999998      38.904999999999994
   307   1       6.274999999999995      32.629999999999995      38.904999999999994
   308   1       6.274999999999995      33.884999999999998      37.649999999999991
   309   1       5.019999999999996      32.629999999999995      40.159999999999989
   310   1       5.019999999999996      33.884999999999998      41.414999999999992
   311   1       6.274999999999995      32.629999999999995      41.414999999999992
   312   1       6.274999999999995      33.884999999999998      40.159999999999989
   313   1       6.274999999999995      32.629999999999995      43.924999999999983
   314   1       6.274999999999995      33.884999999999998      42.669999999999987
   315   1       6.274999999999995      35.139999999999993       21.33499999999999
   316   1       5.019999999999996      36.394999999999996      23.844999999999988
   317   1       6.274999999999995      35.139999999999993      23.844999999999988
   318   1       6.274999999999995      36.394999999999996      22.589999999999993
   319   1       5.019999999999996      35.139999999999993      25.099999999999994
   320   1       5.019999999999996      36.394999999999996      26.354999999999993
   321   1       6.274999999999995      35.139999999999993      26.354999999999993
   322   1       6.274999999999995      36.394999999999996      25.099999999999994
   323   1       5.019999999999996      35.139999999999993      27.609999999999992
   324   1       5.019999999999996      36.394999999999996      28.864999999999991
   325   1       6.274999999999995      35.139999999999993      28.864999999999991
   326   1       6.274999999999995      36.394999999999996      27.609999999999992
   327   1       5.019999999999996      35.139999999999993       30.11999999999999
   328   1       5.019999999999996      36.394999999999996      31.374999999999993
   329   1       6.274999999999995      35.139999999999993      31.374999999999993
   330   1       6.274999999999995      36.394999999999996       30.11999999999999
   331   1       5.019999999999996      35.139999999999993      32.629999999999995
   332   1       5.019999999999996      36.394999999999996      33.884999999999998
   333   1       6.274999999999995      35.139999999999993      33.884999999999998
   334   1       6.274999999999995      36.394999999999996      32.629999999999995
   335   1       5.019999999999996      35.139999999999993      35.139999999999993
   336   1       5.019999999999996      36.394999999999996      36.394999999999996
   337   1       6.274999999999995      35.139999999999993      36.394999999999996
   338   1       6.274999999999995      36.394999999999996      35.139999999999993
   339   1       5.019999999999996      35.139999999999993      37.649999999999991
   340   1       5.019999999999996      36.394999999999996      38.904999999999994
   341   1       6.274999999999995      35.139999999999993      38.904999999999994
   342   1       6.274999999999995      36.394999999999996      37.649999999999991
   343   1       5.019999999999996      35.139999999999993      40.159999999999989
   344   1       5.019999999999996      36.394999999999996      41.414999999999992
   345   1       6.274999999999995      35.139999999999993      41.414999999999992
   346   1       6.274999999999995      36.394999999999996      40.159999999999989
   347   1       6.274999999999995      35.139999999999993      43.924999999999983
   348   1       6.274999999999995      36.394999999999996      42.669999999999987
   349   1       6.274999999999995      37.649999999999991       21.33499999999999
   350   1       5.019999999999996      38.904999999999994      23.844999999999988
   351   1       6.274999999999995      37.649999999999991      23.844999999999988
   352   1       6.274999999999995      38.904999999999994      22.589999999999993
   353   1       5.019999999999996      37.649999999999991      25.099999999999994
   354   1       5.019999999999996      38.904999999999994      26.354999999999993
   355   1       6.274999999999995      37.649999999999991      26.354999999999993
   356   1       6.274999999999995      38.904999999999994      25.099999999999994
   357   1       5.019999999999996      37.649999999999991      27.609999999999992
   358   1       5.019999999999996      38.904999999999994      28.864999999999991