LAMMPS data file via write_data, version 30 Nov 2020, timestep = 0

30243 atoms
2 atom types

0 99 xlo xhi
0 99 ylo yhi
0 99 zlo zhi

Masses

1 106.42
2 58.933

Atoms # atomic

1 2 1.875 43.12500000000001 48.75000000000001 0 0 0
2 1 1.875 45.00000000000001 46.875 0 0 0
3 2 1.875 46.875 45.00000000000001 0 0 0
5 2 1.875 46.875 48.75000000000001 0 0 0
7 1 1.875 48.75000000000001 43.12500000000001 0 0 0
8 2 1.875 48.75000000000001 46.875 0 0 0
10 1 0 48.75000000000001 48.75000000000001 0 0 0
18 1 5.625000000000001 31.875000000000004 48.75000000000001 0 0 0
19 2 5.625000000000001 33.75 46.875 0 0 0
20 2 5.625000000000001 35.625 45.00000000000001 0 0 0
22 1 5.625000000000001 35.625 48.75000000000001 0 0 0
24 1 5.625000000000001 37.50000000000001 43.12500000000001 0 0 0
25 1 5.625000000000001 39.375 41.25 0 0 0
26 2 3.75 39.375 46.875 0 0 0
27 2 5.625000000000001 37.50000000000001 46.875 0 0 0
28 1 5.625000000000001 39.375 45.00000000000001 0 0 0
29 2 3.75 37.50000000000001 48.75000000000001 0 0 0
32 1 5.625000000000001 39.375 48.75000000000001 0 0 0
36 1 5.625000000000001 41.25 39.375 0 0 0
37 2 5.625000000000001 43.12500000000001 37.50000000000001 0 0 0
38 1 3.75 43.12500000000001 43.12500000000001 0 0 0
39 1 5.625000000000001 41.25 43.12500000000001 0 0 0
40 1 5.625000000000001 43.12500000000001 41.25 0 0 0
41 2 3.75 41.25 45.00000000000001 0 0 0
42 1 3.75 43.12500000000001 46.875 0 0 0
43 1 5.625000000000001 41.25 46.875 0 0 0
44 1 5.625000000000001 43.12500000000001 45.00000000000001 0 0 0
45 2 3.75 41.25 48.75000000000001 0 0 0
48 2 5.625000000000001 43.12500000000001 48.75000000000001 0 0 0
56 2 5.625000000000001 45.00000000000001 35.625 0 0 0
57 1 5.625000000000001 46.875 33.75 0 0 0
58 1 3.75 46.875 39.375 0 0 0
59 2 5.625000000000001 45.00000000000001 39.375 0 0 0
60 1 5.625000000000001 46.875 37.50000000000001 0 0 0
61 1 3.75 45.00000000000001 41.25 0 0 0
62 2 3.75 46.875 43.12500000000001 0 0 0
63 2 5.625000000000001 45.00000000000001 43.12500000000001 0 0 0
64 1 5.625000000000001 46.875 41.25 0 0 0
65 1 3.75 45.00000000000001 45.00000000000001 0 0 0
66 1 3.75 46.875 46.875 0 0 0
67 1 5.625000000000001 45.00000000000001 46.875 0 0 0
68 2 5.625000000000001 46.875 45.00000000000001 0 0 0
69 1 3.75 45.00000000000001 48.75000000000001 0 0 0
72 2 5.625000000000001 46.875 48.75000000000001 0 0 0
84 2 5.625000000000001 48.75000000000001 31.875000000000004 0 0 0
85 2 5.625000000000001 48.75000000000001 35.625 0 0 0
87 2 3.75 48.75000000000001 37.50000000000001 0 0 0
89 1 5.625000000000001 48.75000000000001 39.375 0 0 0
91 1 3.75 48.75000000000001 41.25 0 0 0
93 2 5.625000000000001 48.75000000000001 43.12500000000001 0 0 0
95 1 3.75 48.75000000000001 45.00000000000001 0 0 0
97 2 5.625000000000001 48.75000000000001 46.875 0 0 0
99 1 3.75 48.75000000000001 48.75000000000001 0 0 0
167 2 9.375000000000002 24.375000000000004 48.75000000000001 0 0 0
168 2 9.375000000000002 26.250000000000004 46.875 0 0 0
169 1 9.375000000000002 28.125000000000004 45.00000000000001 0 0 0
171 1 9.375000000000002 28.125000000000004 48.75000000000001 0 0 0
173 2 9.375000000000002 30 43.12500000000001 0 0 0
174 1 9.375000000000002 31.875000000000004 41.25 0 0 0
175 1 7.5 31.875000000000004 46.875 0 0 0
176 1 9.375000000000002 30 46.875 0 0 0
177 2 9.375000000000002 31.875000000000004 45.00000000000001 0 0 0
178 2 7.5 30 48.75000000000001 0 0 0
181 1 9.375000000000002 31.875000000000004 48.75000000000001 0 0 0
185 2 9.375000000000002 33.75 39.375 0 0 0
186 2 9.375000000000002 35.625 37.50000000000001 0 0 0
187 2 7.5 35.625 43.12500000000001 0 0 0
188 1 9.375000000000002 33.75 43.12500000000001 0 0 0
189 2 9.375000000000002 35.625 41.25 0 0 0
190 1 7.5 33.75 45.00000000000001 0 0 0
191 1 7.5 35.625 46.875 0 0 0
192 2 9.375000000000002 33.75 46.875 0 0 0
193 1 9.375000000000002 35.625 45.00000000000001 0 0 0
194 2 7.5 33.75 48.75000000000001 0 0 0
197 2 9.375000000000002 35.625 48.75000000000001 0 0 0
205 1 9.375000000000002 37.50000000000001 35.625 0 0 0
206 2 9.375000000000002 39.375 33.75 0 0 0
207 1 7.5 39.375 39.375 0 0 0
208 1 9.375000000000002 37.50000000000001 39.375 0 0 0
209 2 9.375000000000002 39.375 37.50000000000001 0 0 0
210 2 7.5 37.50000000000001 41.25 0 0 0
211 2 7.5 39.375 43.12500000000001 0 0 0
212 2 9.375000000000002 37.50000000000001 43.12500000000001 0 0 0
213 2 9.375000000000002 39.375 41.25 0 0 0
214 2 7.5 37.50000000000001 45.00000000000001 0 0 0
215 1 7.5 39.375 46.875 0 0 0
216 2 9.375000000000002 37.50000000000001 46.875 0 0 0
217 2 9.375000000000002 39.375 45.00000000000001 0 0 0
218 2 7.5 37.50000000000001 48.75000000000001 0 0 0
221 1 9.375000000000002 39.375 48.75000000000001 0 0 0
233 2 9.375000000000002 41.25 31.875000000000004 0 0 0
234 2 9.375000000000002 43.12500000000001 30 0 0 0
235 2 7.5 43.12500000000001 35.625 0 0 0
236 1 9.375000000000002 41.25 35.625 0 0 0
237 1 9.375000000000002 43.12500000000001 33.75 0 0 0
238 1 7.5 41.25 37.50000000000001 0 0 0
239 2 7.5 43.12500000000001 39.375 0 0 0
240 1 9.375000000000002 41.25 39.375 0 0 0
241 1 9.375000000000002 43.12500000000001 37.50000000000001 0 0 0
242 2 7.5 41.25 41.25 0 0 0
243 1 7.5 43.12500000000001 43.12500000000001 0 0 0
244 1 9.375000000000002 41.25 43.12500000000001 0 0 0
245 2 9.375000000000002 43.12500000000001 41.25 0 0 0
246 1 7.5 41.25 45.00000000000001 0 0 0
247 1 7.5 43.12500000000001 46.875 0 0 0
248 1 9.375000000000002 41.25 46.875 0 0 0
249 1 9.375000000000002 43.12500000000001 45.00000000000001 0 0 0
250 2 7.5 41.25 48.75000000000001 0 0 0
253 1 9.375000000000002 43.12500000000001 48.75000000000001 0 0 0
269 1 9.375000000000002 45.00000000000001 28.125000000000004 0 0 0
270 1 9.375000000000002 46.875 26.250000000000004 0 0 0
271 1 7.5 46.875 31.875000000000004 0 0 0
272 2 9.375000000000002 45.00000000000001 31.875000000000004 0 0 0
273 2 9.375000000000002 46.875 30 0 0 0
274 1 7.5 45.00000000000001 33.75 0 0 0
275 1 7.5 46.875 35.625 0 0 0
276 1 9.375000000000002 45.00000000000001 35.625 0 0 0
277 1 9.375000000000002 46.875 33.75 0 0 0
278 1 7.5 45.00000000000001 37.50000000000001 0 0 0
279 2 7.5 46.875 39.375 0 0 0
280 2 9.375000000000002 45.00000000000001 39.375 0 0 0
281 1 9.375000000000002 46.875 37.50000000000001 0 0 0
282 2 7.5 45.00000000000001 41.25 0 0 0
283 1 7.5 46.875 43.12500000000001 0 0 0
284 1 9.375000000000002 45.00000000000001 43.12500000000001 0 0 0
285 2 9.375000000000002 46.875 41.25 0 0 0
286 2 7.5 45.00000000000001 45.00000000000001 0 0 0
287 1 7.5 46.875 46.875 0 0 0
288 2 9.375000000000002 45.00000000000001 46.875 0 0 0
289 1 9.375000000000002 46.875 45.00000000000001 0 0 0
290 2 7.5 45.00000000000001 48.75000000000001 0 0 0
293 1 9.375000000000002 46.875 48.75000000000001 0 0 0
313 2 9.375000000000002 48.75000000000001 24.375000000000004 0 0 0
314 1 9.375000000000002 48.75000000000001 28.125000000000004 0 0 0
316 2 7.5 48.75000000000001 30 0 0 0
318 2 9.375000000000002 48.75000000000001 31.875000000000004 0 0 0
320 1 7.5 48.75000000000001 33.75 0 0 0
322 2 9.375000000000002 48.75000000000001 35.625 0 0 0
324 1 7.5 48.75000000000001 37.50000000000001 0 0 0
326 2 9.375000000000002 48.75000000000001 39.375 0 0 0
328 2 7.5 48.75000000000001 41.25 0 0 0
330 2 9.375000000000002 48.75000000000001 43.12500000000001 0 0 0
332 2 7.5 48.75000000000001 45.00000000000001 0 0 0
334 1 9.375000000000002 48.75000000000001 46.875 0 0 0
336 1 7.5 48.75000000000001 48.75000000000001 0 0 0
484 2 13.125000000000002 13.125000000000002 48.75000000000001 0 0 0
485 2 13.125000000000002 15 46.875 0 0 0
486 2 13.125000000000002 16.875 45.00000000000001 0 0 0
488 1 13.125000000000002 16.875 48.75000000000001 0 0 0
490 2 13.125000000000002 18.750000000000004 43.12500000000001 0 0 0
491 2 13.125000000000002 20.625 41.25 0 0 0
492 1 11.250000000000002 20.625 46.875 0 0 0
493 2 13.125000000000002 18.750000000000004 46.875 0 0 0
494 1 13.125000000000002 20.625 45.00000000000001 0 0 0
495 2 11.250000000000002 18.750000000000004 48.75000000000001 0 0 0
498 2 13.125000000000002 20.625 48.75000000000001 0 0 0
502 1 13.125000000000002 22.500000000000004 39.375 0 0 0
503 1 13.125000000000002 24.375000000000004 37.50000000000001 0 0 0
504 2 11.250000000000002 24.375000000000004 43.12500000000001 0 0 0
505 2 13.125000000000002 22.500000000000004 43.12500000000001 0 0 0
506 2 13.125000000000002 24.375000000000004 41.25 0 0 0
507 2 11.250000000000002 22.500000000000004 45.00000000000001 0 0 0
508 1 11.250000000000002 24.375000000000004 46.875 0 0 0
509 1 13.125000000000002 22.500000000000004 46.875 0 0 0
510 1 13.125000000000002 24.375000000000004 45.00000000000001 0 0 0
511 1 11.250000000000002 22.500000000000004 48.75000000000001 0 0 0
514 2 13.125000000000002 24.375000000000004 48.75000000000001 0 0 0
522 1 13.125000000000002 26.250000000000004 35.625 0 0 0
523 1 13.125000000000002 28.125000000000004 33.75 0 0 0
524 1 11.250000000000002 28.125000000000004 39.375 0 0 0
525 2 13.125000000000002 26.250000000000004 39.375 0 0 0
526 1 13.125000000000002 28.125000000000004 37.50000000000001 0 0 0
527 1 11.250000000000002 26.250000000000004 41.25 0 0 0
528 2 11.250000000000002 28.125000000000004 43.12500000000001 0 0 0
529 2 13.125000000000002 26.250000000000004 43.12500000000001 0 0 0
530 1 13.125000000000002 28.125000000000004 41.25 0 0 0
531 2 11.250000000000002 26.250000000000004 45.00000000000001 0 0 0
532 1 11.250000000000002 28.125000000000004 46.875 0 0 0
533 1 13.125000000000002 26.250000000000004 46.875 0 0 0
534 2 13.125000000000002 28.125000000000004 45.00000000000001 0 0 0
535 2 11.250000000000002 26.250000000000004 48.75000000000001 0 0 0
538 1 13.125000000000002 28.125000000000004 48.75000000000001 0 0 0
550 2 13.125000000000002 30 31.875000000000004 0 0 0
551 2 13.125000000000002 31.875000000000004 30 0 0 0
552 2 11.250000000000002 31.875000000000004 35.625 0 0 0
553 2 13.125000000000002 30 35.625 0 0 0
554 1 13.125000000000002 31.875000000000004 33.75 0 0 0
555 2 11.250000000000002 30 37.50000000000001 0 0 0
556 1 11.250000000000002 31.875000000000004 39.375 0 0 0
557 2 13.125000000000002 30 39.375 0 0 0
558 1 13.125000000000002 31.875000000000004 37.50000000000001 0 0 0
559 1 11.250000000000002 30 41.25 0 0 0
560 2 11.250000000000002 31.875000000000004 43.12500000000001 0 0 0
561 1 13.125000000000002 30 43.12500000000001 0 0 0
562 2 13.125000000000002 31.875000000000004 41.25 0 0 0
563 1 11.250000000000002 30 45.00000000000001 0 0 0
564 1 11.250000000000002 31.875000000000004 46.875 0 0 0
565 1 13.125000000000002 30 46.875 0 0 0
566 1 13.125000000000002 31.875000000000004 45.00000000000001 0 0 0
567 2 11.250000000000002 30 48.75000000000001 0 0 0
570 2 13.125000000000002 31.875000000000004 48.75000000000001 0 0 0
586 1 13.125000000000002 33.75 28.125000000000004 0 0 0
587 1 13.125000000000002 35.625 26.250000000000004 0 0 0
588 2 11.250000000000002 35.625 31.875000000000004 0 0 0
589 1 13.125000000000002 33.75 31.875000000000004 0 0 0
590 2 13.125000000000002 35.625 30 0 0 0
591 1 11.250000000000002 33.75 33.75 0 0 0
592 2 11.250000000000002 35.625 35.625 0 0 0
593 2 13.125000000000002 33.75 35.625 0 0 0
594 2 13.125000000000002 35.625 33.75 0 0 0
595 2 11.250000000000002 33.75 37.50000000000001 0 0 0
596 2 11.250000000000002 35.625 39.375 0 0 0
597 1 13.125000000000002 33.75 39.375 0 0 0
598 1 13.125000000000002 35.625 37.50000000000001 0 0 0
599 1 11.250000000000002 33.75 41.25 0 0 0
600 1 11.250000000000002 35.625 43.12500000000001 0 0 0
601 1 13.125000000000002 33.75 43.12500000000001 0 0 0
602 2 13.125000000000002 35.625 41.25 0 0 0
603 2 11.250000000000002 33.75 45.00000000000001 0 0 0
604 2 11.250000000000002 35.625 46.875 0 0 0
605 1 13.125000000000002 33.75 46.875 0 0 0
606 1 13.125000000000002 35.625 45.00000000000001 0 0 0
607 1 11.250000000000002 33.75 48.75000000000001 0 0 0
610 1 13.125000000000002 35.625 48.75000000000001 0 0 0
630 2 13.125000000000002 37.50000000000001 24.375000000000004 0 0 0
631 2 13.125000000000002 39.375 22.500000000000004 0 0 0
632 1 11.250000000000002 39.375 28.125000000000004 0 0 0
633 2 13.125000000000002 37.50000000000001 28.125000000000004 0 0 0
634 2 13.125000000000002 39.375 26.250000000000004 0 0 0
635 2 11.250000000000002 37.50000000000001 30 0 0 0
636 2 11.250000000000002 39.375 31.875000000000004 0 0 0
637 2 13.125000000000002 37.50000000000001 31.875000000000004 0 0 0
638 2 13.125000000000002 39.375 30 0 0 0
639 2 11.250000000000002 37.50000000000001 33.75 0 0 0
640 2 11.250000000000002 39.375 35.625 0 0 0
641 1 13.125000000000002 37.50000000000001 35.625 0 0 0
642 1 13.125000000000002 39.375 33.75 0 0 0
643 1 11.250000000000002 37.50000000000001 37.50000000000001 0 0 0
644 1 11.250000000000002 39.375 39.375 0 0 0
645 2 13.125000000000002 37.50000000000001 39.375 0 0 0
646 1 13.125000000000002 39.375 37.50000000000001 0 0 0
647 1 11.250000000000002 37.50000000000001 41.25 0 0 0
648 2 11.250000000000002 39.375 43.12500000000001 0 0 0
649 2 13.125000000000002 37.50000000000001 43.12500000000001 0 0 0
650 2 13.125000000000002 39.375 41.25 0 0 0
651 1 11.250000000000002 37.50000000000001 45.00000000000001 0 0 0
652 2 11.250000000000002 39.375 46.875 0 0 0
653 1 13.125000000000002 37.50000000000001 46.875 0 0 0
654 2 13.125000000000002 39.375 45.00000000000001 0 0 0
655 1 11.250000000000002 37.50000000000001 48.75000000000001 0 0 0
658 2 13.125000000000002 39.375 48.75000000000001 0 0 0
682 1 13.125000000000002 41.25 20.625 0 0 0
683 2 13.125000000000002 43.12500000000001 18.750000000000004 0 0 0
684 2 11.250000000000002 43.12500000000001 24.375000000000004 0 0 0
685 2 13.125000000000002 41.25 24.375000000000004 0 0 0
686 2 13.125000000000002 43.12500000000001 22.500000000000004 0 0 0
687 2 11.250000000000002 41.25 26.250000000000004 0 0 0
688 1 11.250000000000002 43.12500000000001 28.125000000000004 0 0 0
689 1 13.125000000000002 41.25 28.125000000000004 0 0 0
690 1 13.125000000000002 43.12500000000001 26.250000000000004 0 0 0
691 1 11.250000000000002 41.25 30 0 0 0
692 1 11.250000000000002 43.12500000000001 31.875000000000004 0 0 0
693 2 13.125000000000002 41.25 31.875000000000004 0 0 0
694 2 13.125000000000002 43.12500000000001 30 0 0 0
695 1 11.250000000000002 41.25 33.75 0 0 0
696 2 11.250000000000002 43.12500000000001 35.625 0 0 0
697 2 13.125000000000002 41.25 35.625 0 0 0
698 1 13.125000000000002 43.12500000000001 33.75 0 0 0
699 1 11.250000000000002 41.25 37.50000000000001 0 0 0
700 2 11.250000000000002 43.12500000000001 39.375 0 0 0
701 2 13.125000000000002 41.25 39.375 0 0 0
702 2 13.125000000000002 43.12500000000001 37.50000000000001 0 0 0
703 2 11.250000000000002 41.25 41.25 0 0 0
704 2 11.250000000000002 43.12500000000001 43.12500000000001 0 0 0
705 2 13.125000000000002 41.25 43.12500000000001 0 0 0
706 1 13.125000000000002 43.12500000000001 41.25 0 0 0
707 2 11.250000000000002 41.25 45.00000000000001 0 0 0
708 1 11.250000000000002 43.12500000000001 46.875 0 0 0
709 2 13.125000000000002 41.25 46.875 0 0 0
710 2 13.125000000000002 43.12500000000001 45.00000000000001 0 0 0
711 2 11.250000000000002 41.25 48.75000000000001 0 0 0
714 1 13.125000000000002 43.12500000000001 48.75000000000001 0 0 0
742 2 13.125000000000002 45.00000000000001 16.875 0 0 0
743 2 13.125000000000002 46.875 15 0 0 0
744 2 11.250000000000002 46.875 20.625 0 0 0
745 2 13.125000000000002 45.00000000000001 20.625 0 0 0
746 1 13.125000000000002 46.875 18.750000000000004 0 0 0
747 1 11.250000000000002 45.00000000000001 22.500000000000004 0 0 0
748 2 11.250000000000002 46.875 24.375000000000004 0 0 0
749 2 13.125000000000002 45.00000000000001 24.375000000000004 0 0 0
750 2 13.125000000000002 46.875 22.500000000000004 0 0 0
751 2 11.250000000000002 45.00000000000001 26.250000000000004 0 0 0
752 1 11.250000000000002 46.875 28.125000000000004 0 0 0
753 1 13.125000000000002 45.00000000000001 28.125000000000004 0 0 0
754 1 13.125000000000002 46.875 26.250000000000004 0 0 0
755 2 11.250000000000002 45.00000000000001 30 0 0 0
756 2 11.250000000000002 46.875 31.875000000000004 0 0 0
757 2 13.125000000000002 45.00000000000001 31.875000000000004 0 0 0
758 1 13.125000000000002 46.875 30 0 0 0
759 2 11.250000000000002 45.00000000000001 33.75 0 0 0
760 2 11.250000000000002 46.875 35.625 0 0 0
761 1 13.125000000000002 45.00000000000001 35.625 0 0 0
762 2 13.125000000000002 46.875 33.75 0 0 0
763 1 11.250000000000002 45.00000000000001 37.50000000000001 0 0 0
764 1 11.250000000000002 46.875 39.375 0 0 0
765 2 13.125000000000002 45.00000000000001 39.375 0 0 0
766 1 13.125000000000002 46.875 37.50000000000001 0 0 0
767 1 11.250000000000002 45.00000000000001 41.25 0 0 0
768 2 11.250000000000002 46.875 43.12500000000001 0 0 0
769 1 13.125000000000002 45.00000000000001 43.12500000000001 0 0 0
770 1 13.125000000000002 46.875 41.25 0 0 0
771 2 11.250000000000002 45.00000000000001 45.00000000000001 0 0 0
772 1 11.250000000000002 46.875 46.875 0 0 0
773 1 13.125000000000002 45.00000000000001 46.875 0 0 0
774 2 13.125000000000002 46.875 45.00000000000001 0 0 0
775 2 11.250000000000002 45.00000000000001 48.75000000000001 0 0 0
778 1 13.125000000000002 46.875 48.75000000000001 0 0 0
810 1 13.125000000000002 48.75000000000001 13.125000000000002 0 0 0
811 1 13.125000000000002 48.75000000000001 16.875 0 0 0
813 1 11.250000000000002 48.75000000000001 18.750000000000004 0 0 0
815 2 13.125000000000002 48.75000000000001 20.625 0 0 0
817 1 11.250000000000002 48.75000000000001 22.500000000000004 0 0 0
819 1 13.125000000000002 48.75000000000001 24.375000000000004 0 0 0
821 2 11.250000000000002 48.75000000000001 26.250000000000004 0 0 0
823 1 13.125000000000002 48.75000000000001 28.125000000000004 0 0 0
825 1 11.250000000000002 48.75000000000001 30 0 0 0
827 1 13.125000000000002 48.75000000000001 31.875000000000004 0 0 0
829 1 11.250000000000002 48.75000000000001 33.75 0 0 0
831 2 13.125000000000002 48.75000000000001 35.625 0 0 0
833 1 11.250000000000002 48.75000000000001 37.50000000000001 0 0 0
835 2 13.125000000000002 48.75000000000001 39.375 0 0 0
837 2 11.250000000000002 48.75000000000001 41.25 0 0 0
839 1 13.125000000000002 48.75000000000001 43.12500000000001 0 0 0
841 1 11.250000000000002 48.75000000000001 45.00000000000001 0 0 0
843 1 13.125000000000002 48.75000000000001 46.875 0 0 0
845 1 11.250000000000002 48.75000000000001 48.75000000000001 0 0 0
1173 1 15 13.125000000000002 46.875 0 0 0
1174 2 16.875 13.125000000000002 45.00000000000001 0 0 0
1176 2 16.875 13.125000000000002 48.75000000000001 0 0 0
1178 2 16.875 16.875 37.50000000000001 0 0 0
1179 2 15 16.875 43.12500000000001 0 0 0
1180 1 16.875 15 43.12500000000001 0 0 0
1181 1 16.875 16.875 41.25 0 0 0
1182 1 15 15 45.00000000000001 0 0 0
1183 2 15 16.875 46.875 0 0 0
1184 2 16.875 15 46.875 0 0 0
1185 1 16.875 16.875 45.00000000000001 0 0 0
1186 1 15 15 48.75000000000001 0 0 0
1189 2 16.875 16.875 48.75000000000001 0 0 0
1196 2 16.875 18.750000000000004 35.625 0 0 0
1197 2 16.875 20.625 33.75 0 0 0
1198 1 15 20.625 39.375 0 0 0
1199 2 16.875 18.750000000000004 39.375 0 0 0
1200 2 16.875 20.625 37.50000000000001 0 0 0
1201 2 15 18.750000000000004 41.25 0 0 0
1202 2 15 20.625 43.12500000000001 0 0 0
1203 1 16.875 18.750000000000004 43.12500000000001 0 0 0
1204 1 16.875 20.625 41.25 0 0 0
1205 2 15 18.750000000000004 45.00000000000001 0 0 0
1206 1 15 20.625 46.875 0 0 0
1207 2 16.875 18.750000000000004 46.875 0 0 0
1208 2 16.875 20.625 45.00000000000001 0 0 0
1209 1 15 18.750000000000004 48.75000000000001 0 0 0
1212 2 16.875 20.625 48.75000000000001 0 0 0
1224 1 16.875 22.500000000000004 31.875000000000004 0 0 0
1225 1 16.875 24.375000000000004 30 0 0 0
1226 2 15 24.375000000000004 35.625 0 0 0
1227 1 16.875 22.500000000000004 35.625 0 0 0
1228 1 16.875 24.375000000000004 33.75 0 0 0
1229 2 15 22.500000000000004 37.50000000000001 0 0 0
1230 2 15 24.375000000000004 39.375 0 0 0
1231 2 16.875 22.500000000000004 39.375 0 0 0
1232 1 16.875 24.375000000000004 37.50000000000001 0 0 0
1233 2 15 22.500000000000004 41.25 0 0 0
1234 2 15 24.375000000000004 43.12500000000001 0 0 0
1235 1 16.875 22.500000000000004 43.12500000000001 0 0 0
1236 2 16.875 24.375000000000004 41.25 0 0 0
1237 2 15 22.500000000000004 45.00000000000001 0 0 0
1238 1 15 24.375000000000004 46.875 0 0 0
1239 1 16.875 22.500000000000004 46.875 0 0 0
1240 2 16.875 24.375000000000004 45.00000000000001 0 0 0
1241 1 15 22.500000000000004 48.75000000000001 0 0 0
1244 1 16.875 24.375000000000004 48.75000000000001 0 0 0
1260 2 16.875 26.250000000000004 28.125000000000004 0 0 0
1261 2 16.875 28.125000000000004 26.250000000000004 0 0 0
1262 1 15 28.125000000000004 31.875000000000004 0 0 0
1263 1 16.875 26.250000000000004 31.875000000000004 0 0 0
1264 1 16.875 28.125000000000004 30 0 0 0
1265 1 15 26.250000000000004 33.75 0 0 0
1266 2 15 28.125000000000004 35.625 0 0 0
1267 2 16.875 26.250000000000004 35.625 0 0 0
1268 1 16.875 28.125000000000004 33.75 0 0 0
1269 1 15 26.250000000000004 37.50000000000001 0 0 0
1270 1 15 28.125000000000004 39.375 0 0 0
1271 2 16.875 26.250000000000004 39.375 0 0 0
1272 1 16.875 28.125000000000004 37.50000000000001 0 0 0
1273 1 15 26.250000000000004 41.25 0 0 0
1274 1 15 28.125000000000004 43.12500000000001 0 0 0
1275 1 16.875 26.250000000000004 43.12500000000001 0 0 0
1276 1 16.875 28.125000000000004 41.25 0 0 0
1277 2 15 26.250000000000004 45.00000000000001 0 0 0
1278 1 15 28.125000000000004 46.875 0 0 0
1279 1 16.875 26.250000000000004 46.875 0 0 0
1280 1 16.875 28.125000000000004 45.00000000000001 0 0 0
1281 2 15 26.250000000000004 48.75000000000001 0 0 0
1284 1 16.875 28.125000000000004 48.75000000000001 0 0 0
1304 2 16.875 30 24.375000000000004 0 0 0
1305 1 16.875 31.875000000000004 22.500000000000004 0 0 0
1306 1 15 31.875000000000004 28.125000000000004 0 0 0
1307 1 16.875 30 28.125000000000004 0 0 0
1308 2 16.875 31.875000000000004 26.250000000000004 0 0 0
1309 2 15 30 30 0 0 0
1310 2 15 31.875000000000004 31.875000000000004 0 0 0
1311 1 16.875 30 31.875000000000004 0 0 0
1312 1 16.875 31.875000000000004 30 0 0 0
1313 1 15 30 33.75 0 0 0
1314 1 15 31.875000000000004 35.625 0 0 0
1315 1 16.875 30 35.625 0 0 0
1316 1 16.875 31.875000000000004 33.75 0 0 0
1317 2 15 30 37.50000000000001 0 0 0
1318 2 15 31.875000000000004 39.375 0 0 0
1319 1 16.875 30 39.375 0 0 0
1320 1 16.875 31.875000000000004 37.50000000000001 0 0 0
1321 2 15 30 41.25 0 0 0
1322 1 15 31.875000000000004 43.12500000000001 0 0 0
1323 1 16.875 30 43.12500000000001 0 0 0
1324 1 16.875 31.875000000000004 41.25 0 0 0
1325 2 15 30 45.00000000000001 0 0 0
1326 2 15 31.875000000000004 46.875 0 0 0
1327 1 16.875 30 46.875 0 0 0
1328 2 16.875 31.875000000000004 45.00000000000001 0 0 0
1329 1 15 30 48.75000000000001 0 0 0
1332 1 16.875 31.875000000000004 48.75000000000001 0 0 0
1356 1 16.875 33.75 20.625 0 0 0
1357 2 16.875 35.625 18.750000000000004 0 0 0
1358 2 15 35.625 24.375000000000004 0 0 0
1359 1 16.875 33.75 24.375000000000004 0 0 0
1360 2 16.875 35.625 22.500000000000004 0 0 0
1361 2 15 33.75 26.250000000000004 0 0 0
1362 1 15 35.625 28.125000000000004 0 0 0
1363 2 16.875 33.75 28.125000000000004 0 0 0
1364 2 16.875 35.625 26.250000000000004 0 0 0
1365 1 15 33.75 30 0 0 0
1366 1 15 35.625 31.875000000000004 0 0 0
1367 2 16.875 33.75 31.875000000000004 0 0 0
1368 1 16.875 35.625 30 0 0 0
1369 2 15 33.75 33.75 0 0 0
1370 2 15 35.625 35.625 0 0 0
1371 2 16.875 33.75 35.625 0 0 0
1372 2 16.875 35.625 33.75 0 0 0
1373 2 15 33.75 37.50000000000001 0 0 0
1374 1 15 35.625 39.375 0 0 0
1375 2 16.875 33.75 39.375 0 0 0
1376 2 16.875 35.625 37.50000000000001 0 0 0
1377 1 15 33.75 41.25 0 0 0
1378 1 15 35.625 43.12500000000001 0 0 0
1379 2 16.875 33.75 43.12500000000001 0 0 0
1380 1 16.875 35.625 41.25 0 0 0
1381 2 15 33.75 45.00000000000001 0 0 0
1382 1 15 35.625 46.875 0 0 0
1383 2 16.875 33.75 46.875 0 0 0
1384 2 16.875 35.625 45.00000000000001 0 0 0
1385 2 15 33.75 48.75000000000001 0 0 0
1388 1 16.875 35.625 48.75000000000001 0 0 0
1416 2 16.875 37.50000000000001 16.875 0 0 0
1417 1 15 39.375 20.625 0 0 0
1418 2 16.875 37.50000000000001 20.625 0 0 0
1419 1 16.875 39.375 18.750000000000004 0 0 0
1420 1 15 37.50000000000001 22.500000000000004 0 0 0
1421 2 15 39.375 24.375000000000004 0 0 0
1422 1 16.875 37.50000000000001 24.375000000000004 0 0 0
1423 2 16.875 39.375 22.500000000000004 0 0 0
1424 1 15 37.50000000000001 26.250000000000004 0 0 0
1425 1 15 39.375 28.125000000000004 0 0 0
1426 1 16.875 37.50000000000001 28.125000000000004 0 0 0
1427 2 16.875 39.375 26.250000000000004 0 0 0
1428 1 15 37.50000000000001 30 0 0 0
1429 2 15 39.375 31.875000000000004 0 0 0
1430 1 16.875 37.50000000000001 31.875000000000004 0 0 0
1431 1 16.875 39.375 30 0 0 0
1432 2 15 37.50000000000001 33.75 0 0 0
1433 2 15 39.375 35.625 0 0 0
1434 2 16.875 37.50000000000001 35.625 0 0 0
1435 2 16.875 39.375 33.75 0 0 0
1436 1 15 37.50000000000001 37.50000000000001 0 0 0
1437 2 15 39.375 39.375 0 0 0
1438 1 16.875 37.50000000000001 39.375 0 0 0
1439 2 16.875 39.375 37.50000000000001 0 0 0
1440 2 15 37.50000000000001 41.25 0 0 0
1441 2 15 39.375 43.12500000000001 0 0 0
1442 2 16.875 37.50000000000001 43.12500000000001 0 0 0
1443 1 16.875 39.375 41.25 0 0 0
1444 1 15 37.50000000000001 45.00000000000001 0 0 0
1445 1 15 39.375 46.875 0 0 0
1446 1 16.875 37.50000000000001 46.875 0 0 0
1447 2 16.875 39.375 45.00000000000001 0 0 0
1448 2 15 37.50000000000001 48.75000000000001 0 0 0
1451 2 16.875 39.375 48.75000000000001 0 0 0
1482 1 15 43.12500000000001 16.875 0 0 0
1483 1 16.875 41.25 16.875 0 0 0
1484 2 16.875 43.12500000000001 15 0 0 0
1485 2 15 41.25 18.750000000000004 0 0 0
1486 2 15 43.12500000000001 20.625 0 0 0
1487 2 16.875 41.25 20.625 0 0 0
1488 1 16.875 43.12500000000001 18.750000000000004 0 0 0
1489 1 15 41.25 22.500000000000004 0 0 0
1490 2 15 43.12500000000001 24.375000000000004 0 0 0
1491 2 16.875 41.25 24.375000000000004 0 0 0
1492 1 16.875 43.12500000000001 22.500000000000004 0 0 0
1493 1 15 41.25 26.250000000000004 0 0 0
1494 2 15 43.12500000000001 28.125000000000004 0 0 0
1495 1 16.875 41.25 28.125000000000004 0 0 0
1496 2 16.875 43.12500000000001 26.250000000000004 0 0 0
1497 2 15 41.25 30 0 0 0
1498 2 15 43.12500000000001 31.875000000000004 0 0 0
1499 1 16.875 41.25 31.875000000000004 0 0 0
1500 1 16.875 43.12500000000001 30 0 0 0
1501 1 15 41.25 33.75 0 0 0
1502 2 15 43.12500000000001 35.625 0 0 0
1503 2 16.875 41.25 35.625 0 0 0
1504 2 16.875 43.12500000000001 33.75 0 0 0
1505 1 15 41.25 37.50000000000001 0 0 0
1506 2 15 43.12500000000001 39.375 0 0 0
1507 2 16.875 41.25 39.375 0 0 0
1508 2 16.875 43.12500000000001 37.50000000000001 0 0 0
1509 1 15 41.25 41.25 0 0 0
1510 1 15 43.12500000000001 43.12500000000001 0 0 0
1511 1 16.875 41.25 43.12500000000001 0 0 0
1512 1 16.875 43.12500000000001 41.25 0 0 0
1513 2 15 41.25 45.00000000000001 0 0 0
1514 1 15 43.12500000000001 46.875 0 0 0
1515 1 16.875 41.25 46.875 0 0 0
1516 1 16.875 43.12500000000001 45.00000000000001 0 0 0
1517 2 15 41.25 48.75000000000001 0 0 0
1520 1 16.875 43.12500000000001 48.75000000000001 0 0 0
1554 1 15 46.875 13.125000000000002 0 0 0
1555 1 16.875 45.00000000000001 13.125000000000002 0 0 0
1556 1 15 45.00000000000001 15 0 0 0
1557 1 15 46.875 16.875 0 0 0
1558 2 16.875 45.00000000000001 16.875 0 0 0
1559 1 16.875 46.875 15 0 0 0
1560 2 15 45.00000000000001 18.750000000000004 0 0 0
1561 1 15 46.875 20.625 0 0 0
1562 1 16.875 45.00000000000001 20.625 0 0 0
1563 2 16.875 46.875 18.750000000000004 0 0 0
1564 2 15 45.00000000000001 22.500000000000004 0 0 0
1565 1 15 46.875 24.375000000000004 0 0 0
1566 1 16.875 45.00000000000001 24.375000000000004 0 0 0
1567 1 16.875 46.875 22.500000000000004 0 0 0
1568 2 15 45.00000000000001 26.250000000000004 0 0 0
1569 2 15 46.875 28.125000000000004 0 0 0
1570 1 16.875 45.00000000000001 28.125000000000004 0 0 0
1571 1 16.875 46.875 26.250000000000004 0 0 0
1572 1 15 45.00000000000001 30 0 0 0
1573 1 15 46.875 31.875000000000004 0 0 0
1574 1 16.875 45.00000000000001 31.875000000000004 0 0 0
1575 1 16.875 46.875 30 0 0 0
1576 1 15 45.00000000000001 33.75 0 0 0
1577 1 15 46.875 35.625 0 0 0
1578 2 16.875 45.00000000000001 35.625 0 0 0
1579 2 16.875 46.875 33.75 0 0 0
1580 1 15 45.00000000000001 37.50000000000001 0 0 0
1581 2 15 46.875 39.375 0 0 0
1582 1 16.875 45.00000000000001 39.375 0 0 0
1583 1 16.875 46.875 37.50000000000001 0 0 0
1584 2 15 45.00000000000001 41.25 0 0 0
1585 1 15 46.875 43.12500000000001 0 0 0
1586 2 16.875 45.00000000000001 43.12500000000001 0 0 0
1587 1 16.875 46.875 41.25 0 0 0
1588 2 15 45.00000000000001 45.00000000000001 0 0 0
1589 2 15 46.875 46.875 0 0 0
1590 2 16.875 45.00000000000001 46.875 0 0 0
1591 2 16.875 46.875 45.00000000000001 0 0 0
1592 1 15 45.00000000000001 48.75000000000001 0 0 0
1595 2 16.875 46.875 48.75000000000001 0 0 0
1633 2 16.875 48.75000000000001 13.125000000000002 0 0 0
1634 1 15 48.75000000000001 15 0 0 0
1636 2 16.875 48.75000000000001 16.875 0 0 0
1638 2 15 48.75000000000001 18.750000000000004 0 0 0
1640 2 16.875 48.75000000000001 20.625 0 0 0
1642 1 15 48.75000000000001 22.500000000000004 0 0 0
1644 1 16.875 48.75000000000001 24.375000000000004 0 0 0
1646 2 15 48.75000000000001 26.250000000000004 0 0 0
1648 1 16.875 48.75000000000001 28.125000000000004 0 0 0
1650 2 15 48.75000000000001 30 0 0 0
1652 2 16.875 48.75000000000001 31.875000000000004 0 0 0
1654 1 15 48.75000000000001 33.75 0 0 0
1656 2 16.875 48.75000000000001 35.625 0 0 0
1658 2 15 48.75000000000001 37.50000000000001 0 0 0
1660 1 16.875 48.75000000000001 39.375 0 0 0
1662 2 15 48.75000000000001 41.25 0 0 0
1664 2 16.875 48.75000000000001 43.12500000000001 0 0 0
1666 2 15 48.75000000000001 45.00000000000001 0 0 0
1668 1 16.875 48.75000000000001 46.875 0 0 0
1670 1 15 48.75000000000001 48.75000000000001 0 0 0
2130 2 18.750000000000004 13.125000000000002 43.12500000000001 0 0 0
2131 1 20.625 13.125000000000002 41.25 0 0 0
2132 1 18.750000000000004 13.125000000000002 46.875 0 0 0
2133 1 20.625 11.250000000000002 46.875 0 0 0
2134 2 20.625 13.125000000000002 45.00000000000001 0 0 0
2135 1 18.750000000000004 11.250000000000002 48.75000000000001 0 0 0