model_files/Co/Co_3000/Co_533/data.Co_533_hcp_2989 (written by ASE) 

2989 	 atoms 
1  atom types
0.0                      32  xlo xhi
0.0                      32  ylo yhi
0.0                      32  zlo zhi


Atoms 

     1   1      31.999999999999996      15.059999999999995      16.314999999999998
     2   1      31.999999999999996      16.314999999999998      15.059999999999995
     3   1      31.999999999999996      16.314999999999998      17.569999999999997
     4   1      31.999999999999996      17.569999999999997      16.314999999999998
     5   1       2.509999999999998      12.549999999999997      16.314999999999998
     6   1      1.2549999999999972      15.059999999999995      15.059999999999995
     7   1       2.509999999999998      13.804999999999996      15.059999999999995
     8   1       2.509999999999998      15.059999999999995      13.804999999999996
     9   1      1.2549999999999972      13.804999999999996      16.314999999999998
    10   1      1.2549999999999972      15.059999999999995      17.569999999999997
    11   1       2.509999999999998      13.804999999999996      17.569999999999997
    12   1       2.509999999999998      15.059999999999995      16.314999999999998
    13   1       2.509999999999998      15.059999999999995      18.824999999999996
    14   1       2.509999999999998      16.314999999999998      12.549999999999997
    15   1      1.2549999999999972      16.314999999999998      13.804999999999996
    16   1      1.2549999999999972      17.569999999999997      15.059999999999995
    17   1       2.509999999999998      16.314999999999998      15.059999999999995
    18   1       2.509999999999998      17.569999999999997      13.804999999999996
    19   1      1.2549999999999972      16.314999999999998      16.314999999999998
    20   1      1.2549999999999972      17.569999999999997      17.569999999999997
    21   1       2.509999999999998      16.314999999999998      17.569999999999997
    22   1       2.509999999999998      17.569999999999997      16.314999999999998
    23   1      1.2549999999999972      16.314999999999998      18.824999999999996
    24   1       2.509999999999998      16.314999999999998      20.079999999999995
    25   1       2.509999999999998      17.569999999999997      18.824999999999996
    26   1       2.509999999999998      18.824999999999996      15.059999999999995
    27   1      1.2549999999999972      18.824999999999996      16.314999999999998
    28   1       2.509999999999998      18.824999999999996      17.569999999999997
    29   1       2.509999999999998      20.079999999999995      16.314999999999998
    30   1       5.019999999999996      7.5299999999999976      16.314999999999998
    31   1       3.764999999999997      10.039999999999996      15.059999999999995
    32   1       5.019999999999996      8.7849999999999966      15.059999999999995
    33   1       5.019999999999996      10.039999999999996      13.804999999999996
    34   1       3.764999999999997      8.7849999999999966      16.314999999999998
    35   1       3.764999999999997      10.039999999999996      17.569999999999997
    36   1       5.019999999999996      8.7849999999999966      17.569999999999997
    37   1       5.019999999999996      10.039999999999996      16.314999999999998
    38   1       5.019999999999996      10.039999999999996      18.824999999999996
    39   1       3.764999999999997      12.549999999999997      12.549999999999997
    40   1       5.019999999999996      11.294999999999996      12.549999999999997
    41   1       5.019999999999996      12.549999999999997      11.294999999999996
    42   1       3.764999999999997      11.294999999999996      13.804999999999996
    43   1       3.764999999999997      12.549999999999997      15.059999999999995
    44   1       5.019999999999996      11.294999999999996      15.059999999999995
    45   1       5.019999999999996      12.549999999999997      13.804999999999996
    46   1       3.764999999999997      11.294999999999996      16.314999999999998
    47   1       3.764999999999997      12.549999999999997      17.569999999999997
    48   1       5.019999999999996      11.294999999999996      17.569999999999997
    49   1       5.019999999999996      12.549999999999997      16.314999999999998
    50   1       3.764999999999997      11.294999999999996      18.824999999999996
    51   1       3.764999999999997      12.549999999999997      20.079999999999995
    52   1       5.019999999999996      11.294999999999996      20.079999999999995
    53   1       5.019999999999996      12.549999999999997      18.824999999999996
    54   1       5.019999999999996      12.549999999999997      21.334999999999994
    55   1       3.764999999999997      15.059999999999995      10.039999999999996
    56   1       5.019999999999996      13.804999999999996      10.039999999999996
    57   1       5.019999999999996      15.059999999999995      8.7849999999999966
    58   1       3.764999999999997      13.804999999999996      11.294999999999996
    59   1       3.764999999999997      15.059999999999995      12.549999999999997
    60   1       5.019999999999996      13.804999999999996      12.549999999999997
    61   1       5.019999999999996      15.059999999999995      11.294999999999996
    62   1       3.764999999999997      13.804999999999996      13.804999999999996
    63   1       3.764999999999997      15.059999999999995      15.059999999999995
    64   1       5.019999999999996      13.804999999999996      15.059999999999995
    65   1       5.019999999999996      15.059999999999995      13.804999999999996
    66   1       3.764999999999997      13.804999999999996      16.314999999999998
    67   1       3.764999999999997      15.059999999999995      17.569999999999997
    68   1       5.019999999999996      13.804999999999996      17.569999999999997
    69   1       5.019999999999996      15.059999999999995      16.314999999999998
    70   1       3.764999999999997      13.804999999999996      18.824999999999996
    71   1       3.764999999999997      15.059999999999995      20.079999999999995
    72   1       5.019999999999996      13.804999999999996      20.079999999999995
    73   1       5.019999999999996      15.059999999999995      18.824999999999996
    74   1       3.764999999999997      13.804999999999996      21.334999999999994
    75   1       3.764999999999997      15.059999999999995      22.589999999999993
    76   1       5.019999999999996      13.804999999999996      22.589999999999993
    77   1       5.019999999999996      15.059999999999995      21.334999999999994
    78   1       5.019999999999996      15.059999999999995      23.844999999999995
    79   1       5.019999999999996      16.314999999999998      7.5299999999999976
    80   1       3.764999999999997      16.314999999999998      8.7849999999999966
    81   1       3.764999999999997      17.569999999999997      10.039999999999996
    82   1       5.019999999999996      16.314999999999998      10.039999999999996
    83   1       5.019999999999996      17.569999999999997      8.7849999999999966
    84   1       3.764999999999997      16.314999999999998      11.294999999999996
    85   1       3.764999999999997      17.569999999999997      12.549999999999997
    86   1       5.019999999999996      16.314999999999998      12.549999999999997
    87   1       5.019999999999996      17.569999999999997      11.294999999999996
    88   1       3.764999999999997      16.314999999999998      13.804999999999996
    89   1       3.764999999999997      17.569999999999997      15.059999999999995
    90   1       5.019999999999996      16.314999999999998      15.059999999999995
    91   1       5.019999999999996      17.569999999999997      13.804999999999996
    92   1       3.764999999999997      16.314999999999998      16.314999999999998
    93   1       3.764999999999997      17.569999999999997      17.569999999999997
    94   1       5.019999999999996      16.314999999999998      17.569999999999997
    95   1       5.019999999999996      17.569999999999997      16.314999999999998
    96   1       3.764999999999997      16.314999999999998      18.824999999999996
    97   1       3.764999999999997      17.569999999999997      20.079999999999995
    98   1       5.019999999999996      16.314999999999998      20.079999999999995
    99   1       5.019999999999996      17.569999999999997      18.824999999999996
   100   1       3.764999999999997      16.314999999999998      21.334999999999994
   101   1       3.764999999999997      17.569999999999997      22.589999999999993
   102   1       5.019999999999996      16.314999999999998      22.589999999999993
   103   1       5.019999999999996      17.569999999999997      21.334999999999994
   104   1       3.764999999999997      16.314999999999998      23.844999999999995
   105   1       5.019999999999996      16.314999999999998      25.099999999999994
   106   1       5.019999999999996      17.569999999999997      23.844999999999995
   107   1       5.019999999999996      18.824999999999996      10.039999999999996
   108   1       3.764999999999997      18.824999999999996      11.294999999999996
   109   1       3.764999999999997      20.079999999999995      12.549999999999997
   110   1       5.019999999999996      18.824999999999996      12.549999999999997
   111   1       5.019999999999996      20.079999999999995      11.294999999999996
   112   1       3.764999999999997      18.824999999999996      13.804999999999996
   113   1       3.764999999999997      20.079999999999995      15.059999999999995
   114   1       5.019999999999996      18.824999999999996      15.059999999999995
   115   1       5.019999999999996      20.079999999999995      13.804999999999996
   116   1       3.764999999999997      18.824999999999996      16.314999999999998
   117   1       3.764999999999997      20.079999999999995      17.569999999999997
   118   1       5.019999999999996      18.824999999999996      17.569999999999997
   119   1       5.019999999999996      20.079999999999995      16.314999999999998
   120   1       3.764999999999997      18.824999999999996      18.824999999999996
   121   1       3.764999999999997      20.079999999999995      20.079999999999995
   122   1       5.019999999999996      18.824999999999996      20.079999999999995
   123   1       5.019999999999996      20.079999999999995      18.824999999999996
   124   1       3.764999999999997      18.824999999999996      21.334999999999994
   125   1       5.019999999999996      18.824999999999996      22.589999999999993
   126   1       5.019999999999996      20.079999999999995      21.334999999999994
   127   1       5.019999999999996      21.334999999999994      12.549999999999997
   128   1       3.764999999999997      21.334999999999994      13.804999999999996
   129   1       3.764999999999997      22.589999999999993      15.059999999999995
   130   1       5.019999999999996      21.334999999999994      15.059999999999995
   131   1       5.019999999999996      22.589999999999993      13.804999999999996
   132   1       3.764999999999997      21.334999999999994      16.314999999999998
   133   1       3.764999999999997      22.589999999999993      17.569999999999997
   134   1       5.019999999999996      21.334999999999994      17.569999999999997
   135   1       5.019999999999996      22.589999999999993      16.314999999999998
   136   1       3.764999999999997      21.334999999999994      18.824999999999996
   137   1       5.019999999999996      21.334999999999994      20.079999999999995
   138   1       5.019999999999996      22.589999999999993      18.824999999999996
   139   1       5.019999999999996      23.844999999999995      15.059999999999995
   140   1       3.764999999999997      23.844999999999995      16.314999999999998
   141   1       5.019999999999996      23.844999999999995      17.569999999999997
   142   1       5.019999999999996      25.099999999999994      16.314999999999998
   143   1      7.5299999999999976       5.019999999999996      16.314999999999998
   144   1      7.5299999999999976      7.5299999999999976      11.294999999999996
   145   1      6.2749999999999968      7.5299999999999976      15.059999999999995
   146   1      7.5299999999999976      6.2749999999999968      15.059999999999995
   147   1      7.5299999999999976      7.5299999999999976      13.804999999999996
   148   1      6.2749999999999968      6.2749999999999968      16.314999999999998
   149   1      6.2749999999999968      7.5299999999999976      17.569999999999997
   150   1      7.5299999999999976      6.2749999999999968      17.569999999999997
   151   1      7.5299999999999976      7.5299999999999976      16.314999999999998
   152   1      7.5299999999999976      7.5299999999999976      18.824999999999996
   153   1      7.5299999999999976      7.5299999999999976      21.334999999999994
   154   1      7.5299999999999976      8.7849999999999966      10.039999999999996
   155   1      7.5299999999999976      10.039999999999996      8.7849999999999966
   156   1      6.2749999999999968      10.039999999999996      12.549999999999997
   157   1      7.5299999999999976      8.7849999999999966      12.549999999999997
   158   1      7.5299999999999976      10.039999999999996      11.294999999999996
   159   1      6.2749999999999968      8.7849999999999966      13.804999999999996
   160   1      6.2749999999999968      10.039999999999996      15.059999999999995
   161   1      7.5299999999999976      8.7849999999999966      15.059999999999995
   162   1      7.5299999999999976      10.039999999999996      13.804999999999996
   163   1      6.2749999999999968      8.7849999999999966      16.314999999999998
   164   1      6.2749999999999968      10.039999999999996      17.569999999999997
   165   1      7.5299999999999976      8.7849999999999966      17.569999999999997
   166   1      7.5299999999999976      10.039999999999996      16.314999999999998
   167   1      6.2749999999999968      8.7849999999999966      18.824999999999996
   168   1      6.2749999999999968      10.039999999999996      20.079999999999995
   169   1      7.5299999999999976      8.7849999999999966      20.079999999999995
   170   1      7.5299999999999976      10.039999999999996      18.824999999999996
   171   1      7.5299999999999976      8.7849999999999966      22.589999999999993
   172   1      7.5299999999999976      10.039999999999996      21.334999999999994
   173   1      7.5299999999999976      10.039999999999996      23.844999999999995
   174   1      7.5299999999999976      11.294999999999996      7.5299999999999976
   175   1      6.2749999999999968      12.549999999999997      10.039999999999996
   176   1      7.5299999999999976      11.294999999999996      10.039999999999996
   177   1      7.5299999999999976      12.549999999999997      8.7849999999999966
   178   1      6.2749999999999968      11.294999999999996      11.294999999999996
   179   1      6.2749999999999968      12.549999999999997      12.549999999999997
   180   1      7.5299999999999976      11.294999999999996      12.549999999999997
   181   1      7.5299999999999976      12.549999999999997      11.294999999999996
   182   1      6.2749999999999968      11.294999999999996      13.804999999999996
   183   1      6.2749999999999968      12.549999999999997      15.059999999999995
   184   1      7.5299999999999976      11.294999999999996      15.059999999999995
   185   1      7.5299999999999976      12.549999999999997      13.804999999999996
   186   1      6.2749999999999968      11.294999999999996      16.314999999999998
   187   1      6.2749999999999968      12.549999999999997      17.569999999999997
   188   1      7.5299999999999976      11.294999999999996      17.569999999999997
   189   1      7.5299999999999976      12.549999999999997      16.314999999999998
   190   1      6.2749999999999968      11.294999999999996      18.824999999999996
   191   1      6.2749999999999968      12.549999999999997      20.079999999999995
   192   1      7.5299999999999976      11.294999999999996      20.079999999999995
   193   1      7.5299999999999976      12.549999999999997      18.824999999999996
   194   1      6.2749999999999968      11.294999999999996      21.334999999999994
   195   1      6.2749999999999968      12.549999999999997      22.589999999999993
   196   1      7.5299999999999976      11.294999999999996      22.589999999999993
   197   1      7.5299999999999976      12.549999999999997      21.334999999999994
   198   1      7.5299999999999976      11.294999999999996      25.099999999999994
   199   1      7.5299999999999976      12.549999999999997      23.844999999999995
   200   1      6.2749999999999968      15.059999999999995      7.5299999999999976
   201   1      7.5299999999999976      13.804999999999996      7.5299999999999976
   202   1      7.5299999999999976      15.059999999999995      6.2749999999999968
   203   1      6.2749999999999968      13.804999999999996      8.7849999999999966
   204   1      6.2749999999999968      15.059999999999995      10.039999999999996
   205   1      7.5299999999999976      13.804999999999996      10.039999999999996
   206   1      7.5299999999999976      15.059999999999995      8.7849999999999966
   207   1      6.2749999999999968      13.804999999999996      11.294999999999996
   208   1      6.2749999999999968      15.059999999999995      12.549999999999997
   209   1      7.5299999999999976      13.804999999999996      12.549999999999997
   210   1      7.5299999999999976      15.059999999999995      11.294999999999996
   211   1      6.2749999999999968      13.804999999999996      13.804999999999996
   212   1      6.2749999999999968      15.059999999999995      15.059999999999995
   213   1      7.5299999999999976      13.804999999999996      15.059999999999995
   214   1      7.5299999999999976      15.059999999999995      13.804999999999996
   215   1      6.2749999999999968      13.804999999999996      16.314999999999998
   216   1      6.2749999999999968      15.059999999999995      17.569999999999997
   217   1      7.5299999999999976      13.804999999999996      17.569999999999997
   218   1      7.5299999999999976      15.059999999999995      16.314999999999998
   219   1      6.2749999999999968      13.804999999999996      18.824999999999996
   220   1      6.2749999999999968      15.059999999999995      20.079999999999995
   221   1      7.5299999999999976      13.804999999999996      20.079999999999995
   222   1      7.5299999999999976      15.059999999999995      18.824999999999996
   223   1      6.2749999999999968      13.804999999999996      21.334999999999994
   224   1      6.2749999999999968      15.059999999999995      22.589999999999993
   225   1      7.5299999999999976      13.804999999999996      22.589999999999993
   226   1      7.5299999999999976      15.059999999999995      21.334999999999994
   227   1      6.2749999999999968      13.804999999999996      23.844999999999995
   228   1      6.2749999999999968      15.059999999999995      25.099999999999994
   229   1      7.5299999999999976      13.804999999999996      25.099999999999994
   230   1      7.5299999999999976      15.059999999999995      23.844999999999995
   231   1      7.5299999999999976      15.059999999999995      26.354999999999997
   232   1      7.5299999999999976      16.314999999999998       5.019999999999996
   233   1      6.2749999999999968      16.314999999999998      6.2749999999999968
   234   1      6.2749999999999968      17.569999999999997      7.5299999999999976
   235   1      7.5299999999999976      16.314999999999998      7.5299999999999976
   236   1      7.5299999999999976      17.569999999999997      6.2749999999999968
   237   1      6.2749999999999968      16.314999999999998      8.7849999999999966
   238   1      6.2749999999999968      17.569999999999997      10.039999999999996
   239   1      7.5299999999999976      16.314999999999998      10.039999999999996
   240   1      7.5299999999999976      17.569999999999997      8.7849999999999966
   241   1      6.2749999999999968      16.314999999999998      11.294999999999996
   242   1      6.2749999999999968      17.569999999999997      12.549999999999997
   243   1      7.5299999999999976      16.314999999999998      12.549999999999997
   244   1      7.5299999999999976      17.569999999999997      11.294999999999996
   245   1      6.2749999999999968      16.314999999999998      13.804999999999996
   246   1      6.2749999999999968      17.569999999999997      15.059999999999995
   247   1      7.5299999999999976      16.314999999999998      15.059999999999995
   248   1      7.5299999999999976      17.569999999999997      13.804999999999996
   249   1      6.2749999999999968      16.314999999999998      16.314999999999998
   250   1      6.2749999999999968      17.569999999999997      17.569999999999997
   251   1      7.5299999999999976      16.314999999999998      17.569999999999997
   252   1      7.5299999999999976      17.569999999999997      16.314999999999998
   253   1      6.2749999999999968      16.314999999999998      18.824999999999996
   254   1      6.2749999999999968      17.569999999999997      20.079999999999995
   255   1      7.5299999999999976      16.314999999999998      20.079999999999995
   256   1      7.5299999999999976      17.569999999999997      18.824999999999996
   257   1      6.2749999999999968      16.314999999999998      21.334999999999994
   258   1      6.2749999999999968      17.569999999999997      22.589999999999993
   259   1      7.5299999999999976      16.314999999999998      22.589999999999993
   260   1      7.5299999999999976      17.569999999999997      21.334999999999994
   261   1      6.2749999999999968      16.314999999999998      23.844999999999995
   262   1      6.2749999999999968      17.569999999999997      25.099999999999994
   263   1      7.5299999999999976      16.314999999999998      25.099999999999994
   264   1      7.5299999999999976      17.569999999999997      23.844999999999995
   265   1      6.2749999999999968      16.314999999999998      26.354999999999997
   266   1      7.5299999999999976      16.314999999999998      27.609999999999996
   267   1      7.5299999999999976      17.569999999999997      26.354999999999997
   268   1      7.5299999999999976      18.824999999999996      7.5299999999999976
   269   1      6.2749999999999968      18.824999999999996      8.7849999999999966
   270   1      6.2749999999999968      20.079999999999995      10.039999999999996
   271   1      7.5299999999999976      18.824999999999996      10.039999999999996
   272   1      7.5299999999999976      20.079999999999995      8.7849999999999966
   273   1      6.2749999999999968      18.824999999999996      11.294999999999996
   274   1      6.2749999999999968      20.079999999999995      12.549999999999997
   275   1      7.5299999999999976      18.824999999999996      12.549999999999997
   276   1      7.5299999999999976      20.079999999999995      11.294999999999996
   277   1      6.2749999999999968      18.824999999999996      13.804999999999996
   278   1      6.2749999999999968      20.079999999999995      15.059999999999995
   279   1      7.5299999999999976      18.824999999999996      15.059999999999995
   280   1      7.5299999999999976      20.079999999999995      13.804999999999996
   281   1      6.2749999999999968      18.824999999999996      16.314999999999998
   282   1      6.2749999999999968      20.079999999999995      17.569999999999997
   283   1      7.5299999999999976      18.824999999999996      17.569999999999997
   284   1      7.5299999999999976      20.079999999999995      16.314999999999998
   285   1      6.2749999999999968      18.824999999999996      18.824999999999996
   286   1      6.2749999999999968      20.079999999999995      20.079999999999995
   287   1      7.5299999999999976      18.824999999999996      20.079999999999995
   288   1      7.5299999999999976      20.079999999999995      18.824999999999996
   289   1      6.2749999999999968      18.824999999999996      21.334999999999994
   290   1      6.2749999999999968      20.079999999999995      22.589999999999993
   291   1      7.5299999999999976      18.824999999999996      22.589999999999993
   292   1      7.5299999999999976      20.079999999999995      21.334999999999994
   293   1      6.2749999999999968      18.824999999999996      23.844999999999995
   294   1      7.5299999999999976      18.824999999999996      25.099999999999994
   295   1      7.5299999999999976      20.079999999999995      23.844999999999995
   296   1      7.5299999999999976      21.334999999999994      7.5299999999999976
   297   1      7.5299999999999976      21.334999999999994      10.039999999999996
   298   1      7.5299999999999976      22.589999999999993      8.7849999999999966
   299   1      6.2749999999999968      21.334999999999994      11.294999999999996
   300   1      6.2749999999999968      22.589999999999993      12.549999999999997
   301   1      7.5299999999999976      21.334999999999994      12.549999999999997
   302   1      7.5299999999999976      22.589999999999993      11.294999999999996
   303   1      6.2749999999999968      21.334999999999994      13.804999999999996
   304   1      6.2749999999999968      22.589999999999993      15.059999999999995
   305   1      7.5299999999999976      21.334999999999994      15.059999999999995
   306   1      7.5299999999999976      22.589999999999993      13.804999999999996
   307   1      6.2749999999999968      21.334999999999994      16.314999999999998
   308   1      6.2749999999999968      22.589999999999993      17.569999999999997
   309   1      7.5299999999999976      21.334999999999994      17.569999999999997
   310   1      7.5299999999999976      22.589999999999993      16.314999999999998
   311   1      6.2749999999999968      21.334999999999994      18.824999999999996
   312   1      6.2749999999999968      22.589999999999993      20.079999999999995
   313   1      7.5299999999999976      21.334999999999994      20.079999999999995
   314   1      7.5299999999999976      22.589999999999993      18.824999999999996
   315   1      6.2749999999999968      21.334999999999994      21.334999999999994
   316   1      7.5299999999999976      21.334999999999994      22.589999999999993
   317   1      7.5299999999999976      22.589999999999993      21.334999999999994
   318   1      7.5299999999999976      21.334999999999994      25.099999999999994
   319   1      7.5299999999999976      22.589999999999993      23.844999999999995
   320   1      7.5299999999999976      23.844999999999995      10.039999999999996
   321   1      7.5299999999999976      23.844999999999995      12.549999999999997
   322   1      7.5299999999999976      25.099999999999994      11.294999999999996
   323   1      6.2749999999999968      23.844999999999995      13.804999999999996
   324   1      6.2749999999999968      25.099999999999994      15.059999999999995
   325   1      7.5299999999999976      23.844999999999995      15.059999999999995
   326   1      7.5299999999999976      25.099999999999994      13.804999999999996
   327   1      6.2749999999999968      23.844999999999995      16.314999999999998
   328   1      6.2749999999999968      25.099999999999994      17.569999999999997
   329   1      7.5299999999999976      23.844999999999995      17.569999999999997
   330   1      7.5299999999999976      25.099999999999994      16.314999999999998
   331   1      6.2749999999999968      23.844999999999995      18.824999999999996
   332   1      7.5299999999999976      23.844999999999995      20.079999999999995
   333   1      7.5299999999999976      25.099999999999994      18.824999999999996
   334   1      7.5299999999999976      23.844999999999995      22.589999999999993
   335   1      7.5299999999999976      25.099999999999994      21.334999999999994
   336   1      7.5299999999999976      26.354999999999997      15.059999999999995
   337   1      6.2749999999999968      26.354999999999997      16.314999999999998
   338   1      7.5299999999999976      26.354999999999997      17.569999999999997
   339   1      7.5299999999999976      27.609999999999996      16.314999999999998
   340   1      8.7849999999999966       5.019999999999996      15.059999999999995
   341   1      10.039999999999996       3.764999999999997      15.059999999999995
   342   1      10.039999999999996       5.019999999999996      13.804999999999996
   343   1      8.7849999999999966       3.764999999999997      16.314999999999998
   344   1      8.7849999999999966       5.019999999999996      17.569999999999997
   345   1      10.039999999999996       3.764999999999997      17.569999999999997
   346   1      10.039999999999996       5.019999999999996      16.314999999999998
   347   1      10.039999999999996       5.019999999999996      18.824999999999996
   348   1      8.7849999999999966      7.5299999999999976      10.039999999999996
   349   1      10.039999999999996      7.5299999999999976      8.7849999999999966
   350   1      8.7849999999999966      7.5299999999999976      12.549999999999997
   351   1      10.039999999999996      6.2749999999999968      12.549999999999997
   352   1      10.039999999999996      7.5299999999999976      11.294999999999996
   353   1      8.7849999999999966      6.2749999999999968      13.804999999999996
   354   1      8.7849999999999966      7.5299999999999976      15.059999999999995
   355   1      10.039999999999996      6.2749999999999968      15.059999999999995
   356   1      10.039999999999996      7.5299999999999976      13.804999999999996
   357   1      8.7849999999999966      6.2749999999999968      16.314999999999998
   358   1      8.7849999999999966      7.5299999999999976      17.569999999999997