model_files/CuFeNi/CuFeNi_30000/CuFeNi_100/CuFeNi_100_fcc_29659_temp.data (written by ASE) 

29659 	 atoms 
3  atom types
0.0                      68  xlo xhi
0.0                      68  ylo yhi
0.0                      68  zlo zhi


Atoms 

     1   1  7.1054273576010019e-15  7.1054273576010019e-15      1.7900000000000063
     2   1  7.1054273576010019e-15  7.1054273576010019e-15      5.3700000000000081
     3   1  7.1054273576010019e-15  7.1054273576010019e-15      8.9500000000000099
     4   1  7.1054273576010019e-15  7.1054273576010019e-15      12.530000000000008
     5   1  7.1054273576010019e-15  7.1054273576010019e-15      16.110000000000007
     6   1  7.1054273576010019e-15  7.1054273576010019e-15      19.690000000000008
     7   1  7.1054273576010019e-15  7.1054273576010019e-15       23.27000000000001
     8   1  7.1054273576010019e-15  7.1054273576010019e-15      26.850000000000005
     9   1  7.1054273576010019e-15  7.1054273576010019e-15      30.430000000000007
    10   1  7.1054273576010019e-15  7.1054273576010019e-15      34.010000000000005
    11   1  7.1054273576010019e-15  7.1054273576010019e-15      37.590000000000011
    12   1  7.1054273576010019e-15  7.1054273576010019e-15      41.170000000000009
    13   1  7.1054273576010019e-15  7.1054273576010019e-15      44.750000000000007
    14   1  7.1054273576010019e-15  7.1054273576010019e-15      48.330000000000013
    15   1  7.1054273576010019e-15  7.1054273576010019e-15      51.910000000000011
    16   1  7.1054273576010019e-15  7.1054273576010019e-15      55.490000000000009
    17   1  7.1054273576010019e-15  7.1054273576010019e-15      59.070000000000007
    18   1  7.1054273576010019e-15  7.1054273576010019e-15      62.650000000000006
    19   1  7.1054273576010019e-15  7.1054273576010019e-15      66.230000000000004
    20   1  7.1054273576010019e-15      1.7900000000000063  7.1054273576010019e-15
    21   1  7.1054273576010019e-15      1.7900000000000063      3.5800000000000085
    22   1  7.1054273576010019e-15      3.5800000000000085      1.7900000000000063
    23   1  7.1054273576010019e-15      1.7900000000000063      7.1600000000000072
    24   1  7.1054273576010019e-15      3.5800000000000085      5.3700000000000081
    25   1  7.1054273576010019e-15      1.7900000000000063      10.740000000000009
    26   1  7.1054273576010019e-15      3.5800000000000085      8.9500000000000099
    27   1  7.1054273576010019e-15      1.7900000000000063      14.320000000000007
    28   1  7.1054273576010019e-15      3.5800000000000085      12.530000000000008
    29   1  7.1054273576010019e-15      1.7900000000000063      17.900000000000006
    30   1  7.1054273576010019e-15      3.5800000000000085      16.110000000000007
    31   1  7.1054273576010019e-15      1.7900000000000063      21.480000000000008
    32   1  7.1054273576010019e-15      3.5800000000000085      19.690000000000008
    33   1  7.1054273576010019e-15      1.7900000000000063      25.060000000000009
    34   1  7.1054273576010019e-15      3.5800000000000085       23.27000000000001
    35   1  7.1054273576010019e-15      1.7900000000000063      28.640000000000004
    36   1  7.1054273576010019e-15      3.5800000000000085      26.850000000000005
    37   1  7.1054273576010019e-15      1.7900000000000063      32.220000000000006
    38   1  7.1054273576010019e-15      3.5800000000000085      30.430000000000007
    39   1  7.1054273576010019e-15      1.7900000000000063      35.800000000000004
    40   1  7.1054273576010019e-15      3.5800000000000085      34.010000000000005
    41   1  7.1054273576010019e-15      1.7900000000000063       39.38000000000001
    42   1  7.1054273576010019e-15      3.5800000000000085      37.590000000000011
    43   1  7.1054273576010019e-15      1.7900000000000063      42.960000000000008
    44   1  7.1054273576010019e-15      3.5800000000000085      41.170000000000009
    45   1  7.1054273576010019e-15      1.7900000000000063      46.539999999999999
    46   1  7.1054273576010019e-15      3.5800000000000085      44.750000000000007
    47   1  7.1054273576010019e-15      1.7900000000000063      50.120000000000005
    48   1  7.1054273576010019e-15      3.5800000000000085      48.330000000000013
    49   1  7.1054273576010019e-15      1.7900000000000063      53.700000000000003
    50   1  7.1054273576010019e-15      3.5800000000000085      51.910000000000011
    51   1  7.1054273576010019e-15      1.7900000000000063      57.280000000000008
    52   1  7.1054273576010019e-15      3.5800000000000085      55.490000000000009
    53   1  7.1054273576010019e-15      1.7900000000000063      60.860000000000007
    54   1  7.1054273576010019e-15      3.5800000000000085      59.070000000000007
    55   1  7.1054273576010019e-15      1.7900000000000063      64.440000000000012
    56   1  7.1054273576010019e-15      3.5800000000000085      62.650000000000006
    57   1  7.1054273576010019e-15      1.7900000000000063    0.020000000000011942
    58   1  7.1054273576010019e-15      3.5800000000000085      66.230000000000004
    59   1  7.1054273576010019e-15      5.3700000000000081  7.1054273576010019e-15
    60   1  7.1054273576010019e-15      5.3700000000000081      3.5800000000000085
    61   1  7.1054273576010019e-15      7.1600000000000072      1.7900000000000063
    62   1  7.1054273576010019e-15      5.3700000000000081      7.1600000000000072
    63   1  7.1054273576010019e-15      7.1600000000000072      5.3700000000000081
    64   1  7.1054273576010019e-15      5.3700000000000081      10.740000000000009
    65   1  7.1054273576010019e-15      7.1600000000000072      8.9500000000000099
    66   1  7.1054273576010019e-15      5.3700000000000081      14.320000000000007
    67   1  7.1054273576010019e-15      7.1600000000000072      12.530000000000008
    68   1  7.1054273576010019e-15      5.3700000000000081      17.900000000000006
    69   1  7.1054273576010019e-15      7.1600000000000072      16.110000000000007
    70   1  7.1054273576010019e-15      5.3700000000000081      21.480000000000008
    71   1  7.1054273576010019e-15      7.1600000000000072      19.690000000000008
    72   1  7.1054273576010019e-15      5.3700000000000081      25.060000000000009
    73   1  7.1054273576010019e-15      7.1600000000000072       23.27000000000001
    74   1  7.1054273576010019e-15      5.3700000000000081      28.640000000000004
    75   1  7.1054273576010019e-15      7.1600000000000072      26.850000000000005
    76   1  7.1054273576010019e-15      5.3700000000000081      32.220000000000006
    77   1  7.1054273576010019e-15      7.1600000000000072      30.430000000000007
    78   1  7.1054273576010019e-15      5.3700000000000081      35.800000000000004
    79   1  7.1054273576010019e-15      7.1600000000000072      34.010000000000005
    80   1  7.1054273576010019e-15      5.3700000000000081       39.38000000000001
    81   1  7.1054273576010019e-15      7.1600000000000072      37.590000000000011
    82   1  7.1054273576010019e-15      5.3700000000000081      42.960000000000008
    83   1  7.1054273576010019e-15      7.1600000000000072      41.170000000000009
    84   1  7.1054273576010019e-15      5.3700000000000081      46.539999999999999
    85   1  7.1054273576010019e-15      7.1600000000000072      44.750000000000007
    86   1  7.1054273576010019e-15      5.3700000000000081      50.120000000000005
    87   1  7.1054273576010019e-15      7.1600000000000072      48.330000000000013
    88   1  7.1054273576010019e-15      5.3700000000000081      53.700000000000003
    89   1  7.1054273576010019e-15      7.1600000000000072      51.910000000000011
    90   1  7.1054273576010019e-15      5.3700000000000081      57.280000000000008
    91   1  7.1054273576010019e-15      7.1600000000000072      55.490000000000009
    92   1  7.1054273576010019e-15      5.3700000000000081      60.860000000000007
    93   1  7.1054273576010019e-15      7.1600000000000072      59.070000000000007
    94   1  7.1054273576010019e-15      5.3700000000000081      64.440000000000012
    95   1  7.1054273576010019e-15      7.1600000000000072      62.650000000000006
    96   1  7.1054273576010019e-15      5.3700000000000081    0.020000000000011942
    97   1  7.1054273576010019e-15      7.1600000000000072      66.230000000000004
    98   1  7.1054273576010019e-15      8.9500000000000099  7.1054273576010019e-15
    99   1  7.1054273576010019e-15      8.9500000000000099      3.5800000000000085
   100   1  7.1054273576010019e-15      10.740000000000009      1.7900000000000063
   101   1  7.1054273576010019e-15      8.9500000000000099      7.1600000000000072
   102   1  7.1054273576010019e-15      10.740000000000009      5.3700000000000081
   103   1  7.1054273576010019e-15      8.9500000000000099      10.740000000000009
   104   1  7.1054273576010019e-15      10.740000000000009      8.9500000000000099
   105   1  7.1054273576010019e-15      8.9500000000000099      14.320000000000007
   106   1  7.1054273576010019e-15      10.740000000000009      12.530000000000008
   107   1  7.1054273576010019e-15      8.9500000000000099      17.900000000000006
   108   1  7.1054273576010019e-15      10.740000000000009      16.110000000000007
   109   1  7.1054273576010019e-15      8.9500000000000099      21.480000000000008
   110   1  7.1054273576010019e-15      10.740000000000009      19.690000000000008
   111   1  7.1054273576010019e-15      8.9500000000000099      25.060000000000009
   112   1  7.1054273576010019e-15      10.740000000000009       23.27000000000001
   113   1  7.1054273576010019e-15      8.9500000000000099      28.640000000000004
   114   1  7.1054273576010019e-15      10.740000000000009      26.850000000000005
   115   1  7.1054273576010019e-15      8.9500000000000099      32.220000000000006
   116   1  7.1054273576010019e-15      10.740000000000009      30.430000000000007
   117   1  7.1054273576010019e-15      8.9500000000000099      35.800000000000004
   118   1  7.1054273576010019e-15      10.740000000000009      34.010000000000005
   119   1  7.1054273576010019e-15      8.9500000000000099       39.38000000000001
   120   1  7.1054273576010019e-15      10.740000000000009      37.590000000000011
   121   1  7.1054273576010019e-15      8.9500000000000099      42.960000000000008
   122   1  7.1054273576010019e-15      10.740000000000009      41.170000000000009
   123   1  7.1054273576010019e-15      8.9500000000000099      46.539999999999999
   124   1  7.1054273576010019e-15      10.740000000000009      44.750000000000007
   125   1  7.1054273576010019e-15      8.9500000000000099      50.120000000000005
   126   1  7.1054273576010019e-15      10.740000000000009      48.330000000000013
   127   1  7.1054273576010019e-15      8.9500000000000099      53.700000000000003
   128   1  7.1054273576010019e-15      10.740000000000009      51.910000000000011
   129   1  7.1054273576010019e-15      8.9500000000000099      57.280000000000008
   130   1  7.1054273576010019e-15      10.740000000000009      55.490000000000009
   131   1  7.1054273576010019e-15      8.9500000000000099      60.860000000000007
   132   1  7.1054273576010019e-15      10.740000000000009      59.070000000000007
   133   1  7.1054273576010019e-15      8.9500000000000099      64.440000000000012
   134   1  7.1054273576010019e-15      10.740000000000009      62.650000000000006
   135   1  7.1054273576010019e-15      8.9500000000000099    0.020000000000011942
   136   1  7.1054273576010019e-15      10.740000000000009      66.230000000000004
   137   1  7.1054273576010019e-15      12.530000000000008  7.1054273576010019e-15
   138   1  7.1054273576010019e-15      12.530000000000008      3.5800000000000085
   139   1  7.1054273576010019e-15      14.320000000000007      1.7900000000000063
   140   1  7.1054273576010019e-15      12.530000000000008      7.1600000000000072
   141   1  7.1054273576010019e-15      14.320000000000007      5.3700000000000081
   142   1  7.1054273576010019e-15      12.530000000000008      10.740000000000009
   143   1  7.1054273576010019e-15      14.320000000000007      8.9500000000000099
   144   1  7.1054273576010019e-15      12.530000000000008      14.320000000000007
   145   1  7.1054273576010019e-15      14.320000000000007      12.530000000000008
   146   1  7.1054273576010019e-15      12.530000000000008      17.900000000000006
   147   1  7.1054273576010019e-15      14.320000000000007      16.110000000000007
   148   1  7.1054273576010019e-15      12.530000000000008      21.480000000000008
   149   1  7.1054273576010019e-15      14.320000000000007      19.690000000000008
   150   1  7.1054273576010019e-15      12.530000000000008      25.060000000000009
   151   1  7.1054273576010019e-15      14.320000000000007       23.27000000000001
   152   1  7.1054273576010019e-15      12.530000000000008      28.640000000000004
   153   1  7.1054273576010019e-15      14.320000000000007      26.850000000000005
   154   1  7.1054273576010019e-15      12.530000000000008      32.220000000000006
   155   1  7.1054273576010019e-15      14.320000000000007      30.430000000000007
   156   1  7.1054273576010019e-15      12.530000000000008      35.800000000000004
   157   1  7.1054273576010019e-15      14.320000000000007      34.010000000000005
   158   1  7.1054273576010019e-15      12.530000000000008       39.38000000000001
   159   1  7.1054273576010019e-15      14.320000000000007      37.590000000000011
   160   1  7.1054273576010019e-15      12.530000000000008      42.960000000000008
   161   1  7.1054273576010019e-15      14.320000000000007      41.170000000000009
   162   1  7.1054273576010019e-15      12.530000000000008      46.539999999999999
   163   1  7.1054273576010019e-15      14.320000000000007      44.750000000000007
   164   1  7.1054273576010019e-15      12.530000000000008      50.120000000000005
   165   1  7.1054273576010019e-15      14.320000000000007      48.330000000000013
   166   1  7.1054273576010019e-15      12.530000000000008      53.700000000000003
   167   1  7.1054273576010019e-15      14.320000000000007      51.910000000000011
   168   1  7.1054273576010019e-15      12.530000000000008      57.280000000000008
   169   1  7.1054273576010019e-15      14.320000000000007      55.490000000000009
   170   1  7.1054273576010019e-15      12.530000000000008      60.860000000000007
   171   1  7.1054273576010019e-15      14.320000000000007      59.070000000000007
   172   1  7.1054273576010019e-15      12.530000000000008      64.440000000000012
   173   1  7.1054273576010019e-15      14.320000000000007      62.650000000000006
   174   1  7.1054273576010019e-15      12.530000000000008    0.020000000000011942
   175   1  7.1054273576010019e-15      14.320000000000007      66.230000000000004
   176   1  7.1054273576010019e-15      16.110000000000007  7.1054273576010019e-15
   177   1  7.1054273576010019e-15      16.110000000000007      3.5800000000000085
   178   1  7.1054273576010019e-15      17.900000000000006      1.7900000000000063
   179   1  7.1054273576010019e-15      16.110000000000007      7.1600000000000072
   180   1  7.1054273576010019e-15      17.900000000000006      5.3700000000000081
   181   1  7.1054273576010019e-15      16.110000000000007      10.740000000000009
   182   1  7.1054273576010019e-15      17.900000000000006      8.9500000000000099
   183   1  7.1054273576010019e-15      16.110000000000007      14.320000000000007
   184   1  7.1054273576010019e-15      17.900000000000006      12.530000000000008
   185   1  7.1054273576010019e-15      16.110000000000007      17.900000000000006
   186   1  7.1054273576010019e-15      17.900000000000006      16.110000000000007
   187   1  7.1054273576010019e-15      16.110000000000007      21.480000000000008
   188   1  7.1054273576010019e-15      17.900000000000006      19.690000000000008
   189   1  7.1054273576010019e-15      16.110000000000007      25.060000000000009
   190   1  7.1054273576010019e-15      17.900000000000006       23.27000000000001
   191   1  7.1054273576010019e-15      16.110000000000007      28.640000000000004
   192   1  7.1054273576010019e-15      17.900000000000006      26.850000000000005
   193   1  7.1054273576010019e-15      16.110000000000007      32.220000000000006
   194   1  7.1054273576010019e-15      17.900000000000006      30.430000000000007
   195   1  7.1054273576010019e-15      16.110000000000007      35.800000000000004
   196   1  7.1054273576010019e-15      17.900000000000006      34.010000000000005
   197   1  7.1054273576010019e-15      16.110000000000007       39.38000000000001
   198   1  7.1054273576010019e-15      17.900000000000006      37.590000000000011
   199   1  7.1054273576010019e-15      16.110000000000007      42.960000000000008
   200   1  7.1054273576010019e-15      17.900000000000006      41.170000000000009
   201   1  7.1054273576010019e-15      16.110000000000007      46.539999999999999
   202   1  7.1054273576010019e-15      17.900000000000006      44.750000000000007
   203   1  7.1054273576010019e-15      16.110000000000007      50.120000000000005
   204   1  7.1054273576010019e-15      17.900000000000006      48.330000000000013
   205   1  7.1054273576010019e-15      16.110000000000007      53.700000000000003
   206   1  7.1054273576010019e-15      17.900000000000006      51.910000000000011
   207   1  7.1054273576010019e-15      16.110000000000007      57.280000000000008
   208   1  7.1054273576010019e-15      17.900000000000006      55.490000000000009
   209   1  7.1054273576010019e-15      16.110000000000007      60.860000000000007
   210   1  7.1054273576010019e-15      17.900000000000006      59.070000000000007
   211   1  7.1054273576010019e-15      16.110000000000007      64.440000000000012
   212   1  7.1054273576010019e-15      17.900000000000006      62.650000000000006
   213   1  7.1054273576010019e-15      16.110000000000007    0.020000000000011942
   214   1  7.1054273576010019e-15      17.900000000000006      66.230000000000004
   215   1  7.1054273576010019e-15      19.690000000000008  7.1054273576010019e-15
   216   1  7.1054273576010019e-15      19.690000000000008      3.5800000000000085
   217   1  7.1054273576010019e-15      21.480000000000008      1.7900000000000063
   218   1  7.1054273576010019e-15      19.690000000000008      7.1600000000000072
   219   1  7.1054273576010019e-15      21.480000000000008      5.3700000000000081
   220   1  7.1054273576010019e-15      19.690000000000008      10.740000000000009
   221   1  7.1054273576010019e-15      21.480000000000008      8.9500000000000099
   222   1  7.1054273576010019e-15      19.690000000000008      14.320000000000007
   223   1  7.1054273576010019e-15      21.480000000000008      12.530000000000008
   224   1  7.1054273576010019e-15      19.690000000000008      17.900000000000006
   225   1  7.1054273576010019e-15      21.480000000000008      16.110000000000007
   226   1  7.1054273576010019e-15      19.690000000000008      21.480000000000008
   227   1  7.1054273576010019e-15      21.480000000000008      19.690000000000008
   228   1  7.1054273576010019e-15      19.690000000000008      25.060000000000009
   229   1  7.1054273576010019e-15      21.480000000000008       23.27000000000001
   230   1  7.1054273576010019e-15      19.690000000000008      28.640000000000004
   231   1  7.1054273576010019e-15      21.480000000000008      26.850000000000005
   232   1  7.1054273576010019e-15      19.690000000000008      32.220000000000006
   233   1  7.1054273576010019e-15      21.480000000000008      30.430000000000007
   234   1  7.1054273576010019e-15      19.690000000000008      35.800000000000004
   235   1  7.1054273576010019e-15      21.480000000000008      34.010000000000005
   236   1  7.1054273576010019e-15      19.690000000000008       39.38000000000001
   237   1  7.1054273576010019e-15      21.480000000000008      37.590000000000011
   238   1  7.1054273576010019e-15      19.690000000000008      42.960000000000008
   239   1  7.1054273576010019e-15      21.480000000000008      41.170000000000009
   240   1  7.1054273576010019e-15      19.690000000000008      46.539999999999999
   241   1  7.1054273576010019e-15      21.480000000000008      44.750000000000007
   242   1  7.1054273576010019e-15      19.690000000000008      50.120000000000005
   243   1  7.1054273576010019e-15      21.480000000000008      48.330000000000013
   244   1  7.1054273576010019e-15      19.690000000000008      53.700000000000003
   245   1  7.1054273576010019e-15      21.480000000000008      51.910000000000011
   246   1  7.1054273576010019e-15      19.690000000000008      57.280000000000008
   247   1  7.1054273576010019e-15      21.480000000000008      55.490000000000009
   248   1  7.1054273576010019e-15      19.690000000000008      60.860000000000007
   249   1  7.1054273576010019e-15      21.480000000000008      59.070000000000007
   250   1  7.1054273576010019e-15      19.690000000000008      64.440000000000012
   251   1  7.1054273576010019e-15      21.480000000000008      62.650000000000006
   252   1  7.1054273576010019e-15      19.690000000000008    0.020000000000011942
   253   1  7.1054273576010019e-15      21.480000000000008      66.230000000000004
   254   1  7.1054273576010019e-15       23.27000000000001  7.1054273576010019e-15
   255   1  7.1054273576010019e-15       23.27000000000001      3.5800000000000085
   256   1  7.1054273576010019e-15      25.060000000000009      1.7900000000000063
   257   1  7.1054273576010019e-15       23.27000000000001      7.1600000000000072
   258   1  7.1054273576010019e-15      25.060000000000009      5.3700000000000081
   259   1  7.1054273576010019e-15       23.27000000000001      10.740000000000009
   260   1  7.1054273576010019e-15      25.060000000000009      8.9500000000000099
   261   1  7.1054273576010019e-15       23.27000000000001      14.320000000000007
   262   1  7.1054273576010019e-15      25.060000000000009      12.530000000000008
   263   1  7.1054273576010019e-15       23.27000000000001      17.900000000000006
   264   1  7.1054273576010019e-15      25.060000000000009      16.110000000000007
   265   1  7.1054273576010019e-15       23.27000000000001      21.480000000000008
   266   1  7.1054273576010019e-15      25.060000000000009      19.690000000000008
   267   1  7.1054273576010019e-15       23.27000000000001      25.060000000000009
   268   1  7.1054273576010019e-15      25.060000000000009       23.27000000000001
   269   1  7.1054273576010019e-15       23.27000000000001      28.640000000000004
   270   1  7.1054273576010019e-15      25.060000000000009      26.850000000000005
   271   1  7.1054273576010019e-15       23.27000000000001      32.220000000000006
   272   1  7.1054273576010019e-15      25.060000000000009      30.430000000000007
   273   1  7.1054273576010019e-15       23.27000000000001      35.800000000000004
   274   1  7.1054273576010019e-15      25.060000000000009      34.010000000000005
   275   1  7.1054273576010019e-15       23.27000000000001       39.38000000000001
   276   1  7.1054273576010019e-15      25.060000000000009      37.590000000000011
   277   1  7.1054273576010019e-15       23.27000000000001      42.960000000000008
   278   1  7.1054273576010019e-15      25.060000000000009      41.170000000000009
   279   1  7.1054273576010019e-15       23.27000000000001      46.539999999999999
   280   1  7.1054273576010019e-15      25.060000000000009      44.750000000000007
   281   1  7.1054273576010019e-15       23.27000000000001      50.120000000000005
   282   1  7.1054273576010019e-15      25.060000000000009      48.330000000000013
   283   1  7.1054273576010019e-15       23.27000000000001      53.700000000000003
   284   1  7.1054273576010019e-15      25.060000000000009      51.910000000000011
   285   1  7.1054273576010019e-15       23.27000000000001      57.280000000000008
   286   1  7.1054273576010019e-15      25.060000000000009      55.490000000000009
   287   1  7.1054273576010019e-15       23.27000000000001      60.860000000000007
   288   1  7.1054273576010019e-15      25.060000000000009      59.070000000000007
   289   1  7.1054273576010019e-15       23.27000000000001      64.440000000000012
   290   1  7.1054273576010019e-15      25.060000000000009      62.650000000000006
   291   1  7.1054273576010019e-15       23.27000000000001    0.020000000000011942
   292   1  7.1054273576010019e-15      25.060000000000009      66.230000000000004
   293   1  7.1054273576010019e-15      26.850000000000005  7.1054273576010019e-15
   294   1  7.1054273576010019e-15      26.850000000000005      3.5800000000000085
   295   1  7.1054273576010019e-15      28.640000000000004      1.7900000000000063
   296   1  7.1054273576010019e-15      26.850000000000005      7.1600000000000072
   297   1  7.1054273576010019e-15      28.640000000000004      5.3700000000000081
   298   1  7.1054273576010019e-15      26.850000000000005      10.740000000000009
   299   1  7.1054273576010019e-15      28.640000000000004      8.9500000000000099
   300   1  7.1054273576010019e-15      26.850000000000005      14.320000000000007
   301   1  7.1054273576010019e-15      28.640000000000004      12.530000000000008
   302   1  7.1054273576010019e-15      26.850000000000005      17.900000000000006
   303   1  7.1054273576010019e-15      28.640000000000004      16.110000000000007
   304   1  7.1054273576010019e-15      26.850000000000005      21.480000000000008
   305   1  7.1054273576010019e-15      28.640000000000004      19.690000000000008
   306   1  7.1054273576010019e-15      26.850000000000005      25.060000000000009
   307   1  7.1054273576010019e-15      28.640000000000004       23.27000000000001
   308   1  7.1054273576010019e-15      26.850000000000005      28.640000000000004
   309   1  7.1054273576010019e-15      28.640000000000004      26.850000000000005
   310   1  7.1054273576010019e-15      26.850000000000005      32.220000000000006
   311   1  7.1054273576010019e-15      28.640000000000004      30.430000000000007
   312   1  7.1054273576010019e-15      26.850000000000005      35.800000000000004
   313   1  7.1054273576010019e-15      28.640000000000004      34.010000000000005
   314   1  7.1054273576010019e-15      26.850000000000005       39.38000000000001
   315   1  7.1054273576010019e-15      28.640000000000004      37.590000000000011
   316   1  7.1054273576010019e-15      26.850000000000005      42.960000000000008
   317   1  7.1054273576010019e-15      28.640000000000004      41.170000000000009
   318   1  7.1054273576010019e-15      26.850000000000005      46.539999999999999
   319   1  7.1054273576010019e-15      28.640000000000004      44.750000000000007
   320   1  7.1054273576010019e-15      26.850000000000005      50.120000000000005
   321   1  7.1054273576010019e-15      28.640000000000004      48.330000000000013
   322   1  7.1054273576010019e-15      26.850000000000005      53.700000000000003
   323   1  7.1054273576010019e-15      28.640000000000004      51.910000000000011
   324   1  7.1054273576010019e-15      26.850000000000005      57.280000000000008
   325   1  7.1054273576010019e-15      28.640000000000004      55.490000000000009
   326   1  7.1054273576010019e-15      26.850000000000005      60.860000000000007
   327   1  7.1054273576010019e-15      28.640000000000004      59.070000000000007
   328   1  7.1054273576010019e-15      26.850000000000005      64.440000000000012
   329   1  7.1054273576010019e-15      28.640000000000004      62.650000000000006
   330   1  7.1054273576010019e-15      26.850000000000005    0.020000000000011942
   331   1  7.1054273576010019e-15      28.640000000000004      66.230000000000004
   332   1  7.1054273576010019e-15      30.430000000000007  7.1054273576010019e-15
   333   1  7.1054273576010019e-15      30.430000000000007      3.5800000000000085
   334   1  7.1054273576010019e-15      32.220000000000006      1.7900000000000063
   335   1  7.1054273576010019e-15      30.430000000000007      7.1600000000000072
   336   1  7.1054273576010019e-15      32.220000000000006      5.3700000000000081
   337   1  7.1054273576010019e-15      30.430000000000007      10.740000000000009
   338   1  7.1054273576010019e-15      32.220000000000006      8.9500000000000099
   339   1  7.1054273576010019e-15      30.430000000000007      14.320000000000007
   340   1  7.1054273576010019e-15      32.220000000000006      12.530000000000008
   341   1  7.1054273576010019e-15      30.430000000000007      17.900000000000006
   342   1  7.1054273576010019e-15      32.220000000000006      16.110000000000007
   343   1  7.1054273576010019e-15      30.430000000000007      21.480000000000008
   344   1  7.1054273576010019e-15      32.220000000000006      19.690000000000008
   345   1  7.1054273576010019e-15      30.430000000000007      25.060000000000009
   346   1  7.1054273576010019e-15      32.220000000000006       23.27000000000001
   347   1  7.1054273576010019e-15      30.430000000000007      28.640000000000004
   348   1  7.1054273576010019e-15      32.220000000000006      26.850000000000005
   349   1  7.1054273576010019e-15      30.430000000000007      32.220000000000006
   350   1  7.1054273576010019e-15      32.220000000000006      30.430000000000007
   351   1  7.1054273576010019e-15      30.430000000000007      35.800000000000004
   352   1  7.1054273576010019e-15      32.220000000000006      34.010000000000005
   353   1  7.1054273576010019e-15      30.430000000000007       39.38000000000001
   354   1  7.1054273576010019e-15      32.220000000000006      37.590000000000011
   355   1  7.1054273576010019e-15      30.430000000000007      42.960000000000008
   356   1  7.1054273576010019e-15      32.220000000000006      41.170000000000009
   357   1  7.1054273576010019e-15      30.430000000000007      46.539999999999999
   358   1  7.1054273576010019e-15      32.220000000000006      44.750000000000007