model_files/PtCo/PtCo_30000/PtCo_411/PtCo_411_fcc_29957_temp.data (written by ASE) 

29957 	 atoms 
2  atom types
0.0                      89  xlo xhi
0.0                      89  ylo yhi
0.0                      89  zlo zhi


Atoms 

     1   1      1.8250000000000099       38.32500000000001      43.800000000000004
     2   1      1.8250000000000099      40.150000000000006      41.975000000000009
     3   1      1.8250000000000099      41.975000000000009      40.150000000000006
     4   1      1.8250000000000099      40.150000000000006      45.625000000000007
     5   1      1.8250000000000099      41.975000000000009      43.800000000000004
     6   1      1.8250000000000099      41.975000000000009       47.45000000000001
     7   1      1.8250000000000099      43.800000000000004       38.32500000000001
     8   1      1.8250000000000099      43.800000000000004      41.975000000000009
     9   1      1.8250000000000099      45.625000000000007      40.150000000000006
    10   1  7.1054273576010019e-15      43.800000000000004      43.800000000000004
    11   1      1.8250000000000099      43.800000000000004      45.625000000000007
    12   1      1.8250000000000099      45.625000000000007      43.800000000000004
    13   1      1.8250000000000099      43.800000000000004      49.275000000000013
    14   1      1.8250000000000099      45.625000000000007       47.45000000000001
    15   1      1.8250000000000099       47.45000000000001      41.975000000000009
    16   1      1.8250000000000099       47.45000000000001      45.625000000000007
    17   1      1.8250000000000099      49.275000000000013      43.800000000000004
    18   1      5.4750000000000085      23.725000000000009      43.800000000000004
    19   1      5.4750000000000085      25.550000000000004      41.975000000000009
    20   1      5.4750000000000085      27.375000000000004      40.150000000000006
    21   1      5.4750000000000085      25.550000000000004      45.625000000000007
    22   1      5.4750000000000085      27.375000000000004      43.800000000000004
    23   1      5.4750000000000085      27.375000000000004       47.45000000000001
    24   1      5.4750000000000085       29.20000000000001       38.32500000000001
    25   1      5.4750000000000085      31.025000000000009      36.500000000000007
    26   1      3.6500000000000057      31.025000000000009      41.975000000000009
    27   1      5.4750000000000085       29.20000000000001      41.975000000000009
    28   1      5.4750000000000085      31.025000000000009      40.150000000000006
    29   1      3.6500000000000057       29.20000000000001      43.800000000000004
    30   1      3.6500000000000057      31.025000000000009      45.625000000000007
    31   1      5.4750000000000085       29.20000000000001      45.625000000000007
    32   1      5.4750000000000085      31.025000000000009      43.800000000000004
    33   1      5.4750000000000085       29.20000000000001      49.275000000000013
    34   1      5.4750000000000085      31.025000000000009       47.45000000000001
    35   1      5.4750000000000085      31.025000000000009      51.100000000000009
    36   1      5.4750000000000085      32.850000000000009      34.675000000000011
    37   1      5.4750000000000085      34.675000000000011      32.850000000000009
    38   1      3.6500000000000057      34.675000000000011       38.32500000000001
    39   1      5.4750000000000085      32.850000000000009       38.32500000000001
    40   1      5.4750000000000085      34.675000000000011      36.500000000000007
    41   1      3.6500000000000057      32.850000000000009      40.150000000000006
    42   1      3.6500000000000057      34.675000000000011      41.975000000000009
    43   1      5.4750000000000085      32.850000000000009      41.975000000000009
    44   1      5.4750000000000085      34.675000000000011      40.150000000000006
    45   1      3.6500000000000057      32.850000000000009      43.800000000000004
    46   1      3.6500000000000057      34.675000000000011      45.625000000000007
    47   1      5.4750000000000085      32.850000000000009      45.625000000000007
    48   1      5.4750000000000085      34.675000000000011      43.800000000000004
    49   1      3.6500000000000057      32.850000000000009       47.45000000000001
    50   1      3.6500000000000057      34.675000000000011      49.275000000000013
    51   1      5.4750000000000085      32.850000000000009      49.275000000000013
    52   1      5.4750000000000085      34.675000000000011       47.45000000000001
    53   1      5.4750000000000085      32.850000000000009      52.925000000000004
    54   1      5.4750000000000085      34.675000000000011      51.100000000000009
    55   1      5.4750000000000085      34.675000000000011      54.750000000000007
    56   1      5.4750000000000085      36.500000000000007      31.025000000000009
    57   1      5.4750000000000085       38.32500000000001       29.20000000000001
    58   1      3.6500000000000057       38.32500000000001      34.675000000000011
    59   1      5.4750000000000085      36.500000000000007      34.675000000000011
    60   1      5.4750000000000085       38.32500000000001      32.850000000000009
    61   1      3.6500000000000057      36.500000000000007      36.500000000000007
    62   1      3.6500000000000057       38.32500000000001       38.32500000000001
    63   1      5.4750000000000085      36.500000000000007       38.32500000000001
    64   1      5.4750000000000085       38.32500000000001      36.500000000000007
    65   1      3.6500000000000057      36.500000000000007      40.150000000000006
    66   1      3.6500000000000057       38.32500000000001      41.975000000000009
    67   1      5.4750000000000085      36.500000000000007      41.975000000000009
    68   1      5.4750000000000085       38.32500000000001      40.150000000000006
    69   1      3.6500000000000057      36.500000000000007      43.800000000000004
    70   1      3.6500000000000057       38.32500000000001      45.625000000000007
    71   1      5.4750000000000085      36.500000000000007      45.625000000000007
    72   1      5.4750000000000085       38.32500000000001      43.800000000000004
    73   1      3.6500000000000057      36.500000000000007       47.45000000000001
    74   1      3.6500000000000057       38.32500000000001      49.275000000000013
    75   1      5.4750000000000085      36.500000000000007      49.275000000000013
    76   1      5.4750000000000085       38.32500000000001       47.45000000000001
    77   1      3.6500000000000057      36.500000000000007      51.100000000000009
    78   1      3.6500000000000057       38.32500000000001      52.925000000000004
    79   1      5.4750000000000085      36.500000000000007      52.925000000000004
    80   1      5.4750000000000085       38.32500000000001      51.100000000000009
    81   1      5.4750000000000085      36.500000000000007      56.575000000000003
    82   1      5.4750000000000085       38.32500000000001      54.750000000000007
    83   1      5.4750000000000085       38.32500000000001      58.399999999999999
    84   1      5.4750000000000085      40.150000000000006      27.375000000000004
    85   1      5.4750000000000085      41.975000000000009      25.550000000000004
    86   1      3.6500000000000057      41.975000000000009      31.025000000000009
    87   1      5.4750000000000085      40.150000000000006      31.025000000000009
    88   1      5.4750000000000085      41.975000000000009       29.20000000000001
    89   1      3.6500000000000057      40.150000000000006      32.850000000000009
    90   1      3.6500000000000057      41.975000000000009      34.675000000000011
    91   1      5.4750000000000085      40.150000000000006      34.675000000000011
    92   1      5.4750000000000085      41.975000000000009      32.850000000000009
    93   1      3.6500000000000057      40.150000000000006      36.500000000000007
    94   1      3.6500000000000057      41.975000000000009       38.32500000000001
    95   1      5.4750000000000085      40.150000000000006       38.32500000000001
    96   1      5.4750000000000085      41.975000000000009      36.500000000000007
    97   1      3.6500000000000057      40.150000000000006      40.150000000000006
    98   1      3.6500000000000057      41.975000000000009      41.975000000000009
    99   1      5.4750000000000085      40.150000000000006      41.975000000000009
   100   1      5.4750000000000085      41.975000000000009      40.150000000000006
   101   1      3.6500000000000057      40.150000000000006      43.800000000000004
   102   1      3.6500000000000057      41.975000000000009      45.625000000000007
   103   1      5.4750000000000085      40.150000000000006      45.625000000000007
   104   1      5.4750000000000085      41.975000000000009      43.800000000000004
   105   1      3.6500000000000057      40.150000000000006       47.45000000000001
   106   1      3.6500000000000057      41.975000000000009      49.275000000000013
   107   1      5.4750000000000085      40.150000000000006      49.275000000000013
   108   1      5.4750000000000085      41.975000000000009       47.45000000000001
   109   1      3.6500000000000057      40.150000000000006      51.100000000000009
   110   1      3.6500000000000057      41.975000000000009      52.925000000000004
   111   1      5.4750000000000085      40.150000000000006      52.925000000000004
   112   1      5.4750000000000085      41.975000000000009      51.100000000000009
   113   1      3.6500000000000057      40.150000000000006      54.750000000000007
   114   1      3.6500000000000057      41.975000000000009      56.575000000000003
   115   1      5.4750000000000085      40.150000000000006      56.575000000000003
   116   1      5.4750000000000085      41.975000000000009      54.750000000000007
   117   1      5.4750000000000085      40.150000000000006      60.225000000000009
   118   1      5.4750000000000085      41.975000000000009      58.399999999999999
   119   1      5.4750000000000085      41.975000000000009      62.050000000000011
   120   1      5.4750000000000085      43.800000000000004      23.725000000000009
   121   1      5.4750000000000085      43.800000000000004      27.375000000000004
   122   1      5.4750000000000085      45.625000000000007      25.550000000000004
   123   1      3.6500000000000057      43.800000000000004       29.20000000000001
   124   1      3.6500000000000057      45.625000000000007      31.025000000000009
   125   1      5.4750000000000085      43.800000000000004      31.025000000000009
   126   1      5.4750000000000085      45.625000000000007       29.20000000000001
   127   1      3.6500000000000057      43.800000000000004      32.850000000000009
   128   1      3.6500000000000057      45.625000000000007      34.675000000000011
   129   1      5.4750000000000085      43.800000000000004      34.675000000000011
   130   1      5.4750000000000085      45.625000000000007      32.850000000000009
   131   1      3.6500000000000057      43.800000000000004      36.500000000000007
   132   1      3.6500000000000057      45.625000000000007       38.32500000000001
   133   1      5.4750000000000085      43.800000000000004       38.32500000000001
   134   1      5.4750000000000085      45.625000000000007      36.500000000000007
   135   1      3.6500000000000057      43.800000000000004      40.150000000000006
   136   1      3.6500000000000057      45.625000000000007      41.975000000000009
   137   1      5.4750000000000085      43.800000000000004      41.975000000000009
   138   1      5.4750000000000085      45.625000000000007      40.150000000000006
   139   1      3.6500000000000057      43.800000000000004      43.800000000000004
   140   1      3.6500000000000057      45.625000000000007      45.625000000000007
   141   1      5.4750000000000085      43.800000000000004      45.625000000000007
   142   1      5.4750000000000085      45.625000000000007      43.800000000000004
   143   1      3.6500000000000057      43.800000000000004       47.45000000000001
   144   1      3.6500000000000057      45.625000000000007      49.275000000000013
   145   1      5.4750000000000085      43.800000000000004      49.275000000000013
   146   1      5.4750000000000085      45.625000000000007       47.45000000000001
   147   1      3.6500000000000057      43.800000000000004      51.100000000000009
   148   1      3.6500000000000057      45.625000000000007      52.925000000000004
   149   1      5.4750000000000085      43.800000000000004      52.925000000000004
   150   1      5.4750000000000085      45.625000000000007      51.100000000000009
   151   1      3.6500000000000057      43.800000000000004      54.750000000000007
   152   1      3.6500000000000057      45.625000000000007      56.575000000000003
   153   1      5.4750000000000085      43.800000000000004      56.575000000000003
   154   1      5.4750000000000085      45.625000000000007      54.750000000000007
   155   1      3.6500000000000057      43.800000000000004      58.399999999999999
   156   1      5.4750000000000085      43.800000000000004      60.225000000000009
   157   1      5.4750000000000085      45.625000000000007      58.399999999999999
   158   1      5.4750000000000085      43.800000000000004      63.875000000000014
   159   1      5.4750000000000085      45.625000000000007      62.050000000000011
   160   1      5.4750000000000085       47.45000000000001      27.375000000000004
   161   1      5.4750000000000085       47.45000000000001      31.025000000000009
   162   1      5.4750000000000085      49.275000000000013       29.20000000000001
   163   1      3.6500000000000057       47.45000000000001      32.850000000000009
   164   1      3.6500000000000057      49.275000000000013      34.675000000000011
   165   1      5.4750000000000085       47.45000000000001      34.675000000000011
   166   1      5.4750000000000085      49.275000000000013      32.850000000000009
   167   1      3.6500000000000057       47.45000000000001      36.500000000000007
   168   1      3.6500000000000057      49.275000000000013       38.32500000000001
   169   1      5.4750000000000085       47.45000000000001       38.32500000000001
   170   1      5.4750000000000085      49.275000000000013      36.500000000000007
   171   1      3.6500000000000057       47.45000000000001      40.150000000000006
   172   1      3.6500000000000057      49.275000000000013      41.975000000000009
   173   1      5.4750000000000085       47.45000000000001      41.975000000000009
   174   1      5.4750000000000085      49.275000000000013      40.150000000000006
   175   1      3.6500000000000057       47.45000000000001      43.800000000000004
   176   1      3.6500000000000057      49.275000000000013      45.625000000000007
   177   1      5.4750000000000085       47.45000000000001      45.625000000000007
   178   1      5.4750000000000085      49.275000000000013      43.800000000000004
   179   1      3.6500000000000057       47.45000000000001       47.45000000000001
   180   1      3.6500000000000057      49.275000000000013      49.275000000000013
   181   1      5.4750000000000085       47.45000000000001      49.275000000000013
   182   1      5.4750000000000085      49.275000000000013       47.45000000000001
   183   1      3.6500000000000057       47.45000000000001      51.100000000000009
   184   1      3.6500000000000057      49.275000000000013      52.925000000000004
   185   1      5.4750000000000085       47.45000000000001      52.925000000000004
   186   1      5.4750000000000085      49.275000000000013      51.100000000000009
   187   1      3.6500000000000057       47.45000000000001      54.750000000000007
   188   1      5.4750000000000085       47.45000000000001      56.575000000000003
   189   1      5.4750000000000085      49.275000000000013      54.750000000000007
   190   1      5.4750000000000085       47.45000000000001      60.225000000000009
   191   1      5.4750000000000085      49.275000000000013      58.399999999999999
   192   1      5.4750000000000085      51.100000000000009      31.025000000000009
   193   1      5.4750000000000085      51.100000000000009      34.675000000000011
   194   1      5.4750000000000085      52.925000000000004      32.850000000000009
   195   1      3.6500000000000057      51.100000000000009      36.500000000000007
   196   1      3.6500000000000057      52.925000000000004       38.32500000000001
   197   1      5.4750000000000085      51.100000000000009       38.32500000000001
   198   1      5.4750000000000085      52.925000000000004      36.500000000000007
   199   1      3.6500000000000057      51.100000000000009      40.150000000000006
   200   1      3.6500000000000057      52.925000000000004      41.975000000000009
   201   1      5.4750000000000085      51.100000000000009      41.975000000000009
   202   1      5.4750000000000085      52.925000000000004      40.150000000000006
   203   1      3.6500000000000057      51.100000000000009      43.800000000000004
   204   1      3.6500000000000057      52.925000000000004      45.625000000000007
   205   1      5.4750000000000085      51.100000000000009      45.625000000000007
   206   1      5.4750000000000085      52.925000000000004      43.800000000000004
   207   1      3.6500000000000057      51.100000000000009       47.45000000000001
   208   1      3.6500000000000057      52.925000000000004      49.275000000000013
   209   1      5.4750000000000085      51.100000000000009      49.275000000000013
   210   1      5.4750000000000085      52.925000000000004       47.45000000000001
   211   1      3.6500000000000057      51.100000000000009      51.100000000000009
   212   1      5.4750000000000085      51.100000000000009      52.925000000000004
   213   1      5.4750000000000085      52.925000000000004      51.100000000000009
   214   1      5.4750000000000085      51.100000000000009      56.575000000000003
   215   1      5.4750000000000085      52.925000000000004      54.750000000000007
   216   1      5.4750000000000085      54.750000000000007      34.675000000000011
   217   1      5.4750000000000085      54.750000000000007       38.32500000000001
   218   1      5.4750000000000085      56.575000000000003      36.500000000000007
   219   1      3.6500000000000057      54.750000000000007      40.150000000000006
   220   1      3.6500000000000057      56.575000000000003      41.975000000000009
   221   1      5.4750000000000085      54.750000000000007      41.975000000000009
   222   1      5.4750000000000085      56.575000000000003      40.150000000000006
   223   1      3.6500000000000057      54.750000000000007      43.800000000000004
   224   1      3.6500000000000057      56.575000000000003      45.625000000000007
   225   1      5.4750000000000085      54.750000000000007      45.625000000000007
   226   1      5.4750000000000085      56.575000000000003      43.800000000000004
   227   1      3.6500000000000057      54.750000000000007       47.45000000000001
   228   1      5.4750000000000085      54.750000000000007      49.275000000000013
   229   1      5.4750000000000085      56.575000000000003       47.45000000000001
   230   1      5.4750000000000085      54.750000000000007      52.925000000000004
   231   1      5.4750000000000085      56.575000000000003      51.100000000000009
   232   1      5.4750000000000085      58.399999999999999       38.32500000000001
   233   1      5.4750000000000085      58.399999999999999      41.975000000000009
   234   1      5.4750000000000085      60.225000000000009      40.150000000000006
   235   1      3.6500000000000057      58.399999999999999      43.800000000000004
   236   1      5.4750000000000085      58.399999999999999      45.625000000000007
   237   1      5.4750000000000085      60.225000000000009      43.800000000000004
   238   1      5.4750000000000085      58.399999999999999      49.275000000000013
   239   1      5.4750000000000085      60.225000000000009       47.45000000000001
   240   1      5.4750000000000085      62.050000000000011      41.975000000000009
   241   1      5.4750000000000085      62.050000000000011      45.625000000000007
   242   1      5.4750000000000085      63.875000000000014      43.800000000000004
   243   1      9.1250000000000071      9.1250000000000071      43.800000000000004
   244   1      9.1250000000000071       10.95000000000001      41.975000000000009
   245   1      9.1250000000000071      12.775000000000009      40.150000000000006
   246   1      9.1250000000000071       10.95000000000001      45.625000000000007
   247   1      9.1250000000000071      12.775000000000009      43.800000000000004
   248   1      9.1250000000000071      12.775000000000009       47.45000000000001
   249   1      9.1250000000000071      14.600000000000007       38.32500000000001
   250   1      9.1250000000000071      16.425000000000008      36.500000000000007
   251   1      7.3000000000000034      16.425000000000008      41.975000000000009
   252   1      9.1250000000000071      14.600000000000007      41.975000000000009
   253   1      9.1250000000000071      16.425000000000008      40.150000000000006
   254   1      7.3000000000000034      14.600000000000007      43.800000000000004
   255   1      7.3000000000000034      16.425000000000008      45.625000000000007
   256   1      9.1250000000000071      14.600000000000007      45.625000000000007
   257   1      9.1250000000000071      16.425000000000008      43.800000000000004
   258   1      9.1250000000000071      14.600000000000007      49.275000000000013
   259   1      9.1250000000000071      16.425000000000008       47.45000000000001
   260   1      9.1250000000000071      16.425000000000008      51.100000000000009
   261   1      9.1250000000000071      18.250000000000007      34.675000000000011
   262   1      9.1250000000000071      20.075000000000006      32.850000000000009
   263   1      7.3000000000000034      20.075000000000006       38.32500000000001
   264   1      9.1250000000000071      18.250000000000007       38.32500000000001
   265   1      9.1250000000000071      20.075000000000006      36.500000000000007
   266   1      7.3000000000000034      18.250000000000007      40.150000000000006
   267   1      7.3000000000000034      20.075000000000006      41.975000000000009
   268   1      9.1250000000000071      18.250000000000007      41.975000000000009
   269   1      9.1250000000000071      20.075000000000006      40.150000000000006
   270   1      7.3000000000000034      18.250000000000007      43.800000000000004
   271   1      7.3000000000000034      20.075000000000006      45.625000000000007
   272   1      9.1250000000000071      18.250000000000007      45.625000000000007
   273   1      9.1250000000000071      20.075000000000006      43.800000000000004
   274   1      7.3000000000000034      18.250000000000007       47.45000000000001
   275   1      7.3000000000000034      20.075000000000006      49.275000000000013
   276   1      9.1250000000000071      18.250000000000007      49.275000000000013
   277   1      9.1250000000000071      20.075000000000006       47.45000000000001
   278   1      9.1250000000000071      18.250000000000007      52.925000000000004
   279   1      9.1250000000000071      20.075000000000006      51.100000000000009
   280   1      9.1250000000000071      20.075000000000006      54.750000000000007
   281   1      9.1250000000000071      21.900000000000009      31.025000000000009
   282   1      9.1250000000000071      23.725000000000009       29.20000000000001
   283   1      7.3000000000000034      23.725000000000009      34.675000000000011
   284   1      9.1250000000000071      21.900000000000009      34.675000000000011
   285   1      9.1250000000000071      23.725000000000009      32.850000000000009
   286   1      7.3000000000000034      21.900000000000009      36.500000000000007
   287   1      7.3000000000000034      23.725000000000009       38.32500000000001
   288   1      9.1250000000000071      21.900000000000009       38.32500000000001
   289   1      9.1250000000000071      23.725000000000009      36.500000000000007
   290   1      7.3000000000000034      21.900000000000009      40.150000000000006
   291   1      7.3000000000000034      23.725000000000009      41.975000000000009
   292   1      9.1250000000000071      21.900000000000009      41.975000000000009
   293   1      9.1250000000000071      23.725000000000009      40.150000000000006
   294   1      7.3000000000000034      21.900000000000009      43.800000000000004
   295   1      7.3000000000000034      23.725000000000009      45.625000000000007
   296   1      9.1250000000000071      21.900000000000009      45.625000000000007
   297   1      9.1250000000000071      23.725000000000009      43.800000000000004
   298   1      7.3000000000000034      21.900000000000009       47.45000000000001
   299   1      7.3000000000000034      23.725000000000009      49.275000000000013
   300   1      9.1250000000000071      21.900000000000009      49.275000000000013
   301   1      9.1250000000000071      23.725000000000009       47.45000000000001
   302   1      7.3000000000000034      21.900000000000009      51.100000000000009
   303   1      7.3000000000000034      23.725000000000009      52.925000000000004
   304   1      9.1250000000000071      21.900000000000009      52.925000000000004
   305   1      9.1250000000000071      23.725000000000009      51.100000000000009
   306   1      9.1250000000000071      21.900000000000009      56.575000000000003
   307   1      9.1250000000000071      23.725000000000009      54.750000000000007
   308   1      9.1250000000000071      23.725000000000009      58.399999999999999
   309   1      9.1250000000000071      25.550000000000004      27.375000000000004
   310   1      9.1250000000000071      27.375000000000004      25.550000000000004
   311   1      7.3000000000000034      27.375000000000004      31.025000000000009
   312   1      9.1250000000000071      25.550000000000004      31.025000000000009
   313   1      9.1250000000000071      27.375000000000004       29.20000000000001
   314   1      7.3000000000000034      25.550000000000004      32.850000000000009
   315   1      7.3000000000000034      27.375000000000004      34.675000000000011
   316   1      9.1250000000000071      25.550000000000004      34.675000000000011
   317   1      9.1250000000000071      27.375000000000004      32.850000000000009
   318   1      7.3000000000000034      25.550000000000004      36.500000000000007
   319   1      7.3000000000000034      27.375000000000004       38.32500000000001
   320   1      9.1250000000000071      25.550000000000004       38.32500000000001
   321   1      9.1250000000000071      27.375000000000004      36.500000000000007
   322   1      7.3000000000000034      25.550000000000004      40.150000000000006
   323   1      7.3000000000000034      27.375000000000004      41.975000000000009
   324   1      9.1250000000000071      25.550000000000004      41.975000000000009
   325   1      9.1250000000000071      27.375000000000004      40.150000000000006
   326   1      7.3000000000000034      25.550000000000004      43.800000000000004
   327   1      7.3000000000000034      27.375000000000004      45.625000000000007
   328   1      9.1250000000000071      25.550000000000004      45.625000000000007
   329   1      9.1250000000000071      27.375000000000004      43.800000000000004
   330   1      7.3000000000000034      25.550000000000004       47.45000000000001
   331   1      7.3000000000000034      27.375000000000004      49.275000000000013
   332   1      9.1250000000000071      25.550000000000004      49.275000000000013
   333   1      9.1250000000000071      27.375000000000004       47.45000000000001
   334   1      7.3000000000000034      25.550000000000004      51.100000000000009
   335   1      7.3000000000000034      27.375000000000004      52.925000000000004
   336   1      9.1250000000000071      25.550000000000004      52.925000000000004
   337   1      9.1250000000000071      27.375000000000004      51.100000000000009
   338   1      7.3000000000000034      25.550000000000004      54.750000000000007
   339   1      7.3000000000000034      27.375000000000004      56.575000000000003
   340   1      9.1250000000000071      25.550000000000004      56.575000000000003
   341   1      9.1250000000000071      27.375000000000004      54.750000000000007
   342   1      9.1250000000000071      25.550000000000004      60.225000000000009
   343   1      9.1250000000000071      27.375000000000004      58.399999999999999
   344   1      9.1250000000000071      27.375000000000004      62.050000000000011
   345   1      9.1250000000000071       29.20000000000001      23.725000000000009
   346   1      9.1250000000000071      31.025000000000009      21.900000000000009
   347   1      7.3000000000000034      31.025000000000009      27.375000000000004
   348   1      9.1250000000000071       29.20000000000001      27.375000000000004
   349   1      9.1250000000000071      31.025000000000009      25.550000000000004
   350   1      7.3000000000000034       29.20000000000001       29.20000000000001
   351   1      7.3000000000000034      31.025000000000009      31.025000000000009
   352   1      9.1250000000000071       29.20000000000001      31.025000000000009
   353   1      9.1250000000000071      31.025000000000009       29.20000000000001
   354   1      7.3000000000000034       29.20000000000001      32.850000000000009
   355   1      7.3000000000000034      31.025000000000009      34.675000000000011
   356   1      9.1250000000000071       29.20000000000001      34.675000000000011
   357   1      9.1250000000000071      31.025000000000009      32.850000000000009
   358   1      7.3000000000000034       29.20000000000001      36.500000000000007