model_files/NiCoCrFeMn/NiCoCrFeMn_30000/NiCoCrFeMn_332/NiCoCrFeMn_332_fcc_30163_temp.data (written by ASE) 

30163 	 atoms 
5  atom types
0.0                     122  xlo xhi
0.0                     122  ylo yhi
0.0                     122  zlo zhi


Atoms 

     1   1      1.7974999999999854      59.317499999999988      61.115000000000002
     2   1      1.7974999999999854      61.115000000000002      59.317499999999988
     3   1      121.99999999999999      61.115000000000002      61.115000000000002
     4   1      1.7974999999999854      61.115000000000002      62.912499999999994
     5   1      1.7974999999999854      62.912499999999994      61.115000000000002
     6   1      5.3924999999999841      55.722499999999989      61.115000000000002
     7   1      3.5949999999999847      59.317499999999988      59.317499999999988
     8   1      5.3924999999999841      57.519999999999989      59.317499999999988
     9   1      5.3924999999999841      59.317499999999988      57.519999999999989
    10   1      3.5949999999999847      57.519999999999989      61.115000000000002
    11   1      3.5949999999999847      59.317499999999988      62.912499999999994
    12   1      5.3924999999999841      57.519999999999989      62.912499999999994
    13   1      5.3924999999999841      59.317499999999988      61.115000000000002
    14   1      5.3924999999999841      59.317499999999988      64.710000000000008
    15   1      5.3924999999999841      61.115000000000002      55.722499999999989
    16   1      3.5949999999999847      61.115000000000002      57.519999999999989
    17   1      3.5949999999999847      62.912499999999994      59.317499999999988
    18   1      5.3924999999999841      61.115000000000002      59.317499999999988
    19   1      5.3924999999999841      62.912499999999994      57.519999999999989
    20   1      3.5949999999999847      61.115000000000002      61.115000000000002
    21   1      3.5949999999999847      62.912499999999994      62.912499999999994
    22   1      5.3924999999999841      61.115000000000002      62.912499999999994
    23   1      5.3924999999999841      62.912499999999994      61.115000000000002
    24   1      3.5949999999999847      61.115000000000002      64.710000000000008
    25   1      5.3924999999999841      61.115000000000002      66.507499999999993
    26   1      5.3924999999999841      62.912499999999994      64.710000000000008
    27   1      5.3924999999999841      64.710000000000008      59.317499999999988
    28   1      3.5949999999999847      64.710000000000008      61.115000000000002
    29   1      5.3924999999999841      64.710000000000008      62.912499999999994
    30   1      5.3924999999999841      66.507499999999993      61.115000000000002
    31   1      8.9874999999999829      52.127499999999991      61.115000000000002
    32   1      7.1899999999999835      55.722499999999989      59.317499999999988
    33   1      8.9874999999999829       53.92499999999999      59.317499999999988
    34   1      8.9874999999999829      55.722499999999989      57.519999999999989
    35   1      7.1899999999999835       53.92499999999999      61.115000000000002
    36   1      7.1899999999999835      55.722499999999989      62.912499999999994
    37   1      8.9874999999999829       53.92499999999999      62.912499999999994
    38   1      8.9874999999999829      55.722499999999989      61.115000000000002
    39   1      8.9874999999999829      55.722499999999989      64.710000000000008
    40   1      7.1899999999999835      59.317499999999988      55.722499999999989
    41   1      8.9874999999999829      57.519999999999989      55.722499999999989
    42   1      8.9874999999999829      59.317499999999988       53.92499999999999
    43   1      7.1899999999999835      57.519999999999989      57.519999999999989
    44   1      7.1899999999999835      59.317499999999988      59.317499999999988
    45   1      8.9874999999999829      57.519999999999989      59.317499999999988
    46   1      8.9874999999999829      59.317499999999988      57.519999999999989
    47   1      7.1899999999999835      57.519999999999989      61.115000000000002
    48   1      7.1899999999999835      59.317499999999988      62.912499999999994
    49   1      8.9874999999999829      57.519999999999989      62.912499999999994
    50   1      8.9874999999999829      59.317499999999988      61.115000000000002
    51   1      7.1899999999999835      57.519999999999989      64.710000000000008
    52   1      7.1899999999999835      59.317499999999988      66.507499999999993
    53   1      8.9874999999999829      57.519999999999989      66.507499999999993
    54   1      8.9874999999999829      59.317499999999988      64.710000000000008
    55   1      8.9874999999999829      59.317499999999988      68.305000000000007
    56   1      8.9874999999999829      61.115000000000002      52.127499999999991
    57   1      7.1899999999999835      61.115000000000002       53.92499999999999
    58   1      7.1899999999999835      62.912499999999994      55.722499999999989
    59   1      8.9874999999999829      61.115000000000002      55.722499999999989
    60   1      8.9874999999999829      62.912499999999994       53.92499999999999
    61   1      7.1899999999999835      61.115000000000002      57.519999999999989
    62   1      7.1899999999999835      62.912499999999994      59.317499999999988
    63   1      8.9874999999999829      61.115000000000002      59.317499999999988
    64   1      8.9874999999999829      62.912499999999994      57.519999999999989
    65   1      7.1899999999999835      61.115000000000002      61.115000000000002
    66   1      7.1899999999999835      62.912499999999994      62.912499999999994
    67   1      8.9874999999999829      61.115000000000002      62.912499999999994
    68   1      8.9874999999999829      62.912499999999994      61.115000000000002
    69   1      7.1899999999999835      61.115000000000002      64.710000000000008
    70   1      7.1899999999999835      62.912499999999994      66.507499999999993
    71   1      8.9874999999999829      61.115000000000002      66.507499999999993
    72   1      8.9874999999999829      62.912499999999994      64.710000000000008
    73   1      7.1899999999999835      61.115000000000002      68.305000000000007
    74   1      8.9874999999999829      61.115000000000002      70.102499999999992
    75   1      8.9874999999999829      62.912499999999994      68.305000000000007
    76   1      8.9874999999999829      64.710000000000008      55.722499999999989
    77   1      7.1899999999999835      64.710000000000008      57.519999999999989
    78   1      7.1899999999999835      66.507499999999993      59.317499999999988
    79   1      8.9874999999999829      64.710000000000008      59.317499999999988
    80   1      8.9874999999999829      66.507499999999993      57.519999999999989
    81   1      7.1899999999999835      64.710000000000008      61.115000000000002
    82   1      7.1899999999999835      66.507499999999993      62.912499999999994
    83   1      8.9874999999999829      64.710000000000008      62.912499999999994
    84   1      8.9874999999999829      66.507499999999993      61.115000000000002
    85   1      7.1899999999999835      64.710000000000008      64.710000000000008
    86   1      8.9874999999999829      64.710000000000008      66.507499999999993
    87   1      8.9874999999999829      66.507499999999993      64.710000000000008
    88   1      8.9874999999999829      68.305000000000007      59.317499999999988
    89   1      7.1899999999999835      68.305000000000007      61.115000000000002
    90   1      8.9874999999999829      68.305000000000007      62.912499999999994
    91   1      8.9874999999999829      70.102499999999992      61.115000000000002
    92   1      12.582499999999991      48.532499999999992      61.115000000000002
    93   1      10.784999999999991      52.127499999999991      59.317499999999988
    94   1      12.582499999999991      50.329999999999991      59.317499999999988
    95   1      12.582499999999991      52.127499999999991      57.519999999999989
    96   1      10.784999999999991      50.329999999999991      61.115000000000002
    97   1      10.784999999999991      52.127499999999991      62.912499999999994
    98   1      12.582499999999991      50.329999999999991      62.912499999999994
    99   1      12.582499999999991      52.127499999999991      61.115000000000002
   100   1      12.582499999999991      52.127499999999991      64.710000000000008
   101   1      10.784999999999991      55.722499999999989      55.722499999999989
   102   1      12.582499999999991       53.92499999999999      55.722499999999989
   103   1      12.582499999999991      55.722499999999989       53.92499999999999
   104   1      10.784999999999991       53.92499999999999      57.519999999999989
   105   1      10.784999999999991      55.722499999999989      59.317499999999988
   106   1      12.582499999999991       53.92499999999999      59.317499999999988
   107   1      12.582499999999991      55.722499999999989      57.519999999999989
   108   1      10.784999999999991       53.92499999999999      61.115000000000002
   109   1      10.784999999999991      55.722499999999989      62.912499999999994
   110   1      12.582499999999991       53.92499999999999      62.912499999999994
   111   1      12.582499999999991      55.722499999999989      61.115000000000002
   112   1      10.784999999999991       53.92499999999999      64.710000000000008
   113   1      10.784999999999991      55.722499999999989      66.507499999999993
   114   1      12.582499999999991       53.92499999999999      66.507499999999993
   115   1      12.582499999999991      55.722499999999989      64.710000000000008
   116   1      12.582499999999991      55.722499999999989      68.305000000000007
   117   1      10.784999999999991      59.317499999999988      52.127499999999991
   118   1      12.582499999999991      57.519999999999989      52.127499999999991
   119   1      12.582499999999991      59.317499999999988      50.329999999999991
   120   1      10.784999999999991      57.519999999999989       53.92499999999999
   121   1      10.784999999999991      59.317499999999988      55.722499999999989
   122   1      12.582499999999991      57.519999999999989      55.722499999999989
   123   1      12.582499999999991      59.317499999999988       53.92499999999999
   124   1      10.784999999999991      57.519999999999989      57.519999999999989
   125   1      10.784999999999991      59.317499999999988      59.317499999999988
   126   1      12.582499999999991      57.519999999999989      59.317499999999988
   127   1      12.582499999999991      59.317499999999988      57.519999999999989
   128   1      10.784999999999991      57.519999999999989      61.115000000000002
   129   1      10.784999999999991      59.317499999999988      62.912499999999994
   130   1      12.582499999999991      57.519999999999989      62.912499999999994
   131   1      12.582499999999991      59.317499999999988      61.115000000000002
   132   1      10.784999999999991      57.519999999999989      64.710000000000008
   133   1      10.784999999999991      59.317499999999988      66.507499999999993
   134   1      12.582499999999991      57.519999999999989      66.507499999999993
   135   1      12.582499999999991      59.317499999999988      64.710000000000008
   136   1      10.784999999999991      57.519999999999989      68.305000000000007
   137   1      10.784999999999991      59.317499999999988      70.102499999999992
   138   1      12.582499999999991      57.519999999999989      70.102499999999992
   139   1      12.582499999999991      59.317499999999988      68.305000000000007
   140   1      12.582499999999991      59.317499999999988      71.900000000000006
   141   1      12.582499999999991      61.115000000000002      48.532499999999992
   142   1      10.784999999999991      61.115000000000002      50.329999999999991
   143   1      10.784999999999991      62.912499999999994      52.127499999999991
   144   1      12.582499999999991      61.115000000000002      52.127499999999991
   145   1      12.582499999999991      62.912499999999994      50.329999999999991
   146   1      10.784999999999991      61.115000000000002       53.92499999999999
   147   1      10.784999999999991      62.912499999999994      55.722499999999989
   148   1      12.582499999999991      61.115000000000002      55.722499999999989
   149   1      12.582499999999991      62.912499999999994       53.92499999999999
   150   1      10.784999999999991      61.115000000000002      57.519999999999989
   151   1      10.784999999999991      62.912499999999994      59.317499999999988
   152   1      12.582499999999991      61.115000000000002      59.317499999999988
   153   1      12.582499999999991      62.912499999999994      57.519999999999989
   154   1      10.784999999999991      61.115000000000002      61.115000000000002
   155   1      10.784999999999991      62.912499999999994      62.912499999999994
   156   1      12.582499999999991      61.115000000000002      62.912499999999994
   157   1      12.582499999999991      62.912499999999994      61.115000000000002
   158   1      10.784999999999991      61.115000000000002      64.710000000000008
   159   1      10.784999999999991      62.912499999999994      66.507499999999993
   160   1      12.582499999999991      61.115000000000002      66.507499999999993
   161   1      12.582499999999991      62.912499999999994      64.710000000000008
   162   1      10.784999999999991      61.115000000000002      68.305000000000007
   163   1      10.784999999999991      62.912499999999994      70.102499999999992
   164   1      12.582499999999991      61.115000000000002      70.102499999999992
   165   1      12.582499999999991      62.912499999999994      68.305000000000007
   166   1      10.784999999999991      61.115000000000002      71.900000000000006
   167   1      12.582499999999991      61.115000000000002      73.697499999999991
   168   1      12.582499999999991      62.912499999999994      71.900000000000006
   169   1      12.582499999999991      64.710000000000008      52.127499999999991
   170   1      10.784999999999991      64.710000000000008       53.92499999999999
   171   1      10.784999999999991      66.507499999999993      55.722499999999989
   172   1      12.582499999999991      64.710000000000008      55.722499999999989
   173   1      12.582499999999991      66.507499999999993       53.92499999999999
   174   1      10.784999999999991      64.710000000000008      57.519999999999989
   175   1      10.784999999999991      66.507499999999993      59.317499999999988
   176   1      12.582499999999991      64.710000000000008      59.317499999999988
   177   1      12.582499999999991      66.507499999999993      57.519999999999989
   178   1      10.784999999999991      64.710000000000008      61.115000000000002
   179   1      10.784999999999991      66.507499999999993      62.912499999999994
   180   1      12.582499999999991      64.710000000000008      62.912499999999994
   181   1      12.582499999999991      66.507499999999993      61.115000000000002
   182   1      10.784999999999991      64.710000000000008      64.710000000000008
   183   1      10.784999999999991      66.507499999999993      66.507499999999993
   184   1      12.582499999999991      64.710000000000008      66.507499999999993
   185   1      12.582499999999991      66.507499999999993      64.710000000000008
   186   1      10.784999999999991      64.710000000000008      68.305000000000007
   187   1      12.582499999999991      64.710000000000008      70.102499999999992
   188   1      12.582499999999991      66.507499999999993      68.305000000000007
   189   1      12.582499999999991      68.305000000000007      55.722499999999989
   190   1      10.784999999999991      68.305000000000007      57.519999999999989
   191   1      10.784999999999991      70.102499999999992      59.317499999999988
   192   1      12.582499999999991      68.305000000000007      59.317499999999988
   193   1      12.582499999999991      70.102499999999992      57.519999999999989
   194   1      10.784999999999991      68.305000000000007      61.115000000000002
   195   1      10.784999999999991      70.102499999999992      62.912499999999994
   196   1      12.582499999999991      68.305000000000007      62.912499999999994
   197   1      12.582499999999991      70.102499999999992      61.115000000000002
   198   1      10.784999999999991      68.305000000000007      64.710000000000008
   199   1      12.582499999999991      68.305000000000007      66.507499999999993
   200   1      12.582499999999991      70.102499999999992      64.710000000000008
   201   1      12.582499999999991      71.900000000000006      59.317499999999988
   202   1      10.784999999999991      71.900000000000006      61.115000000000002
   203   1      12.582499999999991      71.900000000000006      62.912499999999994
   204   1      12.582499999999991      73.697499999999991      61.115000000000002
   205   1      16.177499999999988      44.937499999999993      61.115000000000002
   206   1       14.37999999999999      48.532499999999992      59.317499999999988
   207   1      16.177499999999988      46.734999999999999      59.317499999999988
   208   1      16.177499999999988      48.532499999999992      57.519999999999989
   209   1       14.37999999999999      46.734999999999999      61.115000000000002
   210   1       14.37999999999999      48.532499999999992      62.912499999999994
   211   1      16.177499999999988      46.734999999999999      62.912499999999994
   212   1      16.177499999999988      48.532499999999992      61.115000000000002
   213   1      16.177499999999988      48.532499999999992      64.710000000000008
   214   1       14.37999999999999      52.127499999999991      55.722499999999989
   215   1      16.177499999999988      50.329999999999991      55.722499999999989
   216   1      16.177499999999988      52.127499999999991       53.92499999999999
   217   1       14.37999999999999      50.329999999999991      57.519999999999989
   218   1       14.37999999999999      52.127499999999991      59.317499999999988
   219   1      16.177499999999988      50.329999999999991      59.317499999999988
   220   1      16.177499999999988      52.127499999999991      57.519999999999989
   221   1       14.37999999999999      50.329999999999991      61.115000000000002
   222   1       14.37999999999999      52.127499999999991      62.912499999999994
   223   1      16.177499999999988      50.329999999999991      62.912499999999994
   224   1      16.177499999999988      52.127499999999991      61.115000000000002
   225   1       14.37999999999999      50.329999999999991      64.710000000000008
   226   1       14.37999999999999      52.127499999999991      66.507499999999993
   227   1      16.177499999999988      50.329999999999991      66.507499999999993
   228   1      16.177499999999988      52.127499999999991      64.710000000000008
   229   1      16.177499999999988      52.127499999999991      68.305000000000007
   230   1       14.37999999999999      55.722499999999989      52.127499999999991
   231   1      16.177499999999988       53.92499999999999      52.127499999999991
   232   1      16.177499999999988      55.722499999999989      50.329999999999991
   233   1       14.37999999999999       53.92499999999999       53.92499999999999
   234   1       14.37999999999999      55.722499999999989      55.722499999999989
   235   1      16.177499999999988       53.92499999999999      55.722499999999989
   236   1      16.177499999999988      55.722499999999989       53.92499999999999
   237   1       14.37999999999999       53.92499999999999      57.519999999999989
   238   1       14.37999999999999      55.722499999999989      59.317499999999988
   239   1      16.177499999999988       53.92499999999999      59.317499999999988
   240   1      16.177499999999988      55.722499999999989      57.519999999999989
   241   1       14.37999999999999       53.92499999999999      61.115000000000002
   242   1       14.37999999999999      55.722499999999989      62.912499999999994
   243   1      16.177499999999988       53.92499999999999      62.912499999999994
   244   1      16.177499999999988      55.722499999999989      61.115000000000002
   245   1       14.37999999999999       53.92499999999999      64.710000000000008
   246   1       14.37999999999999      55.722499999999989      66.507499999999993
   247   1      16.177499999999988       53.92499999999999      66.507499999999993
   248   1      16.177499999999988      55.722499999999989      64.710000000000008
   249   1       14.37999999999999       53.92499999999999      68.305000000000007
   250   1       14.37999999999999      55.722499999999989      70.102499999999992
   251   1      16.177499999999988       53.92499999999999      70.102499999999992
   252   1      16.177499999999988      55.722499999999989      68.305000000000007
   253   1      16.177499999999988      55.722499999999989      71.900000000000006
   254   1       14.37999999999999      59.317499999999988      48.532499999999992
   255   1      16.177499999999988      57.519999999999989      48.532499999999992
   256   1      16.177499999999988      59.317499999999988      46.734999999999999
   257   1       14.37999999999999      57.519999999999989      50.329999999999991
   258   1       14.37999999999999      59.317499999999988      52.127499999999991
   259   1      16.177499999999988      57.519999999999989      52.127499999999991
   260   1      16.177499999999988      59.317499999999988      50.329999999999991
   261   1       14.37999999999999      57.519999999999989       53.92499999999999
   262   1       14.37999999999999      59.317499999999988      55.722499999999989
   263   1      16.177499999999988      57.519999999999989      55.722499999999989
   264   1      16.177499999999988      59.317499999999988       53.92499999999999
   265   1       14.37999999999999      57.519999999999989      57.519999999999989
   266   1       14.37999999999999      59.317499999999988      59.317499999999988
   267   1      16.177499999999988      57.519999999999989      59.317499999999988
   268   1      16.177499999999988      59.317499999999988      57.519999999999989
   269   1       14.37999999999999      57.519999999999989      61.115000000000002
   270   1       14.37999999999999      59.317499999999988      62.912499999999994
   271   1      16.177499999999988      57.519999999999989      62.912499999999994
   272   1      16.177499999999988      59.317499999999988      61.115000000000002
   273   1       14.37999999999999      57.519999999999989      64.710000000000008
   274   1       14.37999999999999      59.317499999999988      66.507499999999993
   275   1      16.177499999999988      57.519999999999989      66.507499999999993
   276   1      16.177499999999988      59.317499999999988      64.710000000000008
   277   1       14.37999999999999      57.519999999999989      68.305000000000007
   278   1       14.37999999999999      59.317499999999988      70.102499999999992
   279   1      16.177499999999988      57.519999999999989      70.102499999999992
   280   1      16.177499999999988      59.317499999999988      68.305000000000007
   281   1       14.37999999999999      57.519999999999989      71.900000000000006
   282   1       14.37999999999999      59.317499999999988      73.697499999999991
   283   1      16.177499999999988      57.519999999999989      73.697499999999991
   284   1      16.177499999999988      59.317499999999988      71.900000000000006
   285   1      16.177499999999988      59.317499999999988      75.495000000000005
   286   1      16.177499999999988      61.115000000000002      44.937499999999993
   287   1       14.37999999999999      61.115000000000002      46.734999999999999
   288   1       14.37999999999999      62.912499999999994      48.532499999999992
   289   1      16.177499999999988      61.115000000000002      48.532499999999992
   290   1      16.177499999999988      62.912499999999994      46.734999999999999
   291   1       14.37999999999999      61.115000000000002      50.329999999999991
   292   1       14.37999999999999      62.912499999999994      52.127499999999991
   293   1      16.177499999999988      61.115000000000002      52.127499999999991
   294   1      16.177499999999988      62.912499999999994      50.329999999999991
   295   1       14.37999999999999      61.115000000000002       53.92499999999999
   296   1       14.37999999999999      62.912499999999994      55.722499999999989
   297   1      16.177499999999988      61.115000000000002      55.722499999999989
   298   1      16.177499999999988      62.912499999999994       53.92499999999999
   299   1       14.37999999999999      61.115000000000002      57.519999999999989
   300   1       14.37999999999999      62.912499999999994      59.317499999999988
   301   1      16.177499999999988      61.115000000000002      59.317499999999988
   302   1      16.177499999999988      62.912499999999994      57.519999999999989
   303   1       14.37999999999999      61.115000000000002      61.115000000000002
   304   1       14.37999999999999      62.912499999999994      62.912499999999994
   305   1      16.177499999999988      61.115000000000002      62.912499999999994
   306   1      16.177499999999988      62.912499999999994      61.115000000000002
   307   1       14.37999999999999      61.115000000000002      64.710000000000008
   308   1       14.37999999999999      62.912499999999994      66.507499999999993
   309   1      16.177499999999988      61.115000000000002      66.507499999999993
   310   1      16.177499999999988      62.912499999999994      64.710000000000008
   311   1       14.37999999999999      61.115000000000002      68.305000000000007
   312   1       14.37999999999999      62.912499999999994      70.102499999999992
   313   1      16.177499999999988      61.115000000000002      70.102499999999992
   314   1      16.177499999999988      62.912499999999994      68.305000000000007
   315   1       14.37999999999999      61.115000000000002      71.900000000000006
   316   1       14.37999999999999      62.912499999999994      73.697499999999991
   317   1      16.177499999999988      61.115000000000002      73.697499999999991
   318   1      16.177499999999988      62.912499999999994      71.900000000000006
   319   1       14.37999999999999      61.115000000000002      75.495000000000005
   320   1      16.177499999999988      61.115000000000002       77.29249999999999
   321   1      16.177499999999988      62.912499999999994      75.495000000000005
   322   1      16.177499999999988      64.710000000000008      48.532499999999992
   323   1       14.37999999999999      64.710000000000008      50.329999999999991
   324   1       14.37999999999999      66.507499999999993      52.127499999999991
   325   1      16.177499999999988      64.710000000000008      52.127499999999991
   326   1      16.177499999999988      66.507499999999993      50.329999999999991
   327   1       14.37999999999999      64.710000000000008       53.92499999999999
   328   1       14.37999999999999      66.507499999999993      55.722499999999989
   329   1      16.177499999999988      64.710000000000008      55.722499999999989
   330   1      16.177499999999988      66.507499999999993       53.92499999999999
   331   1       14.37999999999999      64.710000000000008      57.519999999999989
   332   1       14.37999999999999      66.507499999999993      59.317499999999988
   333   1      16.177499999999988      64.710000000000008      59.317499999999988
   334   1      16.177499999999988      66.507499999999993      57.519999999999989
   335   1       14.37999999999999      64.710000000000008      61.115000000000002
   336   1       14.37999999999999      66.507499999999993      62.912499999999994
   337   1      16.177499999999988      64.710000000000008      62.912499999999994
   338   1      16.177499999999988      66.507499999999993      61.115000000000002
   339   1       14.37999999999999      64.710000000000008      64.710000000000008
   340   1       14.37999999999999      66.507499999999993      66.507499999999993
   341   1      16.177499999999988      64.710000000000008      66.507499999999993
   342   1      16.177499999999988      66.507499999999993      64.710000000000008
   343   1       14.37999999999999      64.710000000000008      68.305000000000007
   344   1       14.37999999999999      66.507499999999993      70.102499999999992
   345   1      16.177499999999988      64.710000000000008      70.102499999999992
   346   1      16.177499999999988      66.507499999999993      68.305000000000007
   347   1       14.37999999999999      64.710000000000008      71.900000000000006
   348   1      16.177499999999988      64.710000000000008      73.697499999999991
   349   1      16.177499999999988      66.507499999999993      71.900000000000006
   350   1      16.177499999999988      68.305000000000007      52.127499999999991
   351   1       14.37999999999999      68.305000000000007       53.92499999999999
   352   1       14.37999999999999      70.102499999999992      55.722499999999989
   353   1      16.177499999999988      68.305000000000007      55.722499999999989
   354   1      16.177499999999988      70.102499999999992       53.92499999999999
   355   1       14.37999999999999      68.305000000000007      57.519999999999989
   356   1       14.37999999999999      70.102499999999992      59.317499999999988
   357   1      16.177499999999988      68.305000000000007      59.317499999999988
   358   1      16.177499999999988      70.102499999999992      57.519999999999989