model_files/CuNi/CuNi_30000/CuNi_421/CuNi_421_fcc_30423_temp.data (written by ASE) 

30423 	 atoms 
2  atom types
0.0                      92  xlo xhi
0.0                      92  ylo yhi
0.0                      92  zlo zhi


Atoms 

     1   1      1.7830000000000013                  41.009      42.792000000000002
     2   1      1.7830000000000013                  41.009      46.358000000000004
     3   1      1.7830000000000013                  41.009      49.923999999999992
     4   1      1.7830000000000013      42.792000000000002                  41.009
     5   1                       0      44.575000000000003      44.575000000000003
     6   1      1.7830000000000013      42.792000000000002      44.575000000000003
     7   1      1.7830000000000013      44.575000000000003      42.792000000000002
     8   1                       0      42.792000000000002      46.358000000000004
     9   1                       0      44.575000000000003      48.140999999999998
    10   1      1.7830000000000013      42.792000000000002      48.140999999999998
    11   1      1.7830000000000013      44.575000000000003      46.358000000000004
    12   1      1.7830000000000013      42.792000000000002      51.707000000000001
    13   1      1.7830000000000013      44.575000000000003      49.923999999999992
    14   1      1.7830000000000013      46.358000000000004                  41.009
    15   1                       0      46.358000000000004      42.792000000000002
    16   1                       0      48.140999999999998      44.575000000000003
    17   1      1.7830000000000013      46.358000000000004      44.575000000000003
    18   1      1.7830000000000013      48.140999999999998      42.792000000000002
    19   1                       0      46.358000000000004      46.358000000000004
    20   1                       0      48.140999999999998      48.140999999999998
    21   1      1.7830000000000013      46.358000000000004      48.140999999999998
    22   1      1.7830000000000013      48.140999999999998      46.358000000000004
    23   1                       0      46.358000000000004      49.923999999999992
    24   1      1.7830000000000013      46.358000000000004      51.707000000000001
    25   1      1.7830000000000013      48.140999999999998      49.923999999999992
    26   1      1.7830000000000013      49.923999999999992                  41.009
    27   1      1.7830000000000013      49.923999999999992      44.575000000000003
    28   1      1.7830000000000013      51.707000000000001      42.792000000000002
    29   1                       0      49.923999999999992      46.358000000000004
    30   1      1.7830000000000013      49.923999999999992      48.140999999999998
    31   1      1.7830000000000013      51.707000000000001      46.358000000000004
    32   1      1.7830000000000013      49.923999999999992      51.707000000000001
    33   1      1.7830000000000013      51.707000000000001      49.923999999999992
    34   1      5.3489999999999966      33.877000000000002      42.792000000000002
    35   1      5.3489999999999966      33.877000000000002      46.358000000000004
    36   1      5.3489999999999966      33.877000000000002      49.923999999999992
    37   1      5.3489999999999966      35.660000000000004                  41.009
    38   1      5.3489999999999966      37.443000000000005      39.225999999999999
    39   1      3.5659999999999954      37.443000000000005      44.575000000000003
    40   1      5.3489999999999966      35.660000000000004      44.575000000000003
    41   1      5.3489999999999966      37.443000000000005      42.792000000000002
    42   1      3.5659999999999954      35.660000000000004      46.358000000000004
    43   1      3.5659999999999954      37.443000000000005      48.140999999999998
    44   1      5.3489999999999966      35.660000000000004      48.140999999999998
    45   1      5.3489999999999966      37.443000000000005      46.358000000000004
    46   1      5.3489999999999966      35.660000000000004      51.707000000000001
    47   1      5.3489999999999966      37.443000000000005      49.923999999999992
    48   1      5.3489999999999966      37.443000000000005      53.489999999999995
    49   1      5.3489999999999966      39.225999999999999      37.443000000000005
    50   1      5.3489999999999966                  41.009      35.660000000000004
    51   1      3.5659999999999954      39.225999999999999      39.225999999999999
    52   1      3.5659999999999954                  41.009                  41.009
    53   1      5.3489999999999966      39.225999999999999                  41.009
    54   1      5.3489999999999966                  41.009      39.225999999999999
    55   1      3.5659999999999954      39.225999999999999      42.792000000000002
    56   1      3.5659999999999954                  41.009      44.575000000000003
    57   1      5.3489999999999966      39.225999999999999      44.575000000000003
    58   1      5.3489999999999966                  41.009      42.792000000000002
    59   1      3.5659999999999954      39.225999999999999      46.358000000000004
    60   1      3.5659999999999954                  41.009      48.140999999999998
    61   1      5.3489999999999966      39.225999999999999      48.140999999999998
    62   1      5.3489999999999966                  41.009      46.358000000000004
    63   1      3.5659999999999954      39.225999999999999      49.923999999999992
    64   1      3.5659999999999954                  41.009      51.707000000000001
    65   1      5.3489999999999966      39.225999999999999      51.707000000000001
    66   1      5.3489999999999966                  41.009      49.923999999999992
    67   1      3.5659999999999954      39.225999999999999      53.489999999999995
    68   1      5.3489999999999966      39.225999999999999      55.273000000000003
    69   1      5.3489999999999966                  41.009      53.489999999999995
    70   1      5.3489999999999966                  41.009      57.055999999999997
    71   1      5.3489999999999966      42.792000000000002      33.877000000000002
    72   1      3.5659999999999954      44.575000000000003      37.443000000000005
    73   1      5.3489999999999966      42.792000000000002      37.443000000000005
    74   1      5.3489999999999966      44.575000000000003      35.660000000000004
    75   1      3.5659999999999954      42.792000000000002      39.225999999999999
    76   1      3.5659999999999954      44.575000000000003                  41.009
    77   1      5.3489999999999966      42.792000000000002                  41.009
    78   1      5.3489999999999966      44.575000000000003      39.225999999999999
    79   1      3.5659999999999954      42.792000000000002      42.792000000000002
    80   1      3.5659999999999954      44.575000000000003      44.575000000000003
    81   1      5.3489999999999966      42.792000000000002      44.575000000000003
    82   1      5.3489999999999966      44.575000000000003      42.792000000000002
    83   1      3.5659999999999954      42.792000000000002      46.358000000000004
    84   1      3.5659999999999954      44.575000000000003      48.140999999999998
    85   1      5.3489999999999966      42.792000000000002      48.140999999999998
    86   1      5.3489999999999966      44.575000000000003      46.358000000000004
    87   1      3.5659999999999954      42.792000000000002      49.923999999999992
    88   1      3.5659999999999954      44.575000000000003      51.707000000000001
    89   1      5.3489999999999966      42.792000000000002      51.707000000000001
    90   1      5.3489999999999966      44.575000000000003      49.923999999999992
    91   1      3.5659999999999954      42.792000000000002      53.489999999999995
    92   1      3.5659999999999954      44.575000000000003      55.273000000000003
    93   1      5.3489999999999966      42.792000000000002      55.273000000000003
    94   1      5.3489999999999966      44.575000000000003      53.489999999999995
    95   1      5.3489999999999966      42.792000000000002      58.839000000000006
    96   1      5.3489999999999966      44.575000000000003      57.055999999999997
    97   1      5.3489999999999966      46.358000000000004      33.877000000000002
    98   1      3.5659999999999954      46.358000000000004      35.660000000000004
    99   1      3.5659999999999954      48.140999999999998      37.443000000000005
   100   1      5.3489999999999966      46.358000000000004      37.443000000000005
   101   1      5.3489999999999966      48.140999999999998      35.660000000000004
   102   1      3.5659999999999954      46.358000000000004      39.225999999999999
   103   1      3.5659999999999954      48.140999999999998                  41.009
   104   1      5.3489999999999966      46.358000000000004                  41.009
   105   1      5.3489999999999966      48.140999999999998      39.225999999999999
   106   1      3.5659999999999954      46.358000000000004      42.792000000000002
   107   1      3.5659999999999954      48.140999999999998      44.575000000000003
   108   1      5.3489999999999966      46.358000000000004      44.575000000000003
   109   1      5.3489999999999966      48.140999999999998      42.792000000000002
   110   1      3.5659999999999954      46.358000000000004      46.358000000000004
   111   1      3.5659999999999954      48.140999999999998      48.140999999999998
   112   1      5.3489999999999966      46.358000000000004      48.140999999999998
   113   1      5.3489999999999966      48.140999999999998      46.358000000000004
   114   1      3.5659999999999954      46.358000000000004      49.923999999999992
   115   1      3.5659999999999954      48.140999999999998      51.707000000000001
   116   1      5.3489999999999966      46.358000000000004      51.707000000000001
   117   1      5.3489999999999966      48.140999999999998      49.923999999999992
   118   1      3.5659999999999954      46.358000000000004      53.489999999999995
   119   1      3.5659999999999954      48.140999999999998      55.273000000000003
   120   1      5.3489999999999966      46.358000000000004      55.273000000000003
   121   1      5.3489999999999966      48.140999999999998      53.489999999999995
   122   1      3.5659999999999954      46.358000000000004      57.055999999999997
   123   1      5.3489999999999966      46.358000000000004      58.839000000000006
   124   1      5.3489999999999966      48.140999999999998      57.055999999999997
   125   1      5.3489999999999966      49.923999999999992      33.877000000000002
   126   1      5.3489999999999966      49.923999999999992      37.443000000000005
   127   1      5.3489999999999966      51.707000000000001      35.660000000000004
   128   1      3.5659999999999954      49.923999999999992      39.225999999999999
   129   1      3.5659999999999954      51.707000000000001                  41.009
   130   1      5.3489999999999966      49.923999999999992                  41.009
   131   1      5.3489999999999966      51.707000000000001      39.225999999999999
   132   1      3.5659999999999954      49.923999999999992      42.792000000000002
   133   1      3.5659999999999954      51.707000000000001      44.575000000000003
   134   1      5.3489999999999966      49.923999999999992      44.575000000000003
   135   1      5.3489999999999966      51.707000000000001      42.792000000000002
   136   1      3.5659999999999954      49.923999999999992      46.358000000000004
   137   1      3.5659999999999954      51.707000000000001      48.140999999999998
   138   1      5.3489999999999966      49.923999999999992      48.140999999999998
   139   1      5.3489999999999966      51.707000000000001      46.358000000000004
   140   1      3.5659999999999954      49.923999999999992      49.923999999999992
   141   1      3.5659999999999954      51.707000000000001      51.707000000000001
   142   1      5.3489999999999966      49.923999999999992      51.707000000000001
   143   1      5.3489999999999966      51.707000000000001      49.923999999999992
   144   1      3.5659999999999954      49.923999999999992      53.489999999999995
   145   1      5.3489999999999966      49.923999999999992      55.273000000000003
   146   1      5.3489999999999966      51.707000000000001      53.489999999999995
   147   1      5.3489999999999966      49.923999999999992      58.839000000000006
   148   1      5.3489999999999966      51.707000000000001      57.055999999999997
   149   1      5.3489999999999966      53.489999999999995      37.443000000000005
   150   1      3.5659999999999954      53.489999999999995      39.225999999999999
   151   1      5.3489999999999966      53.489999999999995                  41.009
   152   1      5.3489999999999966      55.273000000000003      39.225999999999999
   153   1      3.5659999999999954      53.489999999999995      42.792000000000002
   154   1      3.5659999999999954      55.273000000000003      44.575000000000003
   155   1      5.3489999999999966      53.489999999999995      44.575000000000003
   156   1      5.3489999999999966      55.273000000000003      42.792000000000002
   157   1      3.5659999999999954      53.489999999999995      46.358000000000004
   158   1      3.5659999999999954      55.273000000000003      48.140999999999998
   159   1      5.3489999999999966      53.489999999999995      48.140999999999998
   160   1      5.3489999999999966      55.273000000000003      46.358000000000004
   161   1      3.5659999999999954      53.489999999999995      49.923999999999992
   162   1      5.3489999999999966      53.489999999999995      51.707000000000001
   163   1      5.3489999999999966      55.273000000000003      49.923999999999992
   164   1      3.5659999999999954      53.489999999999995      53.489999999999995
   165   1      5.3489999999999966      53.489999999999995      55.273000000000003
   166   1      5.3489999999999966      55.273000000000003      53.489999999999995
   167   1      5.3489999999999966      57.055999999999997                  41.009
   168   1      5.3489999999999966      57.055999999999997      44.575000000000003
   169   1      5.3489999999999966      58.839000000000006      42.792000000000002
   170   1      3.5659999999999954      57.055999999999997      46.358000000000004
   171   1      5.3489999999999966      57.055999999999997      48.140999999999998
   172   1      5.3489999999999966      58.839000000000006      46.358000000000004
   173   1      5.3489999999999966      57.055999999999997      51.707000000000001
   174   1      5.3489999999999966      58.839000000000006      49.923999999999992
   175   1      8.9149999999999991      26.744999999999997      42.792000000000002
   176   1      8.9149999999999991      26.744999999999997      46.358000000000004
   177   1      8.9149999999999991      26.744999999999997      49.923999999999992
   178   1      8.9149999999999991                  30.311      35.660000000000004
   179   1      8.9149999999999991      28.527999999999999                  41.009
   180   1      8.9149999999999991                  30.311      39.225999999999999
   181   1       7.131999999999997                  30.311      44.575000000000003
   182   1      8.9149999999999991      28.527999999999999      44.575000000000003
   183   1      8.9149999999999991                  30.311      42.792000000000002
   184   1       7.131999999999997      28.527999999999999      46.358000000000004
   185   1       7.131999999999997                  30.311      48.140999999999998
   186   1      8.9149999999999991      28.527999999999999      48.140999999999998
   187   1      8.9149999999999991                  30.311      46.358000000000004
   188   1      8.9149999999999991      28.527999999999999      51.707000000000001
   189   1      8.9149999999999991                  30.311      49.923999999999992
   190   1      8.9149999999999991                  30.311      53.489999999999995
   191   1      8.9149999999999991                  30.311      57.055999999999997
   192   1      8.9149999999999991      32.094000000000001      33.877000000000002
   193   1      8.9149999999999991      33.877000000000002      32.094000000000001
   194   1       7.131999999999997      33.877000000000002      37.443000000000005
   195   1      8.9149999999999991      32.094000000000001      37.443000000000005
   196   1      8.9149999999999991      33.877000000000002      35.660000000000004
   197   1       7.131999999999997      32.094000000000001      39.225999999999999
   198   1       7.131999999999997      33.877000000000002                  41.009
   199   1      8.9149999999999991      32.094000000000001                  41.009
   200   1      8.9149999999999991      33.877000000000002      39.225999999999999
   201   1       7.131999999999997      32.094000000000001      42.792000000000002
   202   1       7.131999999999997      33.877000000000002      44.575000000000003
   203   1      8.9149999999999991      32.094000000000001      44.575000000000003
   204   1      8.9149999999999991      33.877000000000002      42.792000000000002
   205   1       7.131999999999997      32.094000000000001      46.358000000000004
   206   1       7.131999999999997      33.877000000000002      48.140999999999998
   207   1      8.9149999999999991      32.094000000000001      48.140999999999998
   208   1      8.9149999999999991      33.877000000000002      46.358000000000004
   209   1       7.131999999999997      32.094000000000001      49.923999999999992
   210   1       7.131999999999997      33.877000000000002      51.707000000000001
   211   1      8.9149999999999991      32.094000000000001      51.707000000000001
   212   1      8.9149999999999991      33.877000000000002      49.923999999999992
   213   1       7.131999999999997      32.094000000000001      53.489999999999995
   214   1       7.131999999999997      33.877000000000002      55.273000000000003
   215   1      8.9149999999999991      32.094000000000001      55.273000000000003
   216   1      8.9149999999999991      33.877000000000002      53.489999999999995
   217   1      8.9149999999999991      32.094000000000001      58.839000000000006
   218   1      8.9149999999999991      33.877000000000002      57.055999999999997
   219   1      8.9149999999999991      33.877000000000002                  60.622
   220   1      8.9149999999999991      35.660000000000004                  30.311
   221   1       7.131999999999997      37.443000000000005      33.877000000000002
   222   1      8.9149999999999991      35.660000000000004      33.877000000000002
   223   1      8.9149999999999991      37.443000000000005      32.094000000000001
   224   1       7.131999999999997      35.660000000000004      35.660000000000004
   225   1       7.131999999999997      37.443000000000005      37.443000000000005
   226   1      8.9149999999999991      35.660000000000004      37.443000000000005
   227   1      8.9149999999999991      37.443000000000005      35.660000000000004
   228   1       7.131999999999997      35.660000000000004      39.225999999999999
   229   1       7.131999999999997      37.443000000000005                  41.009
   230   1      8.9149999999999991      35.660000000000004                  41.009
   231   1      8.9149999999999991      37.443000000000005      39.225999999999999
   232   1       7.131999999999997      35.660000000000004      42.792000000000002
   233   1       7.131999999999997      37.443000000000005      44.575000000000003
   234   1      8.9149999999999991      35.660000000000004      44.575000000000003
   235   1      8.9149999999999991      37.443000000000005      42.792000000000002
   236   1       7.131999999999997      35.660000000000004      46.358000000000004
   237   1       7.131999999999997      37.443000000000005      48.140999999999998
   238   1      8.9149999999999991      35.660000000000004      48.140999999999998
   239   1      8.9149999999999991      37.443000000000005      46.358000000000004
   240   1       7.131999999999997      35.660000000000004      49.923999999999992
   241   1       7.131999999999997      37.443000000000005      51.707000000000001
   242   1      8.9149999999999991      35.660000000000004      51.707000000000001
   243   1      8.9149999999999991      37.443000000000005      49.923999999999992
   244   1       7.131999999999997      35.660000000000004      53.489999999999995
   245   1       7.131999999999997      37.443000000000005      55.273000000000003
   246   1      8.9149999999999991      35.660000000000004      55.273000000000003
   247   1      8.9149999999999991      37.443000000000005      53.489999999999995
   248   1       7.131999999999997      35.660000000000004      57.055999999999997
   249   1       7.131999999999997      37.443000000000005      58.839000000000006
   250   1      8.9149999999999991      35.660000000000004      58.839000000000006
   251   1      8.9149999999999991      37.443000000000005      57.055999999999997
   252   1      8.9149999999999991      35.660000000000004      62.404999999999994
   253   1      8.9149999999999991      37.443000000000005                  60.622
   254   1      8.9149999999999991      39.225999999999999                  30.311
   255   1      8.9149999999999991                  41.009      28.527999999999999
   256   1       7.131999999999997      39.225999999999999      32.094000000000001
   257   1       7.131999999999997                  41.009      33.877000000000002
   258   1      8.9149999999999991      39.225999999999999      33.877000000000002
   259   1      8.9149999999999991                  41.009      32.094000000000001
   260   1       7.131999999999997      39.225999999999999      35.660000000000004
   261   1       7.131999999999997                  41.009      37.443000000000005
   262   1      8.9149999999999991      39.225999999999999      37.443000000000005
   263   1      8.9149999999999991                  41.009      35.660000000000004
   264   1       7.131999999999997      39.225999999999999      39.225999999999999
   265   1       7.131999999999997                  41.009                  41.009
   266   1      8.9149999999999991      39.225999999999999                  41.009
   267   1      8.9149999999999991                  41.009      39.225999999999999
   268   1       7.131999999999997      39.225999999999999      42.792000000000002
   269   1       7.131999999999997                  41.009      44.575000000000003
   270   1      8.9149999999999991      39.225999999999999      44.575000000000003
   271   1      8.9149999999999991                  41.009      42.792000000000002
   272   1       7.131999999999997      39.225999999999999      46.358000000000004
   273   1       7.131999999999997                  41.009      48.140999999999998
   274   1      8.9149999999999991      39.225999999999999      48.140999999999998
   275   1      8.9149999999999991                  41.009      46.358000000000004
   276   1       7.131999999999997      39.225999999999999      49.923999999999992
   277   1       7.131999999999997                  41.009      51.707000000000001
   278   1      8.9149999999999991      39.225999999999999      51.707000000000001
   279   1      8.9149999999999991                  41.009      49.923999999999992
   280   1       7.131999999999997      39.225999999999999      53.489999999999995
   281   1       7.131999999999997                  41.009      55.273000000000003
   282   1      8.9149999999999991      39.225999999999999      55.273000000000003
   283   1      8.9149999999999991                  41.009      53.489999999999995
   284   1       7.131999999999997      39.225999999999999      57.055999999999997
   285   1       7.131999999999997                  41.009      58.839000000000006
   286   1      8.9149999999999991      39.225999999999999      58.839000000000006
   287   1      8.9149999999999991                  41.009      57.055999999999997
   288   1       7.131999999999997      39.225999999999999                  60.622
   289   1      8.9149999999999991      39.225999999999999      62.404999999999994
   290   1      8.9149999999999991                  41.009                  60.622
   291   1      8.9149999999999991                  41.009      64.188000000000002
   292   1      8.9149999999999991      42.792000000000002      26.744999999999997
   293   1       7.131999999999997      44.575000000000003                  30.311
   294   1      8.9149999999999991      42.792000000000002                  30.311
   295   1      8.9149999999999991      44.575000000000003      28.527999999999999
   296   1       7.131999999999997      42.792000000000002      32.094000000000001
   297   1       7.131999999999997      44.575000000000003      33.877000000000002
   298   1      8.9149999999999991      42.792000000000002      33.877000000000002
   299   1      8.9149999999999991      44.575000000000003      32.094000000000001
   300   1       7.131999999999997      42.792000000000002      35.660000000000004
   301   1       7.131999999999997      44.575000000000003      37.443000000000005
   302   1      8.9149999999999991      42.792000000000002      37.443000000000005
   303   1      8.9149999999999991      44.575000000000003      35.660000000000004
   304   1       7.131999999999997      42.792000000000002      39.225999999999999
   305   1       7.131999999999997      44.575000000000003                  41.009
   306   1      8.9149999999999991      42.792000000000002                  41.009
   307   1      8.9149999999999991      44.575000000000003      39.225999999999999
   308   1       7.131999999999997      42.792000000000002      42.792000000000002
   309   1       7.131999999999997      44.575000000000003      44.575000000000003
   310   1      8.9149999999999991      42.792000000000002      44.575000000000003
   311   1      8.9149999999999991      44.575000000000003      42.792000000000002
   312   1       7.131999999999997      42.792000000000002      46.358000000000004
   313   1       7.131999999999997      44.575000000000003      48.140999999999998
   314   1      8.9149999999999991      42.792000000000002      48.140999999999998
   315   1      8.9149999999999991      44.575000000000003      46.358000000000004
   316   1       7.131999999999997      42.792000000000002      49.923999999999992
   317   1       7.131999999999997      44.575000000000003      51.707000000000001
   318   1      8.9149999999999991      42.792000000000002      51.707000000000001
   319   1      8.9149999999999991      44.575000000000003      49.923999999999992
   320   1       7.131999999999997      42.792000000000002      53.489999999999995
   321   1       7.131999999999997      44.575000000000003      55.273000000000003
   322   1      8.9149999999999991      42.792000000000002      55.273000000000003
   323   1      8.9149999999999991      44.575000000000003      53.489999999999995
   324   1       7.131999999999997      42.792000000000002      57.055999999999997
   325   1       7.131999999999997      44.575000000000003      58.839000000000006
   326   1      8.9149999999999991      42.792000000000002      58.839000000000006
   327   1      8.9149999999999991      44.575000000000003      57.055999999999997
   328   1       7.131999999999997      42.792000000000002                  60.622
   329   1       7.131999999999997      44.575000000000003      62.404999999999994
   330   1      8.9149999999999991      42.792000000000002      62.404999999999994
   331   1      8.9149999999999991      44.575000000000003                  60.622
   332   1      8.9149999999999991      42.792000000000002      65.971000000000004
   333   1      8.9149999999999991      44.575000000000003      64.188000000000002
   334   1      8.9149999999999991      46.358000000000004      26.744999999999997
   335   1       7.131999999999997      46.358000000000004      28.527999999999999
   336   1       7.131999999999997      48.140999999999998                  30.311
   337   1      8.9149999999999991      46.358000000000004                  30.311
   338   1      8.9149999999999991      48.140999999999998      28.527999999999999
   339   1       7.131999999999997      46.358000000000004      32.094000000000001
   340   1       7.131999999999997      48.140999999999998      33.877000000000002
   341   1      8.9149999999999991      46.358000000000004      33.877000000000002
   342   1      8.9149999999999991      48.140999999999998      32.094000000000001
   343   1       7.131999999999997      46.358000000000004      35.660000000000004
   344   1       7.131999999999997      48.140999999999998      37.443000000000005
   345   1      8.9149999999999991      46.358000000000004      37.443000000000005
   346   1      8.9149999999999991      48.140999999999998      35.660000000000004
   347   1       7.131999999999997      46.358000000000004      39.225999999999999
   348   1       7.131999999999997      48.140999999999998                  41.009
   349   1      8.9149999999999991      46.358000000000004                  41.009
   350   1      8.9149999999999991      48.140999999999998      39.225999999999999
   351   1       7.131999999999997      46.358000000000004      42.792000000000002
   352   1       7.131999999999997      48.140999999999998      44.575000000000003
   353   1      8.9149999999999991      46.358000000000004      44.575000000000003
   354   1      8.9149999999999991      48.140999999999998      42.792000000000002
   355   1       7.131999999999997      46.358000000000004      46.358000000000004
   356   1       7.131999999999997      48.140999999999998      48.140999999999998
   357   1      8.9149999999999991      46.358000000000004      48.140999999999998
   358   1      8.9149999999999991      48.140999999999998      46.358000000000004