model_files/Ni/Ni_30000/Ni_511/data.Ni_511_fcc_30527 (written by ASE) 

30527 	 atoms 
1  atom types
0.0                      80  xlo xhi
0.0                      80  ylo yhi
0.0                      80  zlo zhi


Atoms 

     1   1      79.999999999999986      38.719999999999992      40.480000000000004
     2   1      79.999999999999986      40.480000000000004      38.719999999999992
     3   1      79.999999999999986      40.480000000000004      42.239999999999995
     4   1      79.999999999999986      42.239999999999995      40.480000000000004
     5   1      3.5199999999999965      21.119999999999997      40.480000000000004
     6   1      3.5199999999999965      22.879999999999999      38.719999999999992
     7   1      3.5199999999999965      24.640000000000001      36.959999999999994
     8   1      3.5199999999999965      22.879999999999999      42.239999999999995
     9   1      3.5199999999999965      24.640000000000001      40.480000000000004
    10   1      3.5199999999999965      24.640000000000001      43.999999999999993
    11   1      3.5199999999999965      26.399999999999999      35.199999999999996
    12   1      3.5199999999999965      28.159999999999997      33.439999999999998
    13   1      3.5199999999999965      26.399999999999999      38.719999999999992
    14   1      3.5199999999999965      28.159999999999997      36.959999999999994
    15   1      3.5199999999999965      26.399999999999999      42.239999999999995
    16   1      3.5199999999999965      28.159999999999997      40.480000000000004
    17   1      3.5199999999999965      26.399999999999999      45.759999999999998
    18   1      3.5199999999999965      28.159999999999997      43.999999999999993
    19   1      3.5199999999999965      28.159999999999997      47.519999999999996
    20   1      3.5199999999999965      29.919999999999995      31.679999999999993
    21   1      3.5199999999999965      31.679999999999993      29.919999999999995
    22   1      3.5199999999999965      29.919999999999995      35.199999999999996
    23   1      3.5199999999999965      31.679999999999993      33.439999999999998
    24   1      1.7599999999999982      31.679999999999993      38.719999999999992
    25   1      3.5199999999999965      29.919999999999995      38.719999999999992
    26   1      3.5199999999999965      31.679999999999993      36.959999999999994
    27   1      1.7599999999999982      29.919999999999995      40.480000000000004
    28   1      1.7599999999999982      31.679999999999993      42.239999999999995
    29   1      3.5199999999999965      29.919999999999995      42.239999999999995
    30   1      3.5199999999999965      31.679999999999993      40.480000000000004
    31   1      3.5199999999999965      29.919999999999995      45.759999999999998
    32   1      3.5199999999999965      31.679999999999993      43.999999999999993
    33   1      3.5199999999999965      29.919999999999995      49.280000000000001
    34   1      3.5199999999999965      31.679999999999993      47.519999999999996
    35   1      3.5199999999999965      31.679999999999993      51.039999999999992
    36   1      3.5199999999999965      33.439999999999998      28.159999999999997
    37   1      3.5199999999999965      35.199999999999996      26.399999999999999
    38   1      3.5199999999999965      33.439999999999998      31.679999999999993
    39   1      3.5199999999999965      35.199999999999996      29.919999999999995
    40   1      1.7599999999999982      35.199999999999996      35.199999999999996
    41   1      3.5199999999999965      33.439999999999998      35.199999999999996
    42   1      3.5199999999999965      35.199999999999996      33.439999999999998
    43   1      1.7599999999999982      33.439999999999998      36.959999999999994
    44   1      1.7599999999999982      35.199999999999996      38.719999999999992
    45   1      3.5199999999999965      33.439999999999998      38.719999999999992
    46   1      3.5199999999999965      35.199999999999996      36.959999999999994
    47   1      1.7599999999999982      33.439999999999998      40.480000000000004
    48   1      1.7599999999999982      35.199999999999996      42.239999999999995
    49   1      3.5199999999999965      33.439999999999998      42.239999999999995
    50   1      3.5199999999999965      35.199999999999996      40.480000000000004
    51   1      1.7599999999999982      33.439999999999998      43.999999999999993
    52   1      1.7599999999999982      35.199999999999996      45.759999999999998
    53   1      3.5199999999999965      33.439999999999998      45.759999999999998
    54   1      3.5199999999999965      35.199999999999996      43.999999999999993
    55   1      3.5199999999999965      33.439999999999998      49.280000000000001
    56   1      3.5199999999999965      35.199999999999996      47.519999999999996
    57   1      3.5199999999999965      33.439999999999998      52.799999999999997
    58   1      3.5199999999999965      35.199999999999996      51.039999999999992
    59   1      3.5199999999999965      35.199999999999996      54.559999999999995
    60   1      3.5199999999999965      36.959999999999994      24.640000000000001
    61   1      3.5199999999999965      38.719999999999992      22.879999999999999
    62   1      3.5199999999999965      36.959999999999994      28.159999999999997
    63   1      3.5199999999999965      38.719999999999992      26.399999999999999
    64   1      1.7599999999999982      38.719999999999992      31.679999999999993
    65   1      3.5199999999999965      36.959999999999994      31.679999999999993
    66   1      3.5199999999999965      38.719999999999992      29.919999999999995
    67   1      1.7599999999999982      36.959999999999994      33.439999999999998
    68   1      1.7599999999999982      38.719999999999992      35.199999999999996
    69   1      3.5199999999999965      36.959999999999994      35.199999999999996
    70   1      3.5199999999999965      38.719999999999992      33.439999999999998
    71   1      1.7599999999999982      36.959999999999994      36.959999999999994
    72   1      1.7599999999999982      38.719999999999992      38.719999999999992
    73   1      3.5199999999999965      36.959999999999994      38.719999999999992
    74   1      3.5199999999999965      38.719999999999992      36.959999999999994
    75   1      1.7599999999999982      36.959999999999994      40.480000000000004
    76   1      1.7599999999999982      38.719999999999992      42.239999999999995
    77   1      3.5199999999999965      36.959999999999994      42.239999999999995
    78   1      3.5199999999999965      38.719999999999992      40.480000000000004
    79   1      1.7599999999999982      36.959999999999994      43.999999999999993
    80   1      1.7599999999999982      38.719999999999992      45.759999999999998
    81   1      3.5199999999999965      36.959999999999994      45.759999999999998
    82   1      3.5199999999999965      38.719999999999992      43.999999999999993
    83   1      1.7599999999999982      36.959999999999994      47.519999999999996
    84   1      1.7599999999999982      38.719999999999992      49.280000000000001
    85   1      3.5199999999999965      36.959999999999994      49.280000000000001
    86   1      3.5199999999999965      38.719999999999992      47.519999999999996
    87   1      3.5199999999999965      36.959999999999994      52.799999999999997
    88   1      3.5199999999999965      38.719999999999992      51.039999999999992
    89   1      3.5199999999999965      36.959999999999994      56.319999999999993
    90   1      3.5199999999999965      38.719999999999992      54.559999999999995
    91   1      3.5199999999999965      38.719999999999992      58.079999999999998
    92   1      3.5199999999999965      40.480000000000004      21.119999999999997
    93   1      3.5199999999999965      40.480000000000004      24.640000000000001
    94   1      3.5199999999999965      42.239999999999995      22.879999999999999
    95   1      3.5199999999999965      40.480000000000004      28.159999999999997
    96   1      3.5199999999999965      42.239999999999995      26.399999999999999
    97   1      1.7599999999999982      40.480000000000004      29.919999999999995
    98   1      1.7599999999999982      42.239999999999995      31.679999999999993
    99   1      3.5199999999999965      40.480000000000004      31.679999999999993
   100   1      3.5199999999999965      42.239999999999995      29.919999999999995
   101   1      1.7599999999999982      40.480000000000004      33.439999999999998
   102   1      1.7599999999999982      42.239999999999995      35.199999999999996
   103   1      3.5199999999999965      40.480000000000004      35.199999999999996
   104   1      3.5199999999999965      42.239999999999995      33.439999999999998
   105   1      1.7599999999999982      40.480000000000004      36.959999999999994
   106   1      1.7599999999999982      42.239999999999995      38.719999999999992
   107   1      3.5199999999999965      40.480000000000004      38.719999999999992
   108   1      3.5199999999999965      42.239999999999995      36.959999999999994
   109   1      1.7599999999999982      40.480000000000004      40.480000000000004
   110   1      1.7599999999999982      42.239999999999995      42.239999999999995
   111   1      3.5199999999999965      40.480000000000004      42.239999999999995
   112   1      3.5199999999999965      42.239999999999995      40.480000000000004
   113   1      1.7599999999999982      40.480000000000004      43.999999999999993
   114   1      1.7599999999999982      42.239999999999995      45.759999999999998
   115   1      3.5199999999999965      40.480000000000004      45.759999999999998
   116   1      3.5199999999999965      42.239999999999995      43.999999999999993
   117   1      1.7599999999999982      40.480000000000004      47.519999999999996
   118   1      1.7599999999999982      42.239999999999995      49.280000000000001
   119   1      3.5199999999999965      40.480000000000004      49.280000000000001
   120   1      3.5199999999999965      42.239999999999995      47.519999999999996
   121   1      1.7599999999999982      40.480000000000004      51.039999999999992
   122   1      3.5199999999999965      40.480000000000004      52.799999999999997
   123   1      3.5199999999999965      42.239999999999995      51.039999999999992
   124   1      3.5199999999999965      40.480000000000004      56.319999999999993
   125   1      3.5199999999999965      42.239999999999995      54.559999999999995
   126   1      3.5199999999999965      40.480000000000004      59.840000000000003
   127   1      3.5199999999999965      42.239999999999995      58.079999999999998
   128   1      3.5199999999999965      43.999999999999993      24.640000000000001
   129   1      3.5199999999999965      43.999999999999993      28.159999999999997
   130   1      3.5199999999999965      45.759999999999998      26.399999999999999
   131   1      3.5199999999999965      43.999999999999993      31.679999999999993
   132   1      3.5199999999999965      45.759999999999998      29.919999999999995
   133   1      1.7599999999999982      43.999999999999993      33.439999999999998
   134   1      1.7599999999999982      45.759999999999998      35.199999999999996
   135   1      3.5199999999999965      43.999999999999993      35.199999999999996
   136   1      3.5199999999999965      45.759999999999998      33.439999999999998
   137   1      1.7599999999999982      43.999999999999993      36.959999999999994
   138   1      1.7599999999999982      45.759999999999998      38.719999999999992
   139   1      3.5199999999999965      43.999999999999993      38.719999999999992
   140   1      3.5199999999999965      45.759999999999998      36.959999999999994
   141   1      1.7599999999999982      43.999999999999993      40.480000000000004
   142   1      1.7599999999999982      45.759999999999998      42.239999999999995
   143   1      3.5199999999999965      43.999999999999993      42.239999999999995
   144   1      3.5199999999999965      45.759999999999998      40.480000000000004
   145   1      1.7599999999999982      43.999999999999993      43.999999999999993
   146   1      1.7599999999999982      45.759999999999998      45.759999999999998
   147   1      3.5199999999999965      43.999999999999993      45.759999999999998
   148   1      3.5199999999999965      45.759999999999998      43.999999999999993
   149   1      1.7599999999999982      43.999999999999993      47.519999999999996
   150   1      3.5199999999999965      43.999999999999993      49.280000000000001
   151   1      3.5199999999999965      45.759999999999998      47.519999999999996
   152   1      3.5199999999999965      43.999999999999993      52.799999999999997
   153   1      3.5199999999999965      45.759999999999998      51.039999999999992
   154   1      3.5199999999999965      43.999999999999993      56.319999999999993
   155   1      3.5199999999999965      45.759999999999998      54.559999999999995
   156   1      3.5199999999999965      47.519999999999996      28.159999999999997
   157   1      3.5199999999999965      47.519999999999996      31.679999999999993
   158   1      3.5199999999999965      49.280000000000001      29.919999999999995
   159   1      3.5199999999999965      47.519999999999996      35.199999999999996
   160   1      3.5199999999999965      49.280000000000001      33.439999999999998
   161   1      1.7599999999999982      47.519999999999996      36.959999999999994
   162   1      1.7599999999999982      49.280000000000001      38.719999999999992
   163   1      3.5199999999999965      47.519999999999996      38.719999999999992
   164   1      3.5199999999999965      49.280000000000001      36.959999999999994
   165   1      1.7599999999999982      47.519999999999996      40.480000000000004
   166   1      1.7599999999999982      49.280000000000001      42.239999999999995
   167   1      3.5199999999999965      47.519999999999996      42.239999999999995
   168   1      3.5199999999999965      49.280000000000001      40.480000000000004
   169   1      1.7599999999999982      47.519999999999996      43.999999999999993
   170   1      3.5199999999999965      47.519999999999996      45.759999999999998
   171   1      3.5199999999999965      49.280000000000001      43.999999999999993
   172   1      3.5199999999999965      47.519999999999996      49.280000000000001
   173   1      3.5199999999999965      49.280000000000001      47.519999999999996
   174   1      3.5199999999999965      47.519999999999996      52.799999999999997
   175   1      3.5199999999999965      49.280000000000001      51.039999999999992
   176   1      3.5199999999999965      51.039999999999992      31.679999999999993
   177   1      3.5199999999999965      51.039999999999992      35.199999999999996
   178   1      3.5199999999999965      52.799999999999997      33.439999999999998
   179   1      3.5199999999999965      51.039999999999992      38.719999999999992
   180   1      3.5199999999999965      52.799999999999997      36.959999999999994
   181   1      1.7599999999999982      51.039999999999992      40.480000000000004
   182   1      3.5199999999999965      51.039999999999992      42.239999999999995
   183   1      3.5199999999999965      52.799999999999997      40.480000000000004
   184   1      3.5199999999999965      51.039999999999992      45.759999999999998
   185   1      3.5199999999999965      52.799999999999997      43.999999999999993
   186   1      3.5199999999999965      51.039999999999992      49.280000000000001
   187   1      3.5199999999999965      52.799999999999997      47.519999999999996
   188   1      3.5199999999999965      54.559999999999995      35.199999999999996
   189   1      3.5199999999999965      54.559999999999995      38.719999999999992
   190   1      3.5199999999999965      56.319999999999993      36.959999999999994
   191   1      3.5199999999999965      54.559999999999995      42.239999999999995
   192   1      3.5199999999999965      56.319999999999993      40.480000000000004
   193   1      3.5199999999999965      54.559999999999995      45.759999999999998
   194   1      3.5199999999999965      56.319999999999993      43.999999999999993
   195   1      3.5199999999999965      58.079999999999998      38.719999999999992
   196   1      3.5199999999999965      58.079999999999998      42.239999999999995
   197   1      3.5199999999999965      59.840000000000003      40.480000000000004
   198   1      7.0399999999999991      7.0399999999999991      36.959999999999994
   199   1      7.0399999999999991      7.0399999999999991      40.480000000000004
   200   1      7.0399999999999991      7.0399999999999991      43.999999999999993
   201   1      7.0399999999999991      8.7999999999999972      35.199999999999996
   202   1      7.0399999999999991      10.559999999999995      33.439999999999998
   203   1      7.0399999999999991      8.7999999999999972      38.719999999999992
   204   1      7.0399999999999991      10.559999999999995      36.959999999999994
   205   1      7.0399999999999991      8.7999999999999972      42.239999999999995
   206   1      7.0399999999999991      10.559999999999995      40.480000000000004
   207   1      7.0399999999999991      8.7999999999999972      45.759999999999998
   208   1      7.0399999999999991      10.559999999999995      43.999999999999993
   209   1      7.0399999999999991      10.559999999999995      47.519999999999996
   210   1      7.0399999999999991      12.319999999999993      31.679999999999993
   211   1      7.0399999999999991      14.079999999999995      29.919999999999995
   212   1      7.0399999999999991      12.319999999999993      35.199999999999996
   213   1      7.0399999999999991      14.079999999999995      33.439999999999998
   214   1      5.2799999999999949      14.079999999999995      38.719999999999992
   215   1      7.0399999999999991      12.319999999999993      38.719999999999992
   216   1      7.0399999999999991      14.079999999999995      36.959999999999994
   217   1      5.2799999999999949      12.319999999999993      40.480000000000004
   218   1      5.2799999999999949      14.079999999999995      42.239999999999995
   219   1      7.0399999999999991      12.319999999999993      42.239999999999995
   220   1      7.0399999999999991      14.079999999999995      40.480000000000004
   221   1      7.0399999999999991      12.319999999999993      45.759999999999998
   222   1      7.0399999999999991      14.079999999999995      43.999999999999993
   223   1      7.0399999999999991      12.319999999999993      49.280000000000001
   224   1      7.0399999999999991      14.079999999999995      47.519999999999996
   225   1      7.0399999999999991      14.079999999999995      51.039999999999992
   226   1      7.0399999999999991      15.839999999999996      28.159999999999997
   227   1      7.0399999999999991      17.599999999999998      26.399999999999999
   228   1      7.0399999999999991      15.839999999999996      31.679999999999993
   229   1      7.0399999999999991      17.599999999999998      29.919999999999995
   230   1      5.2799999999999949      17.599999999999998      35.199999999999996
   231   1      7.0399999999999991      15.839999999999996      35.199999999999996
   232   1      7.0399999999999991      17.599999999999998      33.439999999999998
   233   1      5.2799999999999949      15.839999999999996      36.959999999999994
   234   1      5.2799999999999949      17.599999999999998      38.719999999999992
   235   1      7.0399999999999991      15.839999999999996      38.719999999999992
   236   1      7.0399999999999991      17.599999999999998      36.959999999999994
   237   1      5.2799999999999949      15.839999999999996      40.480000000000004
   238   1      5.2799999999999949      17.599999999999998      42.239999999999995
   239   1      7.0399999999999991      15.839999999999996      42.239999999999995
   240   1      7.0399999999999991      17.599999999999998      40.480000000000004
   241   1      5.2799999999999949      15.839999999999996      43.999999999999993
   242   1      5.2799999999999949      17.599999999999998      45.759999999999998
   243   1      7.0399999999999991      15.839999999999996      45.759999999999998
   244   1      7.0399999999999991      17.599999999999998      43.999999999999993
   245   1      7.0399999999999991      15.839999999999996      49.280000000000001
   246   1      7.0399999999999991      17.599999999999998      47.519999999999996
   247   1      7.0399999999999991      15.839999999999996      52.799999999999997
   248   1      7.0399999999999991      17.599999999999998      51.039999999999992
   249   1      7.0399999999999991      17.599999999999998      54.559999999999995
   250   1      7.0399999999999991      19.359999999999996      24.640000000000001
   251   1      7.0399999999999991      21.119999999999997      22.879999999999999
   252   1      7.0399999999999991      19.359999999999996      28.159999999999997
   253   1      7.0399999999999991      21.119999999999997      26.399999999999999
   254   1      5.2799999999999949      21.119999999999997      31.679999999999993
   255   1      7.0399999999999991      19.359999999999996      31.679999999999993
   256   1      7.0399999999999991      21.119999999999997      29.919999999999995
   257   1      5.2799999999999949      19.359999999999996      33.439999999999998
   258   1      5.2799999999999949      21.119999999999997      35.199999999999996
   259   1      7.0399999999999991      19.359999999999996      35.199999999999996
   260   1      7.0399999999999991      21.119999999999997      33.439999999999998
   261   1      5.2799999999999949      19.359999999999996      36.959999999999994
   262   1      5.2799999999999949      21.119999999999997      38.719999999999992
   263   1      7.0399999999999991      19.359999999999996      38.719999999999992
   264   1      7.0399999999999991      21.119999999999997      36.959999999999994
   265   1      5.2799999999999949      19.359999999999996      40.480000000000004
   266   1      5.2799999999999949      21.119999999999997      42.239999999999995
   267   1      7.0399999999999991      19.359999999999996      42.239999999999995
   268   1      7.0399999999999991      21.119999999999997      40.480000000000004
   269   1      5.2799999999999949      19.359999999999996      43.999999999999993
   270   1      5.2799999999999949      21.119999999999997      45.759999999999998
   271   1      7.0399999999999991      19.359999999999996      45.759999999999998
   272   1      7.0399999999999991      21.119999999999997      43.999999999999993
   273   1      5.2799999999999949      19.359999999999996      47.519999999999996
   274   1      5.2799999999999949      21.119999999999997      49.280000000000001
   275   1      7.0399999999999991      19.359999999999996      49.280000000000001
   276   1      7.0399999999999991      21.119999999999997      47.519999999999996
   277   1      7.0399999999999991      19.359999999999996      52.799999999999997
   278   1      7.0399999999999991      21.119999999999997      51.039999999999992
   279   1      7.0399999999999991      19.359999999999996      56.319999999999993
   280   1      7.0399999999999991      21.119999999999997      54.559999999999995
   281   1      7.0399999999999991      21.119999999999997      58.079999999999998
   282   1      7.0399999999999991      22.879999999999999      21.119999999999997
   283   1      7.0399999999999991      24.640000000000001      19.359999999999996
   284   1      7.0399999999999991      22.879999999999999      24.640000000000001
   285   1      7.0399999999999991      24.640000000000001      22.879999999999999
   286   1      5.2799999999999949      24.640000000000001      28.159999999999997
   287   1      7.0399999999999991      22.879999999999999      28.159999999999997
   288   1      7.0399999999999991      24.640000000000001      26.399999999999999
   289   1      5.2799999999999949      22.879999999999999      29.919999999999995
   290   1      5.2799999999999949      24.640000000000001      31.679999999999993
   291   1      7.0399999999999991      22.879999999999999      31.679999999999993
   292   1      7.0399999999999991      24.640000000000001      29.919999999999995
   293   1      5.2799999999999949      22.879999999999999      33.439999999999998
   294   1      5.2799999999999949      24.640000000000001      35.199999999999996
   295   1      7.0399999999999991      22.879999999999999      35.199999999999996
   296   1      7.0399999999999991      24.640000000000001      33.439999999999998
   297   1      5.2799999999999949      22.879999999999999      36.959999999999994
   298   1      5.2799999999999949      24.640000000000001      38.719999999999992
   299   1      7.0399999999999991      22.879999999999999      38.719999999999992
   300   1      7.0399999999999991      24.640000000000001      36.959999999999994
   301   1      5.2799999999999949      22.879999999999999      40.480000000000004
   302   1      5.2799999999999949      24.640000000000001      42.239999999999995
   303   1      7.0399999999999991      22.879999999999999      42.239999999999995
   304   1      7.0399999999999991      24.640000000000001      40.480000000000004
   305   1      5.2799999999999949      22.879999999999999      43.999999999999993
   306   1      5.2799999999999949      24.640000000000001      45.759999999999998
   307   1      7.0399999999999991      22.879999999999999      45.759999999999998
   308   1      7.0399999999999991      24.640000000000001      43.999999999999993
   309   1      5.2799999999999949      22.879999999999999      47.519999999999996
   310   1      5.2799999999999949      24.640000000000001      49.280000000000001
   311   1      7.0399999999999991      22.879999999999999      49.280000000000001
   312   1      7.0399999999999991      24.640000000000001      47.519999999999996
   313   1      5.2799999999999949      22.879999999999999      51.039999999999992
   314   1      5.2799999999999949      24.640000000000001      52.799999999999997
   315   1      7.0399999999999991      22.879999999999999      52.799999999999997
   316   1      7.0399999999999991      24.640000000000001      51.039999999999992
   317   1      7.0399999999999991      22.879999999999999      56.319999999999993
   318   1      7.0399999999999991      24.640000000000001      54.559999999999995
   319   1      7.0399999999999991      22.879999999999999      59.840000000000003
   320   1      7.0399999999999991      24.640000000000001      58.079999999999998
   321   1      7.0399999999999991      24.640000000000001      61.600000000000001
   322   1      7.0399999999999991      26.399999999999999      17.599999999999998
   323   1      7.0399999999999991      28.159999999999997      15.839999999999996
   324   1      7.0399999999999991      26.399999999999999      21.119999999999997
   325   1      7.0399999999999991      28.159999999999997      19.359999999999996
   326   1      5.2799999999999949      28.159999999999997      24.640000000000001
   327   1      7.0399999999999991      26.399999999999999      24.640000000000001
   328   1      7.0399999999999991      28.159999999999997      22.879999999999999
   329   1      5.2799999999999949      26.399999999999999      26.399999999999999
   330   1      5.2799999999999949      28.159999999999997      28.159999999999997
   331   1      7.0399999999999991      26.399999999999999      28.159999999999997
   332   1      7.0399999999999991      28.159999999999997      26.399999999999999
   333   1      5.2799999999999949      26.399999999999999      29.919999999999995
   334   1      5.2799999999999949      28.159999999999997      31.679999999999993
   335   1      7.0399999999999991      26.399999999999999      31.679999999999993
   336   1      7.0399999999999991      28.159999999999997      29.919999999999995
   337   1      5.2799999999999949      26.399999999999999      33.439999999999998
   338   1      5.2799999999999949      28.159999999999997      35.199999999999996
   339   1      7.0399999999999991      26.399999999999999      35.199999999999996
   340   1      7.0399999999999991      28.159999999999997      33.439999999999998
   341   1      5.2799999999999949      26.399999999999999      36.959999999999994
   342   1      5.2799999999999949      28.159999999999997      38.719999999999992
   343   1      7.0399999999999991      26.399999999999999      38.719999999999992
   344   1      7.0399999999999991      28.159999999999997      36.959999999999994
   345   1      5.2799999999999949      26.399999999999999      40.480000000000004
   346   1      5.2799999999999949      28.159999999999997      42.239999999999995
   347   1      7.0399999999999991      26.399999999999999      42.239999999999995
   348   1      7.0399999999999991      28.159999999999997      40.480000000000004
   349   1      5.2799999999999949      26.399999999999999      43.999999999999993
   350   1      5.2799999999999949      28.159999999999997      45.759999999999998
   351   1      7.0399999999999991      26.399999999999999      45.759999999999998
   352   1      7.0399999999999991      28.159999999999997      43.999999999999993
   353   1      5.2799999999999949      26.399999999999999      47.519999999999996
   354   1      5.2799999999999949      28.159999999999997      49.280000000000001
   355   1      7.0399999999999991      26.399999999999999      49.280000000000001
   356   1      7.0399999999999991      28.159999999999997      47.519999999999996
   357   1      5.2799999999999949      26.399999999999999      51.039999999999992
   358   1      5.2799999999999949      28.159999999999997      52.799999999999997