model_files/CuFeNi/CuFeNi_30000/CuFeNi_553/CuFeNi_553_fcc_29881_temp.data (written by ASE) 

29881 	 atoms 
3  atom types
0.0                     114  xlo xhi
0.0                     114  ylo yhi
0.0                     114  zlo zhi


Atoms 

     1   1                       0      55.490000000000002      55.490000000000002
     2   1      1.7899999999999991      53.700000000000003      55.490000000000002
     3   1      1.7899999999999991      55.490000000000002      53.700000000000003
     4   1                       0      55.490000000000002      59.069999999999993
     5   1      1.7899999999999991      53.700000000000003      59.069999999999993
     6   1      1.7899999999999991      55.490000000000002      57.279999999999994
     7   1      1.7899999999999991      55.490000000000002      60.859999999999999
     8   1                       0      59.069999999999993      55.490000000000002
     9   1      1.7899999999999991      57.279999999999994      55.490000000000002
    10   1      1.7899999999999991      59.069999999999993      53.700000000000003
    11   1                       0      57.279999999999994      57.279999999999994
    12   1                       0      59.069999999999993      59.069999999999993
    13   1      1.7899999999999991      57.279999999999994      59.069999999999993
    14   1      1.7899999999999991      59.069999999999993      57.279999999999994
    15   1      1.7899999999999991      59.069999999999993      60.859999999999999
    16   1      1.7899999999999991      60.859999999999999      55.490000000000002
    17   1      1.7899999999999991      60.859999999999999      59.069999999999993
    18   1      3.5799999999999983      51.909999999999997      55.490000000000002
    19   1      5.3700000000000045      50.120000000000005      55.490000000000002
    20   1      5.3700000000000045      51.909999999999997      53.700000000000003
    21   1      3.5799999999999983      51.909999999999997      59.069999999999993
    22   1      5.3700000000000045      50.120000000000005      59.069999999999993
    23   1      5.3700000000000045      51.909999999999997      57.279999999999994
    24   1      5.3700000000000045      51.909999999999997      60.859999999999999
    25   1      3.5799999999999983      55.490000000000002      51.909999999999997
    26   1      5.3700000000000045      53.700000000000003      51.909999999999997
    27   1      5.3700000000000045      55.490000000000002      50.120000000000005
    28   1      3.5799999999999983      53.700000000000003      53.700000000000003
    29   1      3.5799999999999983      55.490000000000002      55.490000000000002
    30   1      5.3700000000000045      53.700000000000003      55.490000000000002
    31   1      5.3700000000000045      55.490000000000002      53.700000000000003
    32   1      3.5799999999999983      53.700000000000003      57.279999999999994
    33   1      3.5799999999999983      55.490000000000002      59.069999999999993
    34   1      5.3700000000000045      53.700000000000003      59.069999999999993
    35   1      5.3700000000000045      55.490000000000002      57.279999999999994
    36   1      3.5799999999999983      53.700000000000003      60.859999999999999
    37   1      3.5799999999999983      55.490000000000002      62.649999999999999
    38   1      5.3700000000000045      53.700000000000003      62.649999999999999
    39   1      5.3700000000000045      55.490000000000002      60.859999999999999
    40   1      5.3700000000000045      55.490000000000002      64.439999999999998
    41   1      3.5799999999999983      59.069999999999993      51.909999999999997
    42   1      5.3700000000000045      57.279999999999994      51.909999999999997
    43   1      5.3700000000000045      59.069999999999993      50.120000000000005
    44   1      3.5799999999999983      57.279999999999994      53.700000000000003
    45   1      3.5799999999999983      59.069999999999993      55.490000000000002
    46   1      5.3700000000000045      57.279999999999994      55.490000000000002
    47   1      5.3700000000000045      59.069999999999993      53.700000000000003
    48   1      3.5799999999999983      57.279999999999994      57.279999999999994
    49   1      3.5799999999999983      59.069999999999993      59.069999999999993
    50   1      5.3700000000000045      57.279999999999994      59.069999999999993
    51   1      5.3700000000000045      59.069999999999993      57.279999999999994
    52   1      3.5799999999999983      57.279999999999994      60.859999999999999
    53   1      3.5799999999999983      59.069999999999993      62.649999999999999
    54   1      5.3700000000000045      57.279999999999994      62.649999999999999
    55   1      5.3700000000000045      59.069999999999993      60.859999999999999
    56   1      5.3700000000000045      59.069999999999993      64.439999999999998
    57   1      5.3700000000000045      60.859999999999999      51.909999999999997
    58   1      3.5799999999999983      60.859999999999999      53.700000000000003
    59   1      3.5799999999999983      62.649999999999999      55.490000000000002
    60   1      5.3700000000000045      60.859999999999999      55.490000000000002
    61   1      5.3700000000000045      62.649999999999999      53.700000000000003
    62   1      3.5799999999999983      60.859999999999999      57.279999999999994
    63   1      3.5799999999999983      62.649999999999999      59.069999999999993
    64   1      5.3700000000000045      60.859999999999999      59.069999999999993
    65   1      5.3700000000000045      62.649999999999999      57.279999999999994
    66   1      3.5799999999999983      60.859999999999999      60.859999999999999
    67   1      5.3700000000000045      60.859999999999999      62.649999999999999
    68   1      5.3700000000000045      62.649999999999999      60.859999999999999
    69   1      5.3700000000000045      64.439999999999998      55.490000000000002
    70   1      5.3700000000000045      64.439999999999998      59.069999999999993
    71   1      7.1600000000000028      48.329999999999998      55.490000000000002
    72   1      8.9500000000000028      46.540000000000006      55.490000000000002
    73   1      8.9500000000000028      48.329999999999998      53.700000000000003
    74   1      7.1600000000000028      48.329999999999998      59.069999999999993
    75   1      8.9500000000000028      46.540000000000006      59.069999999999993
    76   1      8.9500000000000028      48.329999999999998      57.279999999999994
    77   1      8.9500000000000028      48.329999999999998      60.859999999999999
    78   1      7.1600000000000028      51.909999999999997      51.909999999999997
    79   1      8.9500000000000028      50.120000000000005      51.909999999999997
    80   1      8.9500000000000028      51.909999999999997      50.120000000000005
    81   1      7.1600000000000028      50.120000000000005      53.700000000000003
    82   1      7.1600000000000028      51.909999999999997      55.490000000000002
    83   1      8.9500000000000028      50.120000000000005      55.490000000000002
    84   1      8.9500000000000028      51.909999999999997      53.700000000000003
    85   1      7.1600000000000028      50.120000000000005      57.279999999999994
    86   1      7.1600000000000028      51.909999999999997      59.069999999999993
    87   1      8.9500000000000028      50.120000000000005      59.069999999999993
    88   1      8.9500000000000028      51.909999999999997      57.279999999999994
    89   1      7.1600000000000028      50.120000000000005      60.859999999999999
    90   1      7.1600000000000028      51.909999999999997      62.649999999999999
    91   1      8.9500000000000028      50.120000000000005      62.649999999999999
    92   1      8.9500000000000028      51.909999999999997      60.859999999999999
    93   1      8.9500000000000028      51.909999999999997      64.439999999999998
    94   1      7.1600000000000028      55.490000000000002      48.329999999999998
    95   1      8.9500000000000028      53.700000000000003      48.329999999999998
    96   1      8.9500000000000028      55.490000000000002      46.540000000000006
    97   1      7.1600000000000028      53.700000000000003      50.120000000000005
    98   1      7.1600000000000028      55.490000000000002      51.909999999999997
    99   1      8.9500000000000028      53.700000000000003      51.909999999999997
   100   1      8.9500000000000028      55.490000000000002      50.120000000000005
   101   1      7.1600000000000028      53.700000000000003      53.700000000000003
   102   1      7.1600000000000028      55.490000000000002      55.490000000000002
   103   1      8.9500000000000028      53.700000000000003      55.490000000000002
   104   1      8.9500000000000028      55.490000000000002      53.700000000000003
   105   1      7.1600000000000028      53.700000000000003      57.279999999999994
   106   1      7.1600000000000028      55.490000000000002      59.069999999999993
   107   1      8.9500000000000028      53.700000000000003      59.069999999999993
   108   1      8.9500000000000028      55.490000000000002      57.279999999999994
   109   1      7.1600000000000028      53.700000000000003      60.859999999999999
   110   1      7.1600000000000028      55.490000000000002      62.649999999999999
   111   1      8.9500000000000028      53.700000000000003      62.649999999999999
   112   1      8.9500000000000028      55.490000000000002      60.859999999999999
   113   1      7.1600000000000028      53.700000000000003      64.439999999999998
   114   1      7.1600000000000028      55.490000000000002      66.230000000000004
   115   1      8.9500000000000028      53.700000000000003      66.230000000000004
   116   1      8.9500000000000028      55.490000000000002      64.439999999999998
   117   1      8.9500000000000028      55.490000000000002      68.019999999999982
   118   1      7.1600000000000028      59.069999999999993      48.329999999999998
   119   1      8.9500000000000028      57.279999999999994      48.329999999999998
   120   1      8.9500000000000028      59.069999999999993      46.540000000000006
   121   1      7.1600000000000028      57.279999999999994      50.120000000000005
   122   1      7.1600000000000028      59.069999999999993      51.909999999999997
   123   1      8.9500000000000028      57.279999999999994      51.909999999999997
   124   1      8.9500000000000028      59.069999999999993      50.120000000000005
   125   1      7.1600000000000028      57.279999999999994      53.700000000000003
   126   1      7.1600000000000028      59.069999999999993      55.490000000000002
   127   1      8.9500000000000028      57.279999999999994      55.490000000000002
   128   1      8.9500000000000028      59.069999999999993      53.700000000000003
   129   1      7.1600000000000028      57.279999999999994      57.279999999999994
   130   1      7.1600000000000028      59.069999999999993      59.069999999999993
   131   1      8.9500000000000028      57.279999999999994      59.069999999999993
   132   1      8.9500000000000028      59.069999999999993      57.279999999999994
   133   1      7.1600000000000028      57.279999999999994      60.859999999999999
   134   1      7.1600000000000028      59.069999999999993      62.649999999999999
   135   1      8.9500000000000028      57.279999999999994      62.649999999999999
   136   1      8.9500000000000028      59.069999999999993      60.859999999999999
   137   1      7.1600000000000028      57.279999999999994      64.439999999999998
   138   1      7.1600000000000028      59.069999999999993      66.230000000000004
   139   1      8.9500000000000028      57.279999999999994      66.230000000000004
   140   1      8.9500000000000028      59.069999999999993      64.439999999999998
   141   1      8.9500000000000028      59.069999999999993      68.019999999999982
   142   1      8.9500000000000028      60.859999999999999      48.329999999999998
   143   1      7.1600000000000028      60.859999999999999      50.120000000000005
   144   1      7.1600000000000028      62.649999999999999      51.909999999999997
   145   1      8.9500000000000028      60.859999999999999      51.909999999999997
   146   1      8.9500000000000028      62.649999999999999      50.120000000000005
   147   1      7.1600000000000028      60.859999999999999      53.700000000000003
   148   1      7.1600000000000028      62.649999999999999      55.490000000000002
   149   1      8.9500000000000028      60.859999999999999      55.490000000000002
   150   1      8.9500000000000028      62.649999999999999      53.700000000000003
   151   1      7.1600000000000028      60.859999999999999      57.279999999999994
   152   1      7.1600000000000028      62.649999999999999      59.069999999999993
   153   1      8.9500000000000028      60.859999999999999      59.069999999999993
   154   1      8.9500000000000028      62.649999999999999      57.279999999999994
   155   1      7.1600000000000028      60.859999999999999      60.859999999999999
   156   1      7.1600000000000028      62.649999999999999      62.649999999999999
   157   1      8.9500000000000028      60.859999999999999      62.649999999999999
   158   1      8.9500000000000028      62.649999999999999      60.859999999999999
   159   1      7.1600000000000028      60.859999999999999      64.439999999999998
   160   1      8.9500000000000028      60.859999999999999      66.230000000000004
   161   1      8.9500000000000028      62.649999999999999      64.439999999999998
   162   1      8.9500000000000028      64.439999999999998      51.909999999999997
   163   1      7.1600000000000028      64.439999999999998      53.700000000000003
   164   1      7.1600000000000028      66.230000000000004      55.490000000000002
   165   1      8.9500000000000028      64.439999999999998      55.490000000000002
   166   1      8.9500000000000028      66.230000000000004      53.700000000000003
   167   1      7.1600000000000028      64.439999999999998      57.279999999999994
   168   1      7.1600000000000028      66.230000000000004      59.069999999999993
   169   1      8.9500000000000028      64.439999999999998      59.069999999999993
   170   1      8.9500000000000028      66.230000000000004      57.279999999999994
   171   1      7.1600000000000028      64.439999999999998      60.859999999999999
   172   1      8.9500000000000028      64.439999999999998      62.649999999999999
   173   1      8.9500000000000028      66.230000000000004      60.859999999999999
   174   1      8.9500000000000028      68.019999999999982      55.490000000000002
   175   1      8.9500000000000028      68.019999999999982      59.069999999999993
   176   1                   10.74                   44.75      55.490000000000002
   177   1      12.530000000000001      42.959999999999994      55.490000000000002
   178   1      12.530000000000001                   44.75      53.700000000000003
   179   1                   10.74                   44.75      59.069999999999993
   180   1      12.530000000000001      42.959999999999994      59.069999999999993
   181   1      12.530000000000001                   44.75      57.279999999999994
   182   1      12.530000000000001                   44.75      60.859999999999999
   183   1                   10.74      48.329999999999998      51.909999999999997
   184   1      12.530000000000001      46.540000000000006      51.909999999999997
   185   1      12.530000000000001      48.329999999999998      50.120000000000005
   186   1                   10.74      46.540000000000006      53.700000000000003
   187   1                   10.74      48.329999999999998      55.490000000000002
   188   1      12.530000000000001      46.540000000000006      55.490000000000002
   189   1      12.530000000000001      48.329999999999998      53.700000000000003
   190   1                   10.74      46.540000000000006      57.279999999999994
   191   1                   10.74      48.329999999999998      59.069999999999993
   192   1      12.530000000000001      46.540000000000006      59.069999999999993
   193   1      12.530000000000001      48.329999999999998      57.279999999999994
   194   1                   10.74      46.540000000000006      60.859999999999999
   195   1                   10.74      48.329999999999998      62.649999999999999
   196   1      12.530000000000001      46.540000000000006      62.649999999999999
   197   1      12.530000000000001      48.329999999999998      60.859999999999999
   198   1      12.530000000000001      48.329999999999998      64.439999999999998
   199   1                   10.74      51.909999999999997      48.329999999999998
   200   1      12.530000000000001      50.120000000000005      48.329999999999998
   201   1      12.530000000000001      51.909999999999997      46.540000000000006
   202   1                   10.74      50.120000000000005      50.120000000000005
   203   1                   10.74      51.909999999999997      51.909999999999997
   204   1      12.530000000000001      50.120000000000005      51.909999999999997
   205   1      12.530000000000001      51.909999999999997      50.120000000000005
   206   1                   10.74      50.120000000000005      53.700000000000003
   207   1                   10.74      51.909999999999997      55.490000000000002
   208   1      12.530000000000001      50.120000000000005      55.490000000000002
   209   1      12.530000000000001      51.909999999999997      53.700000000000003
   210   1                   10.74      50.120000000000005      57.279999999999994
   211   1                   10.74      51.909999999999997      59.069999999999993
   212   1      12.530000000000001      50.120000000000005      59.069999999999993
   213   1      12.530000000000001      51.909999999999997      57.279999999999994
   214   1                   10.74      50.120000000000005      60.859999999999999
   215   1                   10.74      51.909999999999997      62.649999999999999
   216   1      12.530000000000001      50.120000000000005      62.649999999999999
   217   1      12.530000000000001      51.909999999999997      60.859999999999999
   218   1                   10.74      50.120000000000005      64.439999999999998
   219   1                   10.74      51.909999999999997      66.230000000000004
   220   1      12.530000000000001      50.120000000000005      66.230000000000004
   221   1      12.530000000000001      51.909999999999997      64.439999999999998
   222   1      12.530000000000001      51.909999999999997      68.019999999999982
   223   1                   10.74      55.490000000000002                   44.75
   224   1      12.530000000000001      53.700000000000003                   44.75
   225   1      12.530000000000001      55.490000000000002      42.959999999999994
   226   1                   10.74      53.700000000000003      46.540000000000006
   227   1                   10.74      55.490000000000002      48.329999999999998
   228   1      12.530000000000001      53.700000000000003      48.329999999999998
   229   1      12.530000000000001      55.490000000000002      46.540000000000006
   230   1                   10.74      53.700000000000003      50.120000000000005
   231   1                   10.74      55.490000000000002      51.909999999999997
   232   1      12.530000000000001      53.700000000000003      51.909999999999997
   233   1      12.530000000000001      55.490000000000002      50.120000000000005
   234   1                   10.74      53.700000000000003      53.700000000000003
   235   1                   10.74      55.490000000000002      55.490000000000002
   236   1      12.530000000000001      53.700000000000003      55.490000000000002
   237   1      12.530000000000001      55.490000000000002      53.700000000000003
   238   1                   10.74      53.700000000000003      57.279999999999994
   239   1                   10.74      55.490000000000002      59.069999999999993
   240   1      12.530000000000001      53.700000000000003      59.069999999999993
   241   1      12.530000000000001      55.490000000000002      57.279999999999994
   242   1                   10.74      53.700000000000003      60.859999999999999
   243   1                   10.74      55.490000000000002      62.649999999999999
   244   1      12.530000000000001      53.700000000000003      62.649999999999999
   245   1      12.530000000000001      55.490000000000002      60.859999999999999
   246   1                   10.74      53.700000000000003      64.439999999999998
   247   1                   10.74      55.490000000000002      66.230000000000004
   248   1      12.530000000000001      53.700000000000003      66.230000000000004
   249   1      12.530000000000001      55.490000000000002      64.439999999999998
   250   1                   10.74      53.700000000000003      68.019999999999982
   251   1                   10.74      55.490000000000002      69.810000000000002
   252   1      12.530000000000001      53.700000000000003      69.810000000000002
   253   1      12.530000000000001      55.490000000000002      68.019999999999982
   254   1      12.530000000000001      55.490000000000002      71.600000000000009
   255   1                   10.74      59.069999999999993                   44.75
   256   1      12.530000000000001      57.279999999999994                   44.75
   257   1      12.530000000000001      59.069999999999993      42.959999999999994
   258   1                   10.74      57.279999999999994      46.540000000000006
   259   1                   10.74      59.069999999999993      48.329999999999998
   260   1      12.530000000000001      57.279999999999994      48.329999999999998
   261   1      12.530000000000001      59.069999999999993      46.540000000000006
   262   1                   10.74      57.279999999999994      50.120000000000005
   263   1                   10.74      59.069999999999993      51.909999999999997
   264   1      12.530000000000001      57.279999999999994      51.909999999999997
   265   1      12.530000000000001      59.069999999999993      50.120000000000005
   266   1                   10.74      57.279999999999994      53.700000000000003
   267   1                   10.74      59.069999999999993      55.490000000000002
   268   1      12.530000000000001      57.279999999999994      55.490000000000002
   269   1      12.530000000000001      59.069999999999993      53.700000000000003
   270   1                   10.74      57.279999999999994      57.279999999999994
   271   1                   10.74      59.069999999999993      59.069999999999993
   272   1      12.530000000000001      57.279999999999994      59.069999999999993
   273   1      12.530000000000001      59.069999999999993      57.279999999999994
   274   1                   10.74      57.279999999999994      60.859999999999999
   275   1                   10.74      59.069999999999993      62.649999999999999
   276   1      12.530000000000001      57.279999999999994      62.649999999999999
   277   1      12.530000000000001      59.069999999999993      60.859999999999999
   278   1                   10.74      57.279999999999994      64.439999999999998
   279   1                   10.74      59.069999999999993      66.230000000000004
   280   1      12.530000000000001      57.279999999999994      66.230000000000004
   281   1      12.530000000000001      59.069999999999993      64.439999999999998
   282   1                   10.74      57.279999999999994      68.019999999999982
   283   1                   10.74      59.069999999999993      69.810000000000002
   284   1      12.530000000000001      57.279999999999994      69.810000000000002
   285   1      12.530000000000001      59.069999999999993      68.019999999999982
   286   1      12.530000000000001      59.069999999999993      71.600000000000009
   287   1      12.530000000000001      60.859999999999999                   44.75
   288   1                   10.74      60.859999999999999      46.540000000000006
   289   1                   10.74      62.649999999999999      48.329999999999998
   290   1      12.530000000000001      60.859999999999999      48.329999999999998
   291   1      12.530000000000001      62.649999999999999      46.540000000000006
   292   1                   10.74      60.859999999999999      50.120000000000005
   293   1                   10.74      62.649999999999999      51.909999999999997
   294   1      12.530000000000001      60.859999999999999      51.909999999999997
   295   1      12.530000000000001      62.649999999999999      50.120000000000005
   296   1                   10.74      60.859999999999999      53.700000000000003
   297   1                   10.74      62.649999999999999      55.490000000000002
   298   1      12.530000000000001      60.859999999999999      55.490000000000002
   299   1      12.530000000000001      62.649999999999999      53.700000000000003
   300   1                   10.74      60.859999999999999      57.279999999999994
   301   1                   10.74      62.649999999999999      59.069999999999993
   302   1      12.530000000000001      60.859999999999999      59.069999999999993
   303   1      12.530000000000001      62.649999999999999      57.279999999999994
   304   1                   10.74      60.859999999999999      60.859999999999999
   305   1                   10.74      62.649999999999999      62.649999999999999
   306   1      12.530000000000001      60.859999999999999      62.649999999999999
   307   1      12.530000000000001      62.649999999999999      60.859999999999999
   308   1                   10.74      60.859999999999999      64.439999999999998
   309   1                   10.74      62.649999999999999      66.230000000000004
   310   1      12.530000000000001      60.859999999999999      66.230000000000004
   311   1      12.530000000000001      62.649999999999999      64.439999999999998
   312   1                   10.74      60.859999999999999      68.019999999999982
   313   1      12.530000000000001      60.859999999999999      69.810000000000002
   314   1      12.530000000000001      62.649999999999999      68.019999999999982
   315   1      12.530000000000001      64.439999999999998      48.329999999999998
   316   1                   10.74      64.439999999999998      50.120000000000005
   317   1                   10.74      66.230000000000004      51.909999999999997
   318   1      12.530000000000001      64.439999999999998      51.909999999999997
   319   1      12.530000000000001      66.230000000000004      50.120000000000005
   320   1                   10.74      64.439999999999998      53.700000000000003
   321   1                   10.74      66.230000000000004      55.490000000000002
   322   1      12.530000000000001      64.439999999999998      55.490000000000002
   323   1      12.530000000000001      66.230000000000004      53.700000000000003
   324   1                   10.74      64.439999999999998      57.279999999999994
   325   1                   10.74      66.230000000000004      59.069999999999993
   326   1      12.530000000000001      64.439999999999998      59.069999999999993
   327   1      12.530000000000001      66.230000000000004      57.279999999999994
   328   1                   10.74      64.439999999999998      60.859999999999999
   329   1                   10.74      66.230000000000004      62.649999999999999
   330   1      12.530000000000001      64.439999999999998      62.649999999999999
   331   1      12.530000000000001      66.230000000000004      60.859999999999999
   332   1                   10.74      64.439999999999998      64.439999999999998
   333   1      12.530000000000001      64.439999999999998      66.230000000000004
   334   1      12.530000000000001      66.230000000000004      64.439999999999998
   335   1      12.530000000000001      68.019999999999982      51.909999999999997
   336   1                   10.74      68.019999999999982      53.700000000000003
   337   1                   10.74      69.810000000000002      55.490000000000002
   338   1      12.530000000000001      68.019999999999982      55.490000000000002
   339   1      12.530000000000001      69.810000000000002      53.700000000000003
   340   1                   10.74      68.019999999999982      57.279999999999994
   341   1                   10.74      69.810000000000002      59.069999999999993
   342   1      12.530000000000001      68.019999999999982      59.069999999999993
   343   1      12.530000000000001      69.810000000000002      57.279999999999994
   344   1                   10.74      68.019999999999982      60.859999999999999
   345   1      12.530000000000001      68.019999999999982      62.649999999999999
   346   1      12.530000000000001      69.810000000000002      60.859999999999999
   347   1      12.530000000000001      71.600000000000009      55.490000000000002
   348   1      12.530000000000001      71.600000000000009      59.069999999999993
   349   1      14.319999999999999      41.170000000000002      55.490000000000002
   350   1      16.109999999999999      39.380000000000003      55.490000000000002
   351   1      16.109999999999999      41.170000000000002      53.700000000000003
   352   1      14.319999999999999      41.170000000000002      59.069999999999993
   353   1      16.109999999999999      39.380000000000003      59.069999999999993
   354   1      16.109999999999999      41.170000000000002      57.279999999999994
   355   1      16.109999999999999      41.170000000000002      60.859999999999999
   356   1      16.109999999999999                   44.75      46.540000000000006
   357   1      14.319999999999999                   44.75      51.909999999999997
   358   1      16.109999999999999      42.959999999999994      51.909999999999997