model_files/PdNi/PdNi_30000/PdNi_543/PdNi_543_fcc_30079_temp.data (written by ASE) 

30079 	 atoms 
2  atom types
0.0                     117  xlo xhi
0.0                     117  ylo yhi
0.0                     117  zlo zhi


Atoms 

     1   1                       0                  55.875      57.737500000000011
     2   1                       0      57.737500000000011                  55.875
     3   1                       0      57.737500000000011      59.600000000000009
     4   1                       0      59.600000000000009      57.737500000000011
     5   1      3.7250000000000023      52.150000000000006      57.737500000000011
     6   1      1.8625000000000043                  55.875                  55.875
     7   1      3.7250000000000023       54.01250000000001                  55.875
     8   1      3.7250000000000023                  55.875       54.01250000000001
     9   1      1.8625000000000043       54.01250000000001      57.737500000000011
    10   1      1.8625000000000043                  55.875      59.600000000000009
    11   1      3.7250000000000023       54.01250000000001      59.600000000000009
    12   1      3.7250000000000023                  55.875      57.737500000000011
    13   1      3.7250000000000023                  55.875      61.462500000000013
    14   1      3.7250000000000023      57.737500000000011      52.150000000000006
    15   1      1.8625000000000043      57.737500000000011       54.01250000000001
    16   1      1.8625000000000043      59.600000000000009                  55.875
    17   1      3.7250000000000023      57.737500000000011                  55.875
    18   1      3.7250000000000023      59.600000000000009       54.01250000000001
    19   1      1.8625000000000043      57.737500000000011      57.737500000000011
    20   1      1.8625000000000043      59.600000000000009      59.600000000000009
    21   1      3.7250000000000023      57.737500000000011      59.600000000000009
    22   1      3.7250000000000023      59.600000000000009      57.737500000000011
    23   1      1.8625000000000043      57.737500000000011      61.462500000000013
    24   1      3.7250000000000023      57.737500000000011       63.32500000000001
    25   1      3.7250000000000023      59.600000000000009      61.462500000000013
    26   1      3.7250000000000023      61.462500000000013                  55.875
    27   1      1.8625000000000043      61.462500000000013      57.737500000000011
    28   1      3.7250000000000023      61.462500000000013      59.600000000000009
    29   1      3.7250000000000023       63.32500000000001      57.737500000000011
    30   1      7.4500000000000046      48.425000000000011      57.737500000000011
    31   1      5.5875000000000057      52.150000000000006                  55.875
    32   1      7.4500000000000046      50.287500000000009                  55.875
    33   1      7.4500000000000046      52.150000000000006       54.01250000000001
    34   1      5.5875000000000057      50.287500000000009      57.737500000000011
    35   1      5.5875000000000057      52.150000000000006      59.600000000000009
    36   1      7.4500000000000046      50.287500000000009      59.600000000000009
    37   1      7.4500000000000046      52.150000000000006      57.737500000000011
    38   1      7.4500000000000046      52.150000000000006      61.462500000000013
    39   1      5.5875000000000057                  55.875      52.150000000000006
    40   1      7.4500000000000046       54.01250000000001      52.150000000000006
    41   1      7.4500000000000046                  55.875      50.287500000000009
    42   1      5.5875000000000057       54.01250000000001       54.01250000000001
    43   1      5.5875000000000057                  55.875                  55.875
    44   1      7.4500000000000046       54.01250000000001                  55.875
    45   1      7.4500000000000046                  55.875       54.01250000000001
    46   1      5.5875000000000057       54.01250000000001      57.737500000000011
    47   1      5.5875000000000057                  55.875      59.600000000000009
    48   1      7.4500000000000046       54.01250000000001      59.600000000000009
    49   1      7.4500000000000046                  55.875      57.737500000000011
    50   1      5.5875000000000057       54.01250000000001      61.462500000000013
    51   1      5.5875000000000057                  55.875       63.32500000000001
    52   1      7.4500000000000046       54.01250000000001       63.32500000000001
    53   1      7.4500000000000046                  55.875      61.462500000000013
    54   1      7.4500000000000046                  55.875                 65.1875
    55   1      7.4500000000000046      57.737500000000011      48.425000000000011
    56   1      5.5875000000000057      57.737500000000011      50.287500000000009
    57   1      5.5875000000000057      59.600000000000009      52.150000000000006
    58   1      7.4500000000000046      57.737500000000011      52.150000000000006
    59   1      7.4500000000000046      59.600000000000009      50.287500000000009
    60   1      5.5875000000000057      57.737500000000011       54.01250000000001
    61   1      5.5875000000000057      59.600000000000009                  55.875
    62   1      7.4500000000000046      57.737500000000011                  55.875
    63   1      7.4500000000000046      59.600000000000009       54.01250000000001
    64   1      5.5875000000000057      57.737500000000011      57.737500000000011
    65   1      5.5875000000000057      59.600000000000009      59.600000000000009
    66   1      7.4500000000000046      57.737500000000011      59.600000000000009
    67   1      7.4500000000000046      59.600000000000009      57.737500000000011
    68   1      5.5875000000000057      57.737500000000011      61.462500000000013
    69   1      5.5875000000000057      59.600000000000009       63.32500000000001
    70   1      7.4500000000000046      57.737500000000011       63.32500000000001
    71   1      7.4500000000000046      59.600000000000009      61.462500000000013
    72   1      5.5875000000000057      57.737500000000011                 65.1875
    73   1      7.4500000000000046      57.737500000000011      67.050000000000011
    74   1      7.4500000000000046      59.600000000000009                 65.1875
    75   1      7.4500000000000046      61.462500000000013      52.150000000000006
    76   1      5.5875000000000057      61.462500000000013       54.01250000000001
    77   1      5.5875000000000057       63.32500000000001                  55.875
    78   1      7.4500000000000046      61.462500000000013                  55.875
    79   1      7.4500000000000046       63.32500000000001       54.01250000000001
    80   1      5.5875000000000057      61.462500000000013      57.737500000000011
    81   1      5.5875000000000057       63.32500000000001      59.600000000000009
    82   1      7.4500000000000046      61.462500000000013      59.600000000000009
    83   1      7.4500000000000046       63.32500000000001      57.737500000000011
    84   1      5.5875000000000057      61.462500000000013      61.462500000000013
    85   1      7.4500000000000046      61.462500000000013       63.32500000000001
    86   1      7.4500000000000046       63.32500000000001      61.462500000000013
    87   1      7.4500000000000046                 65.1875                  55.875
    88   1      5.5875000000000057                 65.1875      57.737500000000011
    89   1      7.4500000000000046                 65.1875      59.600000000000009
    90   1      7.4500000000000046      67.050000000000011      57.737500000000011
    91   1      11.175000000000006       44.70000000000001       54.01250000000001
    92   1      11.175000000000006       44.70000000000001      57.737500000000011
    93   1      11.175000000000006       44.70000000000001      61.462500000000013
    94   1      9.3125000000000071      48.425000000000011      52.150000000000006
    95   1      11.175000000000006      46.562500000000007      52.150000000000006
    96   1      11.175000000000006      48.425000000000011      50.287500000000009
    97   1      9.3125000000000071      48.425000000000011                  55.875
    98   1      11.175000000000006      46.562500000000007                  55.875
    99   1      11.175000000000006      48.425000000000011       54.01250000000001
   100   1      9.3125000000000071      46.562500000000007      57.737500000000011
   101   1      9.3125000000000071      48.425000000000011      59.600000000000009
   102   1      11.175000000000006      46.562500000000007      59.600000000000009
   103   1      11.175000000000006      48.425000000000011      57.737500000000011
   104   1      9.3125000000000071      48.425000000000011       63.32500000000001
   105   1      11.175000000000006      46.562500000000007       63.32500000000001
   106   1      11.175000000000006      48.425000000000011      61.462500000000013
   107   1      11.175000000000006      48.425000000000011                 65.1875
   108   1      9.3125000000000071      52.150000000000006      48.425000000000011
   109   1      11.175000000000006      50.287500000000009      48.425000000000011
   110   1      11.175000000000006      52.150000000000006      46.562500000000007
   111   1      9.3125000000000071      50.287500000000009      50.287500000000009
   112   1      9.3125000000000071      52.150000000000006      52.150000000000006
   113   1      11.175000000000006      50.287500000000009      52.150000000000006
   114   1      11.175000000000006      52.150000000000006      50.287500000000009
   115   1      9.3125000000000071      50.287500000000009       54.01250000000001
   116   1      9.3125000000000071      52.150000000000006                  55.875
   117   1      11.175000000000006      50.287500000000009                  55.875
   118   1      11.175000000000006      52.150000000000006       54.01250000000001
   119   1      9.3125000000000071      50.287500000000009      57.737500000000011
   120   1      9.3125000000000071      52.150000000000006      59.600000000000009
   121   1      11.175000000000006      50.287500000000009      59.600000000000009
   122   1      11.175000000000006      52.150000000000006      57.737500000000011
   123   1      9.3125000000000071      50.287500000000009      61.462500000000013
   124   1      9.3125000000000071      52.150000000000006       63.32500000000001
   125   1      11.175000000000006      50.287500000000009       63.32500000000001
   126   1      11.175000000000006      52.150000000000006      61.462500000000013
   127   1      9.3125000000000071      50.287500000000009                 65.1875
   128   1      9.3125000000000071      52.150000000000006      67.050000000000011
   129   1      11.175000000000006      50.287500000000009      67.050000000000011
   130   1      11.175000000000006      52.150000000000006                 65.1875
   131   1      11.175000000000006      52.150000000000006      68.912500000000009
   132   1      11.175000000000006       54.01250000000001       44.70000000000001
   133   1      9.3125000000000071                  55.875      48.425000000000011
   134   1      11.175000000000006       54.01250000000001      48.425000000000011
   135   1      11.175000000000006                  55.875      46.562500000000007
   136   1      9.3125000000000071       54.01250000000001      50.287500000000009
   137   1      9.3125000000000071                  55.875      52.150000000000006
   138   1      11.175000000000006       54.01250000000001      52.150000000000006
   139   1      11.175000000000006                  55.875      50.287500000000009
   140   1      9.3125000000000071       54.01250000000001       54.01250000000001
   141   1      9.3125000000000071                  55.875                  55.875
   142   1      11.175000000000006       54.01250000000001                  55.875
   143   1      11.175000000000006                  55.875       54.01250000000001
   144   1      9.3125000000000071       54.01250000000001      57.737500000000011
   145   1      9.3125000000000071                  55.875      59.600000000000009
   146   1      11.175000000000006       54.01250000000001      59.600000000000009
   147   1      11.175000000000006                  55.875      57.737500000000011
   148   1      9.3125000000000071       54.01250000000001      61.462500000000013
   149   1      9.3125000000000071                  55.875       63.32500000000001
   150   1      11.175000000000006       54.01250000000001       63.32500000000001
   151   1      11.175000000000006                  55.875      61.462500000000013
   152   1      9.3125000000000071       54.01250000000001                 65.1875
   153   1      9.3125000000000071                  55.875      67.050000000000011
   154   1      11.175000000000006       54.01250000000001      67.050000000000011
   155   1      11.175000000000006                  55.875                 65.1875
   156   1      11.175000000000006       54.01250000000001      70.775000000000006
   157   1      11.175000000000006                  55.875      68.912500000000009
   158   1      11.175000000000006      57.737500000000011       44.70000000000001
   159   1      9.3125000000000071      57.737500000000011      46.562500000000007
   160   1      9.3125000000000071      59.600000000000009      48.425000000000011
   161   1      11.175000000000006      57.737500000000011      48.425000000000011
   162   1      11.175000000000006      59.600000000000009      46.562500000000007
   163   1      9.3125000000000071      57.737500000000011      50.287500000000009
   164   1      9.3125000000000071      59.600000000000009      52.150000000000006
   165   1      11.175000000000006      57.737500000000011      52.150000000000006
   166   1      11.175000000000006      59.600000000000009      50.287500000000009
   167   1      9.3125000000000071      57.737500000000011       54.01250000000001
   168   1      9.3125000000000071      59.600000000000009                  55.875
   169   1      11.175000000000006      57.737500000000011                  55.875
   170   1      11.175000000000006      59.600000000000009       54.01250000000001
   171   1      9.3125000000000071      57.737500000000011      57.737500000000011
   172   1      9.3125000000000071      59.600000000000009      59.600000000000009
   173   1      11.175000000000006      57.737500000000011      59.600000000000009
   174   1      11.175000000000006      59.600000000000009      57.737500000000011
   175   1      9.3125000000000071      57.737500000000011      61.462500000000013
   176   1      9.3125000000000071      59.600000000000009       63.32500000000001
   177   1      11.175000000000006      57.737500000000011       63.32500000000001
   178   1      11.175000000000006      59.600000000000009      61.462500000000013
   179   1      9.3125000000000071      57.737500000000011                 65.1875
   180   1      9.3125000000000071      59.600000000000009      67.050000000000011
   181   1      11.175000000000006      57.737500000000011      67.050000000000011
   182   1      11.175000000000006      59.600000000000009                 65.1875
   183   1      9.3125000000000071      57.737500000000011      68.912500000000009
   184   1      11.175000000000006      57.737500000000011      70.775000000000006
   185   1      11.175000000000006      59.600000000000009      68.912500000000009
   186   1      11.175000000000006      61.462500000000013       44.70000000000001
   187   1      9.3125000000000071       63.32500000000001      48.425000000000011
   188   1      11.175000000000006      61.462500000000013      48.425000000000011
   189   1      11.175000000000006       63.32500000000001      46.562500000000007
   190   1      9.3125000000000071      61.462500000000013      50.287500000000009
   191   1      9.3125000000000071       63.32500000000001      52.150000000000006
   192   1      11.175000000000006      61.462500000000013      52.150000000000006
   193   1      11.175000000000006       63.32500000000001      50.287500000000009
   194   1      9.3125000000000071      61.462500000000013       54.01250000000001
   195   1      9.3125000000000071       63.32500000000001                  55.875
   196   1      11.175000000000006      61.462500000000013                  55.875
   197   1      11.175000000000006       63.32500000000001       54.01250000000001
   198   1      9.3125000000000071      61.462500000000013      57.737500000000011
   199   1      9.3125000000000071       63.32500000000001      59.600000000000009
   200   1      11.175000000000006      61.462500000000013      59.600000000000009
   201   1      11.175000000000006       63.32500000000001      57.737500000000011
   202   1      9.3125000000000071      61.462500000000013      61.462500000000013
   203   1      9.3125000000000071       63.32500000000001       63.32500000000001
   204   1      11.175000000000006      61.462500000000013       63.32500000000001
   205   1      11.175000000000006       63.32500000000001      61.462500000000013
   206   1      9.3125000000000071      61.462500000000013                 65.1875
   207   1      9.3125000000000071       63.32500000000001      67.050000000000011
   208   1      11.175000000000006      61.462500000000013      67.050000000000011
   209   1      11.175000000000006       63.32500000000001                 65.1875
   210   1      11.175000000000006      61.462500000000013      70.775000000000006
   211   1      11.175000000000006       63.32500000000001      68.912500000000009
   212   1      11.175000000000006                 65.1875      48.425000000000011
   213   1      9.3125000000000071                 65.1875      50.287500000000009
   214   1      9.3125000000000071      67.050000000000011      52.150000000000006
   215   1      11.175000000000006                 65.1875      52.150000000000006
   216   1      11.175000000000006      67.050000000000011      50.287500000000009
   217   1      9.3125000000000071                 65.1875       54.01250000000001
   218   1      9.3125000000000071      67.050000000000011                  55.875
   219   1      11.175000000000006                 65.1875                  55.875
   220   1      11.175000000000006      67.050000000000011       54.01250000000001
   221   1      9.3125000000000071                 65.1875      57.737500000000011
   222   1      9.3125000000000071      67.050000000000011      59.600000000000009
   223   1      11.175000000000006                 65.1875      59.600000000000009
   224   1      11.175000000000006      67.050000000000011      57.737500000000011
   225   1      9.3125000000000071                 65.1875      61.462500000000013
   226   1      9.3125000000000071      67.050000000000011       63.32500000000001
   227   1      11.175000000000006                 65.1875       63.32500000000001
   228   1      11.175000000000006      67.050000000000011      61.462500000000013
   229   1      9.3125000000000071                 65.1875                 65.1875
   230   1      11.175000000000006                 65.1875      67.050000000000011
   231   1      11.175000000000006      67.050000000000011                 65.1875
   232   1      11.175000000000006      68.912500000000009      52.150000000000006
   233   1      11.175000000000006      68.912500000000009                  55.875
   234   1      11.175000000000006      70.775000000000006       54.01250000000001
   235   1      9.3125000000000071      68.912500000000009      57.737500000000011
   236   1      11.175000000000006      68.912500000000009      59.600000000000009
   237   1      11.175000000000006      70.775000000000006      57.737500000000011
   238   1      11.175000000000006      68.912500000000009       63.32500000000001
   239   1      11.175000000000006      70.775000000000006      61.462500000000013
   240   1      14.899999999999999      37.250000000000007      57.737500000000011
   241   1      13.037500000000003      40.975000000000001                  55.875
   242   1      14.899999999999999      39.112500000000011                  55.875
   243   1      14.899999999999999      40.975000000000001       54.01250000000001
   244   1      13.037500000000003      40.975000000000001      59.600000000000009
   245   1      14.899999999999999      39.112500000000011      59.600000000000009
   246   1      14.899999999999999      40.975000000000001      57.737500000000011
   247   1      14.899999999999999      40.975000000000001      61.462500000000013
   248   1      13.037500000000003       44.70000000000001      52.150000000000006
   249   1      14.899999999999999      42.837500000000013      52.150000000000006
   250   1      14.899999999999999       44.70000000000001      50.287500000000009
   251   1      13.037500000000003      42.837500000000013       54.01250000000001
   252   1      13.037500000000003       44.70000000000001                  55.875
   253   1      14.899999999999999      42.837500000000013                  55.875
   254   1      14.899999999999999       44.70000000000001       54.01250000000001
   255   1      13.037500000000003      42.837500000000013      57.737500000000011
   256   1      13.037500000000003       44.70000000000001      59.600000000000009
   257   1      14.899999999999999      42.837500000000013      59.600000000000009
   258   1      14.899999999999999       44.70000000000001      57.737500000000011
   259   1      13.037500000000003      42.837500000000013      61.462500000000013
   260   1      13.037500000000003       44.70000000000001       63.32500000000001
   261   1      14.899999999999999      42.837500000000013       63.32500000000001
   262   1      14.899999999999999       44.70000000000001      61.462500000000013
   263   1      14.899999999999999       44.70000000000001                 65.1875
   264   1      13.037500000000003      48.425000000000011      48.425000000000011
   265   1      14.899999999999999      46.562500000000007      48.425000000000011
   266   1      14.899999999999999      48.425000000000011      46.562500000000007
   267   1      13.037500000000003      46.562500000000007      50.287500000000009
   268   1      13.037500000000003      48.425000000000011      52.150000000000006
   269   1      14.899999999999999      46.562500000000007      52.150000000000006
   270   1      14.899999999999999      48.425000000000011      50.287500000000009
   271   1      13.037500000000003      46.562500000000007       54.01250000000001
   272   1      13.037500000000003      48.425000000000011                  55.875
   273   1      14.899999999999999      46.562500000000007                  55.875
   274   1      14.899999999999999      48.425000000000011       54.01250000000001
   275   1      13.037500000000003      46.562500000000007      57.737500000000011
   276   1      13.037500000000003      48.425000000000011      59.600000000000009
   277   1      14.899999999999999      46.562500000000007      59.600000000000009
   278   1      14.899999999999999      48.425000000000011      57.737500000000011
   279   1      13.037500000000003      46.562500000000007      61.462500000000013
   280   1      13.037500000000003      48.425000000000011       63.32500000000001
   281   1      14.899999999999999      46.562500000000007       63.32500000000001
   282   1      14.899999999999999      48.425000000000011      61.462500000000013
   283   1      13.037500000000003      46.562500000000007                 65.1875
   284   1      13.037500000000003      48.425000000000011      67.050000000000011
   285   1      14.899999999999999      46.562500000000007      67.050000000000011
   286   1      14.899999999999999      48.425000000000011                 65.1875
   287   1      14.899999999999999      48.425000000000011      68.912500000000009
   288   1      13.037500000000003      52.150000000000006       44.70000000000001
   289   1      14.899999999999999      50.287500000000009       44.70000000000001
   290   1      14.899999999999999      52.150000000000006      42.837500000000013
   291   1      13.037500000000003      50.287500000000009      46.562500000000007
   292   1      13.037500000000003      52.150000000000006      48.425000000000011
   293   1      14.899999999999999      50.287500000000009      48.425000000000011
   294   1      14.899999999999999      52.150000000000006      46.562500000000007
   295   1      13.037500000000003      50.287500000000009      50.287500000000009
   296   1      13.037500000000003      52.150000000000006      52.150000000000006
   297   1      14.899999999999999      50.287500000000009      52.150000000000006
   298   1      14.899999999999999      52.150000000000006      50.287500000000009
   299   1      13.037500000000003      50.287500000000009       54.01250000000001
   300   1      13.037500000000003      52.150000000000006                  55.875
   301   1      14.899999999999999      50.287500000000009                  55.875
   302   1      14.899999999999999      52.150000000000006       54.01250000000001
   303   1      13.037500000000003      50.287500000000009      57.737500000000011
   304   1      13.037500000000003      52.150000000000006      59.600000000000009
   305   1      14.899999999999999      50.287500000000009      59.600000000000009
   306   1      14.899999999999999      52.150000000000006      57.737500000000011
   307   1      13.037500000000003      50.287500000000009      61.462500000000013
   308   1      13.037500000000003      52.150000000000006       63.32500000000001
   309   1      14.899999999999999      50.287500000000009       63.32500000000001
   310   1      14.899999999999999      52.150000000000006      61.462500000000013
   311   1      13.037500000000003      50.287500000000009                 65.1875
   312   1      13.037500000000003      52.150000000000006      67.050000000000011
   313   1      14.899999999999999      50.287500000000009      67.050000000000011
   314   1      14.899999999999999      52.150000000000006                 65.1875
   315   1      13.037500000000003      50.287500000000009      68.912500000000009
   316   1      13.037500000000003      52.150000000000006      70.775000000000006
   317   1      14.899999999999999      50.287500000000009      70.775000000000006
   318   1      14.899999999999999      52.150000000000006      68.912500000000009
   319   1      14.899999999999999      52.150000000000006      72.637500000000017
   320   1      13.037500000000003                  55.875      40.975000000000001
   321   1      14.899999999999999       54.01250000000001      40.975000000000001
   322   1      14.899999999999999                  55.875      39.112500000000011
   323   1      13.037500000000003       54.01250000000001      42.837500000000013
   324   1      13.037500000000003                  55.875       44.70000000000001
   325   1      14.899999999999999       54.01250000000001       44.70000000000001
   326   1      14.899999999999999                  55.875      42.837500000000013
   327   1      13.037500000000003       54.01250000000001      46.562500000000007
   328   1      13.037500000000003                  55.875      48.425000000000011
   329   1      14.899999999999999       54.01250000000001      48.425000000000011
   330   1      14.899999999999999                  55.875      46.562500000000007
   331   1      13.037500000000003       54.01250000000001      50.287500000000009
   332   1      13.037500000000003                  55.875      52.150000000000006
   333   1      14.899999999999999       54.01250000000001      52.150000000000006
   334   1      14.899999999999999                  55.875      50.287500000000009
   335   1      13.037500000000003       54.01250000000001       54.01250000000001
   336   1      13.037500000000003                  55.875                  55.875
   337   1      14.899999999999999       54.01250000000001                  55.875
   338   1      14.899999999999999                  55.875       54.01250000000001
   339   1      13.037500000000003       54.01250000000001      57.737500000000011
   340   1      13.037500000000003                  55.875      59.600000000000009
   341   1      14.899999999999999       54.01250000000001      59.600000000000009
   342   1      14.899999999999999                  55.875      57.737500000000011
   343   1      13.037500000000003       54.01250000000001      61.462500000000013
   344   1      13.037500000000003                  55.875       63.32500000000001
   345   1      14.899999999999999       54.01250000000001       63.32500000000001
   346   1      14.899999999999999                  55.875      61.462500000000013
   347   1      13.037500000000003       54.01250000000001                 65.1875
   348   1      13.037500000000003                  55.875      67.050000000000011
   349   1      14.899999999999999       54.01250000000001      67.050000000000011
   350   1      14.899999999999999                  55.875                 65.1875
   351   1      13.037500000000003       54.01250000000001      68.912500000000009
   352   1      13.037500000000003                  55.875      70.775000000000006
   353   1      14.899999999999999       54.01250000000001      70.775000000000006
   354   1      14.899999999999999                  55.875      68.912500000000009
   355   1      13.037500000000003       54.01250000000001      72.637500000000017
   356   1      13.037500000000003                  55.875      74.500000000000014
   357   1      14.899999999999999       54.01250000000001      74.500000000000014
   358   1      14.899999999999999                  55.875      72.637500000000017