model_files/Pt/Pt_3000/Pt_221/data.Pt_221_fcc_3175 (written by ASE) 

3175 	 atoms 
1  atom types
0.0                      54  xlo xhi
0.0                      54  ylo yhi
0.0                      54  zlo zhi


Atoms 

     1   1                       0      25.479999999999993      25.479999999999993
     2   1      1.9599999999999971      23.519999999999996      25.479999999999993
     3   1      1.9599999999999971      25.479999999999993      23.519999999999996
     4   1                       0      25.479999999999993      29.399999999999999
     5   1      1.9599999999999971      23.519999999999996      29.399999999999999
     6   1      1.9599999999999971      25.479999999999993      27.439999999999998
     7   1      1.9599999999999971      25.479999999999993      31.359999999999996
     8   1                       0      29.399999999999999      25.479999999999993
     9   1      1.9599999999999971      27.439999999999998      25.479999999999993
    10   1      1.9599999999999971      29.399999999999999      23.519999999999996
    11   1                       0      27.439999999999998      27.439999999999998
    12   1                       0      29.399999999999999      29.399999999999999
    13   1      1.9599999999999971      27.439999999999998      29.399999999999999
    14   1      1.9599999999999971      29.399999999999999      27.439999999999998
    15   1      1.9599999999999971      29.399999999999999      31.359999999999996
    16   1      1.9599999999999971      31.359999999999996      25.479999999999993
    17   1      1.9599999999999971      31.359999999999996      29.399999999999999
    18   1      3.9199999999999982      21.559999999999995      25.479999999999993
    19   1       5.879999999999999      19.599999999999994      25.479999999999993
    20   1       5.879999999999999      21.559999999999995      23.519999999999996
    21   1      3.9199999999999982      21.559999999999995      29.399999999999999
    22   1       5.879999999999999      19.599999999999994      29.399999999999999
    23   1       5.879999999999999      21.559999999999995      27.439999999999998
    24   1       5.879999999999999      21.559999999999995      31.359999999999996
    25   1      3.9199999999999982      25.479999999999993      21.559999999999995
    26   1       5.879999999999999      23.519999999999996      21.559999999999995
    27   1       5.879999999999999      25.479999999999993      19.599999999999994
    28   1      3.9199999999999982      23.519999999999996      23.519999999999996
    29   1      3.9199999999999982      25.479999999999993      25.479999999999993
    30   1       5.879999999999999      23.519999999999996      25.479999999999993
    31   1       5.879999999999999      25.479999999999993      23.519999999999996
    32   1      3.9199999999999982      23.519999999999996      27.439999999999998
    33   1      3.9199999999999982      25.479999999999993      29.399999999999999
    34   1       5.879999999999999      23.519999999999996      29.399999999999999
    35   1       5.879999999999999      25.479999999999993      27.439999999999998
    36   1      3.9199999999999982      23.519999999999996      31.359999999999996
    37   1      3.9199999999999982      25.479999999999993                   33.32
    38   1       5.879999999999999      23.519999999999996                   33.32
    39   1       5.879999999999999      25.479999999999993      31.359999999999996
    40   1       5.879999999999999      25.479999999999993      35.280000000000001
    41   1      3.9199999999999982      29.399999999999999      21.559999999999995
    42   1       5.879999999999999      27.439999999999998      21.559999999999995
    43   1       5.879999999999999      29.399999999999999      19.599999999999994
    44   1      3.9199999999999982      27.439999999999998      23.519999999999996
    45   1      3.9199999999999982      29.399999999999999      25.479999999999993
    46   1       5.879999999999999      27.439999999999998      25.479999999999993
    47   1       5.879999999999999      29.399999999999999      23.519999999999996
    48   1      3.9199999999999982      27.439999999999998      27.439999999999998
    49   1      3.9199999999999982      29.399999999999999      29.399999999999999
    50   1       5.879999999999999      27.439999999999998      29.399999999999999
    51   1       5.879999999999999      29.399999999999999      27.439999999999998
    52   1      3.9199999999999982      27.439999999999998      31.359999999999996
    53   1      3.9199999999999982      29.399999999999999                   33.32
    54   1       5.879999999999999      27.439999999999998                   33.32
    55   1       5.879999999999999      29.399999999999999      31.359999999999996
    56   1       5.879999999999999      29.399999999999999      35.280000000000001
    57   1       5.879999999999999      31.359999999999996      21.559999999999995
    58   1      3.9199999999999982      31.359999999999996      23.519999999999996
    59   1      3.9199999999999982                   33.32      25.479999999999993
    60   1       5.879999999999999      31.359999999999996      25.479999999999993
    61   1       5.879999999999999                   33.32      23.519999999999996
    62   1      3.9199999999999982      31.359999999999996      27.439999999999998
    63   1      3.9199999999999982                   33.32      29.399999999999999
    64   1       5.879999999999999      31.359999999999996      29.399999999999999
    65   1       5.879999999999999                   33.32      27.439999999999998
    66   1      3.9199999999999982      31.359999999999996      31.359999999999996
    67   1       5.879999999999999      31.359999999999996                   33.32
    68   1       5.879999999999999                   33.32      31.359999999999996
    69   1       5.879999999999999      35.280000000000001      25.479999999999993
    70   1       5.879999999999999      35.280000000000001      29.399999999999999
    71   1      7.8399999999999963      17.640000000000001      25.479999999999993
    72   1      9.7999999999999954      15.679999999999998      25.479999999999993
    73   1      9.7999999999999954      17.640000000000001      23.519999999999996
    74   1      7.8399999999999963      17.640000000000001      29.399999999999999
    75   1      9.7999999999999954      15.679999999999998      29.399999999999999
    76   1      9.7999999999999954      17.640000000000001      27.439999999999998
    77   1      9.7999999999999954      17.640000000000001      31.359999999999996
    78   1      7.8399999999999963      21.559999999999995      21.559999999999995
    79   1      9.7999999999999954      19.599999999999994      21.559999999999995
    80   1      9.7999999999999954      21.559999999999995      19.599999999999994
    81   1      7.8399999999999963      19.599999999999994      23.519999999999996
    82   1      7.8399999999999963      21.559999999999995      25.479999999999993
    83   1      9.7999999999999954      19.599999999999994      25.479999999999993
    84   1      9.7999999999999954      21.559999999999995      23.519999999999996
    85   1      7.8399999999999963      19.599999999999994      27.439999999999998
    86   1      7.8399999999999963      21.559999999999995      29.399999999999999
    87   1      9.7999999999999954      19.599999999999994      29.399999999999999
    88   1      9.7999999999999954      21.559999999999995      27.439999999999998
    89   1      7.8399999999999963      19.599999999999994      31.359999999999996
    90   1      7.8399999999999963      21.559999999999995                   33.32
    91   1      9.7999999999999954      19.599999999999994                   33.32
    92   1      9.7999999999999954      21.559999999999995      31.359999999999996
    93   1      9.7999999999999954      21.559999999999995      35.280000000000001
    94   1      7.8399999999999963      25.479999999999993      17.640000000000001
    95   1      9.7999999999999954      23.519999999999996      17.640000000000001
    96   1      9.7999999999999954      25.479999999999993      15.679999999999998
    97   1      7.8399999999999963      23.519999999999996      19.599999999999994
    98   1      7.8399999999999963      25.479999999999993      21.559999999999995
    99   1      9.7999999999999954      23.519999999999996      21.559999999999995
   100   1      9.7999999999999954      25.479999999999993      19.599999999999994
   101   1      7.8399999999999963      23.519999999999996      23.519999999999996
   102   1      7.8399999999999963      25.479999999999993      25.479999999999993
   103   1      9.7999999999999954      23.519999999999996      25.479999999999993
   104   1      9.7999999999999954      25.479999999999993      23.519999999999996
   105   1      7.8399999999999963      23.519999999999996      27.439999999999998
   106   1      7.8399999999999963      25.479999999999993      29.399999999999999
   107   1      9.7999999999999954      23.519999999999996      29.399999999999999
   108   1      9.7999999999999954      25.479999999999993      27.439999999999998
   109   1      7.8399999999999963      23.519999999999996      31.359999999999996
   110   1      7.8399999999999963      25.479999999999993                   33.32
   111   1      9.7999999999999954      23.519999999999996                   33.32
   112   1      9.7999999999999954      25.479999999999993      31.359999999999996
   113   1      7.8399999999999963      23.519999999999996      35.280000000000001
   114   1      7.8399999999999963      25.479999999999993      37.239999999999995
   115   1      9.7999999999999954      23.519999999999996      37.239999999999995
   116   1      9.7999999999999954      25.479999999999993      35.280000000000001
   117   1      9.7999999999999954      25.479999999999993      39.199999999999989
   118   1      7.8399999999999963      29.399999999999999      17.640000000000001
   119   1      9.7999999999999954      27.439999999999998      17.640000000000001
   120   1      9.7999999999999954      29.399999999999999      15.679999999999998
   121   1      7.8399999999999963      27.439999999999998      19.599999999999994
   122   1      7.8399999999999963      29.399999999999999      21.559999999999995
   123   1      9.7999999999999954      27.439999999999998      21.559999999999995
   124   1      9.7999999999999954      29.399999999999999      19.599999999999994
   125   1      7.8399999999999963      27.439999999999998      23.519999999999996
   126   1      7.8399999999999963      29.399999999999999      25.479999999999993
   127   1      9.7999999999999954      27.439999999999998      25.479999999999993
   128   1      9.7999999999999954      29.399999999999999      23.519999999999996
   129   1      7.8399999999999963      27.439999999999998      27.439999999999998
   130   1      7.8399999999999963      29.399999999999999      29.399999999999999
   131   1      9.7999999999999954      27.439999999999998      29.399999999999999
   132   1      9.7999999999999954      29.399999999999999      27.439999999999998
   133   1      7.8399999999999963      27.439999999999998      31.359999999999996
   134   1      7.8399999999999963      29.399999999999999                   33.32
   135   1      9.7999999999999954      27.439999999999998                   33.32
   136   1      9.7999999999999954      29.399999999999999      31.359999999999996
   137   1      7.8399999999999963      27.439999999999998      35.280000000000001
   138   1      7.8399999999999963      29.399999999999999      37.239999999999995
   139   1      9.7999999999999954      27.439999999999998      37.239999999999995
   140   1      9.7999999999999954      29.399999999999999      35.280000000000001
   141   1      9.7999999999999954      29.399999999999999      39.199999999999989
   142   1      9.7999999999999954      31.359999999999996      17.640000000000001
   143   1      7.8399999999999963      31.359999999999996      19.599999999999994
   144   1      7.8399999999999963                   33.32      21.559999999999995
   145   1      9.7999999999999954      31.359999999999996      21.559999999999995
   146   1      9.7999999999999954                   33.32      19.599999999999994
   147   1      7.8399999999999963      31.359999999999996      23.519999999999996
   148   1      7.8399999999999963                   33.32      25.479999999999993
   149   1      9.7999999999999954      31.359999999999996      25.479999999999993
   150   1      9.7999999999999954                   33.32      23.519999999999996
   151   1      7.8399999999999963      31.359999999999996      27.439999999999998
   152   1      7.8399999999999963                   33.32      29.399999999999999
   153   1      9.7999999999999954      31.359999999999996      29.399999999999999
   154   1      9.7999999999999954                   33.32      27.439999999999998
   155   1      7.8399999999999963      31.359999999999996      31.359999999999996
   156   1      7.8399999999999963                   33.32                   33.32
   157   1      9.7999999999999954      31.359999999999996                   33.32
   158   1      9.7999999999999954                   33.32      31.359999999999996
   159   1      7.8399999999999963      31.359999999999996      35.280000000000001
   160   1      9.7999999999999954      31.359999999999996      37.239999999999995
   161   1      9.7999999999999954                   33.32      35.280000000000001
   162   1      9.7999999999999954      35.280000000000001      21.559999999999995
   163   1      7.8399999999999963      35.280000000000001      23.519999999999996
   164   1      7.8399999999999963      37.239999999999995      25.479999999999993
   165   1      9.7999999999999954      35.280000000000001      25.479999999999993
   166   1      9.7999999999999954      37.239999999999995      23.519999999999996
   167   1      7.8399999999999963      35.280000000000001      27.439999999999998
   168   1      7.8399999999999963      37.239999999999995      29.399999999999999
   169   1      9.7999999999999954      35.280000000000001      29.399999999999999
   170   1      9.7999999999999954      37.239999999999995      27.439999999999998
   171   1      7.8399999999999963      35.280000000000001      31.359999999999996
   172   1      9.7999999999999954      35.280000000000001                   33.32
   173   1      9.7999999999999954      37.239999999999995      31.359999999999996
   174   1      9.7999999999999954      39.199999999999989      25.479999999999993
   175   1      9.7999999999999954      39.199999999999989      29.399999999999999
   176   1      11.759999999999998      13.719999999999999      25.479999999999993
   177   1      13.719999999999999      11.759999999999998      25.479999999999993
   178   1      13.719999999999999      13.719999999999999      23.519999999999996
   179   1      11.759999999999998      13.719999999999999      29.399999999999999
   180   1      13.719999999999999      11.759999999999998      29.399999999999999
   181   1      13.719999999999999      13.719999999999999      27.439999999999998
   182   1      13.719999999999999      13.719999999999999      31.359999999999996
   183   1      11.759999999999998      17.640000000000001      17.640000000000001
   184   1      13.719999999999999      15.679999999999998      17.640000000000001
   185   1      13.719999999999999      17.640000000000001      15.679999999999998
   186   1      11.759999999999998      17.640000000000001      21.559999999999995
   187   1      13.719999999999999      15.679999999999998      21.559999999999995
   188   1      13.719999999999999      17.640000000000001      19.599999999999994
   189   1      11.759999999999998      15.679999999999998      23.519999999999996
   190   1      11.759999999999998      17.640000000000001      25.479999999999993
   191   1      13.719999999999999      15.679999999999998      25.479999999999993
   192   1      13.719999999999999      17.640000000000001      23.519999999999996
   193   1      11.759999999999998      15.679999999999998      27.439999999999998
   194   1      11.759999999999998      17.640000000000001      29.399999999999999
   195   1      13.719999999999999      15.679999999999998      29.399999999999999
   196   1      13.719999999999999      17.640000000000001      27.439999999999998
   197   1      11.759999999999998      15.679999999999998      31.359999999999996
   198   1      11.759999999999998      17.640000000000001                   33.32
   199   1      13.719999999999999      15.679999999999998                   33.32
   200   1      13.719999999999999      17.640000000000001      31.359999999999996
   201   1      11.759999999999998      17.640000000000001      37.239999999999995
   202   1      13.719999999999999      15.679999999999998      37.239999999999995
   203   1      13.719999999999999      17.640000000000001      35.280000000000001
   204   1      13.719999999999999      17.640000000000001      39.199999999999989
   205   1      11.759999999999998      21.559999999999995      17.640000000000001
   206   1      13.719999999999999      19.599999999999994      17.640000000000001
   207   1      13.719999999999999      21.559999999999995      15.679999999999998
   208   1      11.759999999999998      19.599999999999994      19.599999999999994
   209   1      11.759999999999998      21.559999999999995      21.559999999999995
   210   1      13.719999999999999      19.599999999999994      21.559999999999995
   211   1      13.719999999999999      21.559999999999995      19.599999999999994
   212   1      11.759999999999998      19.599999999999994      23.519999999999996
   213   1      11.759999999999998      21.559999999999995      25.479999999999993
   214   1      13.719999999999999      19.599999999999994      25.479999999999993
   215   1      13.719999999999999      21.559999999999995      23.519999999999996
   216   1      11.759999999999998      19.599999999999994      27.439999999999998
   217   1      11.759999999999998      21.559999999999995      29.399999999999999
   218   1      13.719999999999999      19.599999999999994      29.399999999999999
   219   1      13.719999999999999      21.559999999999995      27.439999999999998
   220   1      11.759999999999998      19.599999999999994      31.359999999999996
   221   1      11.759999999999998      21.559999999999995                   33.32
   222   1      13.719999999999999      19.599999999999994                   33.32
   223   1      13.719999999999999      21.559999999999995      31.359999999999996
   224   1      11.759999999999998      19.599999999999994      35.280000000000001
   225   1      11.759999999999998      21.559999999999995      37.239999999999995
   226   1      13.719999999999999      19.599999999999994      37.239999999999995
   227   1      13.719999999999999      21.559999999999995      35.280000000000001
   228   1      13.719999999999999      21.559999999999995      39.199999999999989
   229   1      11.759999999999998      25.479999999999993      13.719999999999999
   230   1      13.719999999999999      23.519999999999996      13.719999999999999
   231   1      13.719999999999999      25.479999999999993      11.759999999999998
   232   1      11.759999999999998      23.519999999999996      15.679999999999998
   233   1      11.759999999999998      25.479999999999993      17.640000000000001
   234   1      13.719999999999999      23.519999999999996      17.640000000000001
   235   1      13.719999999999999      25.479999999999993      15.679999999999998
   236   1      11.759999999999998      23.519999999999996      19.599999999999994
   237   1      11.759999999999998      25.479999999999993      21.559999999999995
   238   1      13.719999999999999      23.519999999999996      21.559999999999995
   239   1      13.719999999999999      25.479999999999993      19.599999999999994
   240   1      11.759999999999998      23.519999999999996      23.519999999999996
   241   1      11.759999999999998      25.479999999999993      25.479999999999993
   242   1      13.719999999999999      23.519999999999996      25.479999999999993
   243   1      13.719999999999999      25.479999999999993      23.519999999999996
   244   1      11.759999999999998      23.519999999999996      27.439999999999998
   245   1      11.759999999999998      25.479999999999993      29.399999999999999
   246   1      13.719999999999999      23.519999999999996      29.399999999999999
   247   1      13.719999999999999      25.479999999999993      27.439999999999998
   248   1      11.759999999999998      23.519999999999996      31.359999999999996
   249   1      11.759999999999998      25.479999999999993                   33.32
   250   1      13.719999999999999      23.519999999999996                   33.32
   251   1      13.719999999999999      25.479999999999993      31.359999999999996
   252   1      11.759999999999998      23.519999999999996      35.280000000000001
   253   1      11.759999999999998      25.479999999999993      37.239999999999995
   254   1      13.719999999999999      23.519999999999996      37.239999999999995
   255   1      13.719999999999999      25.479999999999993      35.280000000000001
   256   1      11.759999999999998      23.519999999999996      39.199999999999989
   257   1      11.759999999999998      25.479999999999993      41.159999999999997
   258   1      13.719999999999999      23.519999999999996      41.159999999999997
   259   1      13.719999999999999      25.479999999999993      39.199999999999989
   260   1      13.719999999999999      25.479999999999993       43.11999999999999
   261   1      11.759999999999998      29.399999999999999      13.719999999999999
   262   1      13.719999999999999      27.439999999999998      13.719999999999999
   263   1      13.719999999999999      29.399999999999999      11.759999999999998
   264   1      11.759999999999998      27.439999999999998      15.679999999999998
   265   1      11.759999999999998      29.399999999999999      17.640000000000001
   266   1      13.719999999999999      27.439999999999998      17.640000000000001
   267   1      13.719999999999999      29.399999999999999      15.679999999999998
   268   1      11.759999999999998      27.439999999999998      19.599999999999994
   269   1      11.759999999999998      29.399999999999999      21.559999999999995
   270   1      13.719999999999999      27.439999999999998      21.559999999999995
   271   1      13.719999999999999      29.399999999999999      19.599999999999994
   272   1      11.759999999999998      27.439999999999998      23.519999999999996
   273   1      11.759999999999998      29.399999999999999      25.479999999999993
   274   1      13.719999999999999      27.439999999999998      25.479999999999993
   275   1      13.719999999999999      29.399999999999999      23.519999999999996
   276   1      11.759999999999998      27.439999999999998      27.439999999999998
   277   1      11.759999999999998      29.399999999999999      29.399999999999999
   278   1      13.719999999999999      27.439999999999998      29.399999999999999
   279   1      13.719999999999999      29.399999999999999      27.439999999999998
   280   1      11.759999999999998      27.439999999999998      31.359999999999996
   281   1      11.759999999999998      29.399999999999999                   33.32
   282   1      13.719999999999999      27.439999999999998                   33.32
   283   1      13.719999999999999      29.399999999999999      31.359999999999996
   284   1      11.759999999999998      27.439999999999998      35.280000000000001
   285   1      11.759999999999998      29.399999999999999      37.239999999999995
   286   1      13.719999999999999      27.439999999999998      37.239999999999995
   287   1      13.719999999999999      29.399999999999999      35.280000000000001
   288   1      11.759999999999998      27.439999999999998      39.199999999999989
   289   1      11.759999999999998      29.399999999999999      41.159999999999997
   290   1      13.719999999999999      27.439999999999998      41.159999999999997
   291   1      13.719999999999999      29.399999999999999      39.199999999999989
   292   1      13.719999999999999      29.399999999999999       43.11999999999999
   293   1      13.719999999999999      31.359999999999996      13.719999999999999
   294   1      11.759999999999998      31.359999999999996      15.679999999999998
   295   1      11.759999999999998                   33.32      17.640000000000001
   296   1      13.719999999999999      31.359999999999996      17.640000000000001
   297   1      13.719999999999999                   33.32      15.679999999999998
   298   1      11.759999999999998      31.359999999999996      19.599999999999994
   299   1      11.759999999999998                   33.32      21.559999999999995
   300   1      13.719999999999999      31.359999999999996      21.559999999999995
   301   1      13.719999999999999                   33.32      19.599999999999994
   302   1      11.759999999999998      31.359999999999996      23.519999999999996
   303   1      11.759999999999998                   33.32      25.479999999999993
   304   1      13.719999999999999      31.359999999999996      25.479999999999993
   305   1      13.719999999999999                   33.32      23.519999999999996
   306   1      11.759999999999998      31.359999999999996      27.439999999999998
   307   1      11.759999999999998                   33.32      29.399999999999999
   308   1      13.719999999999999      31.359999999999996      29.399999999999999
   309   1      13.719999999999999                   33.32      27.439999999999998
   310   1      11.759999999999998      31.359999999999996      31.359999999999996
   311   1      11.759999999999998                   33.32                   33.32
   312   1      13.719999999999999      31.359999999999996                   33.32
   313   1      13.719999999999999                   33.32      31.359999999999996
   314   1      11.759999999999998      31.359999999999996      35.280000000000001
   315   1      11.759999999999998                   33.32      37.239999999999995
   316   1      13.719999999999999      31.359999999999996      37.239999999999995
   317   1      13.719999999999999                   33.32      35.280000000000001
   318   1      11.759999999999998      31.359999999999996      39.199999999999989
   319   1      13.719999999999999      31.359999999999996      41.159999999999997
   320   1      13.719999999999999                   33.32      39.199999999999989
   321   1      11.759999999999998      37.239999999999995      17.640000000000001
   322   1      13.719999999999999      35.280000000000001      17.640000000000001
   323   1      13.719999999999999      37.239999999999995      15.679999999999998
   324   1      11.759999999999998      35.280000000000001      19.599999999999994
   325   1      11.759999999999998      37.239999999999995      21.559999999999995
   326   1      13.719999999999999      35.280000000000001      21.559999999999995
   327   1      13.719999999999999      37.239999999999995      19.599999999999994
   328   1      11.759999999999998      35.280000000000001      23.519999999999996
   329   1      11.759999999999998      37.239999999999995      25.479999999999993
   330   1      13.719999999999999      35.280000000000001      25.479999999999993
   331   1      13.719999999999999      37.239999999999995      23.519999999999996
   332   1      11.759999999999998      35.280000000000001      27.439999999999998
   333   1      11.759999999999998      37.239999999999995      29.399999999999999
   334   1      13.719999999999999      35.280000000000001      29.399999999999999
   335   1      13.719999999999999      37.239999999999995      27.439999999999998
   336   1      11.759999999999998      35.280000000000001      31.359999999999996
   337   1      11.759999999999998      37.239999999999995                   33.32
   338   1      13.719999999999999      35.280000000000001                   33.32
   339   1      13.719999999999999      37.239999999999995      31.359999999999996
   340   1      11.759999999999998      35.280000000000001      35.280000000000001
   341   1      11.759999999999998      37.239999999999995      37.239999999999995
   342   1      13.719999999999999      35.280000000000001      37.239999999999995
   343   1      13.719999999999999      37.239999999999995      35.280000000000001
   344   1      13.719999999999999      37.239999999999995      39.199999999999989
   345   1      13.719999999999999      39.199999999999989      17.640000000000001
   346   1      13.719999999999999      39.199999999999989      21.559999999999995
   347   1      11.759999999999998      39.199999999999989      23.519999999999996
   348   1      11.759999999999998      41.159999999999997      25.479999999999993
   349   1      13.719999999999999      39.199999999999989      25.479999999999993
   350   1      13.719999999999999      41.159999999999997      23.519999999999996
   351   1      11.759999999999998      39.199999999999989      27.439999999999998
   352   1      11.759999999999998      41.159999999999997      29.399999999999999
   353   1      13.719999999999999      39.199999999999989      29.399999999999999
   354   1      13.719999999999999      41.159999999999997      27.439999999999998
   355   1      11.759999999999998      39.199999999999989      31.359999999999996
   356   1      13.719999999999999      39.199999999999989                   33.32
   357   1      13.719999999999999      41.159999999999997      31.359999999999996
   358   1      13.719999999999999      39.199999999999989      37.239999999999995