model_files/Pd/Pd_30000/Pd_432/data.Pd_432_fcc_29911 (written by ASE) 

29911 	 atoms 
1  atom types
0.0                     116  xlo xhi
0.0                     116  ylo yhi
0.0                     116  zlo zhi


Atoms 

     1   1      1.9450000000000001      56.405000000000001      58.350000000000001
     2   1      1.9450000000000001      58.350000000000001      56.405000000000001
     3   1                       0      58.350000000000001      58.350000000000001
     4   1      1.9450000000000001      58.350000000000001      60.294999999999995
     5   1      1.9450000000000001      60.294999999999995      58.350000000000001
     6   1      5.8350000000000009                  48.625      58.350000000000001
     7   1      3.8900000000000001      52.515000000000001      56.405000000000001
     8   1      5.8350000000000009                   50.57      56.405000000000001
     9   1      5.8350000000000009      52.515000000000001      54.460000000000001
    10   1      3.8900000000000001      52.515000000000001      60.294999999999995
    11   1      5.8350000000000009                   50.57      60.294999999999995
    12   1      5.8350000000000009      52.515000000000001      58.350000000000001
    13   1      5.8350000000000009      52.515000000000001      62.239999999999988
    14   1      3.8900000000000001      56.405000000000001      52.515000000000001
    15   1      5.8350000000000009      54.460000000000001      52.515000000000001
    16   1      5.8350000000000009      56.405000000000001                   50.57
    17   1      3.8900000000000001      54.460000000000001      54.460000000000001
    18   1      3.8900000000000001      56.405000000000001      56.405000000000001
    19   1      5.8350000000000009      54.460000000000001      56.405000000000001
    20   1      5.8350000000000009      56.405000000000001      54.460000000000001
    21   1      3.8900000000000001      54.460000000000001      58.350000000000001
    22   1      3.8900000000000001      56.405000000000001      60.294999999999995
    23   1      5.8350000000000009      54.460000000000001      60.294999999999995
    24   1      5.8350000000000009      56.405000000000001      58.350000000000001
    25   1      3.8900000000000001      54.460000000000001      62.239999999999988
    26   1      3.8900000000000001      56.405000000000001      64.184999999999988
    27   1      5.8350000000000009      54.460000000000001      64.184999999999988
    28   1      5.8350000000000009      56.405000000000001      62.239999999999988
    29   1      5.8350000000000009      56.405000000000001      66.129999999999995
    30   1      5.8350000000000009      58.350000000000001                  48.625
    31   1      3.8900000000000001      60.294999999999995      52.515000000000001
    32   1      5.8350000000000009      58.350000000000001      52.515000000000001
    33   1      5.8350000000000009      60.294999999999995                   50.57
    34   1      3.8900000000000001      58.350000000000001      54.460000000000001
    35   1      3.8900000000000001      60.294999999999995      56.405000000000001
    36   1      5.8350000000000009      58.350000000000001      56.405000000000001
    37   1      5.8350000000000009      60.294999999999995      54.460000000000001
    38   1      3.8900000000000001      58.350000000000001      58.350000000000001
    39   1      3.8900000000000001      60.294999999999995      60.294999999999995
    40   1      5.8350000000000009      58.350000000000001      60.294999999999995
    41   1      5.8350000000000009      60.294999999999995      58.350000000000001
    42   1      3.8900000000000001      58.350000000000001      62.239999999999988
    43   1      3.8900000000000001      60.294999999999995      64.184999999999988
    44   1      5.8350000000000009      58.350000000000001      64.184999999999988
    45   1      5.8350000000000009      60.294999999999995      62.239999999999988
    46   1      5.8350000000000009      58.350000000000001      68.074999999999989
    47   1      5.8350000000000009      60.294999999999995      66.129999999999995
    48   1      5.8350000000000009      62.239999999999988      52.515000000000001
    49   1      3.8900000000000001      62.239999999999988      54.460000000000001
    50   1      3.8900000000000001      64.184999999999988      56.405000000000001
    51   1      5.8350000000000009      62.239999999999988      56.405000000000001
    52   1      5.8350000000000009      64.184999999999988      54.460000000000001
    53   1      3.8900000000000001      62.239999999999988      58.350000000000001
    54   1      3.8900000000000001      64.184999999999988      60.294999999999995
    55   1      5.8350000000000009      62.239999999999988      60.294999999999995
    56   1      5.8350000000000009      64.184999999999988      58.350000000000001
    57   1      3.8900000000000001      62.239999999999988      62.239999999999988
    58   1      5.8350000000000009      62.239999999999988      64.184999999999988
    59   1      5.8350000000000009      64.184999999999988      62.239999999999988
    60   1      5.8350000000000009      66.129999999999995      56.405000000000001
    61   1      5.8350000000000009      66.129999999999995      60.294999999999995
    62   1      5.8350000000000009      68.074999999999989      58.350000000000001
    63   1      9.7250000000000014      44.734999999999999      58.350000000000001
    64   1      9.7250000000000014                  48.625                   50.57
    65   1      7.7800000000000002                  48.625      56.405000000000001
    66   1      9.7250000000000014                   46.68      56.405000000000001
    67   1      9.7250000000000014                  48.625      54.460000000000001
    68   1      7.7800000000000002                   46.68      58.350000000000001
    69   1      7.7800000000000002                  48.625      60.294999999999995
    70   1      9.7250000000000014                   46.68      60.294999999999995
    71   1      9.7250000000000014                  48.625      58.350000000000001
    72   1      9.7250000000000014                  48.625      62.239999999999988
    73   1      9.7250000000000014                  48.625      66.129999999999995
    74   1      9.7250000000000014                   50.57                  48.625
    75   1      7.7800000000000002      52.515000000000001      52.515000000000001
    76   1      9.7250000000000014                   50.57      52.515000000000001
    77   1      9.7250000000000014      52.515000000000001                   50.57
    78   1      7.7800000000000002                   50.57      54.460000000000001
    79   1      7.7800000000000002      52.515000000000001      56.405000000000001
    80   1      9.7250000000000014                   50.57      56.405000000000001
    81   1      9.7250000000000014      52.515000000000001      54.460000000000001
    82   1      7.7800000000000002                   50.57      58.350000000000001
    83   1      7.7800000000000002      52.515000000000001      60.294999999999995
    84   1      9.7250000000000014                   50.57      60.294999999999995
    85   1      9.7250000000000014      52.515000000000001      58.350000000000001
    86   1      7.7800000000000002                   50.57      62.239999999999988
    87   1      7.7800000000000002      52.515000000000001      64.184999999999988
    88   1      9.7250000000000014                   50.57      64.184999999999988
    89   1      9.7250000000000014      52.515000000000001      62.239999999999988
    90   1      9.7250000000000014                   50.57      68.074999999999989
    91   1      9.7250000000000014      52.515000000000001      66.129999999999995
    92   1      7.7800000000000002      56.405000000000001                  48.625
    93   1      9.7250000000000014      54.460000000000001                  48.625
    94   1      9.7250000000000014      56.405000000000001                   46.68
    95   1      7.7800000000000002      54.460000000000001                   50.57
    96   1      7.7800000000000002      56.405000000000001      52.515000000000001
    97   1      9.7250000000000014      54.460000000000001      52.515000000000001
    98   1      9.7250000000000014      56.405000000000001                   50.57
    99   1      7.7800000000000002      54.460000000000001      54.460000000000001
   100   1      7.7800000000000002      56.405000000000001      56.405000000000001
   101   1      9.7250000000000014      54.460000000000001      56.405000000000001
   102   1      9.7250000000000014      56.405000000000001      54.460000000000001
   103   1      7.7800000000000002      54.460000000000001      58.350000000000001
   104   1      7.7800000000000002      56.405000000000001      60.294999999999995
   105   1      9.7250000000000014      54.460000000000001      60.294999999999995
   106   1      9.7250000000000014      56.405000000000001      58.350000000000001
   107   1      7.7800000000000002      54.460000000000001      62.239999999999988
   108   1      7.7800000000000002      56.405000000000001      64.184999999999988
   109   1      9.7250000000000014      54.460000000000001      64.184999999999988
   110   1      9.7250000000000014      56.405000000000001      62.239999999999988
   111   1      7.7800000000000002      54.460000000000001      66.129999999999995
   112   1      7.7800000000000002      56.405000000000001      68.074999999999989
   113   1      9.7250000000000014      54.460000000000001      68.074999999999989
   114   1      9.7250000000000014      56.405000000000001      66.129999999999995
   115   1      9.7250000000000014      56.405000000000001      70.019999999999996
   116   1      9.7250000000000014      58.350000000000001      44.734999999999999
   117   1      7.7800000000000002      58.350000000000001                   46.68
   118   1      7.7800000000000002      60.294999999999995                  48.625
   119   1      9.7250000000000014      58.350000000000001                  48.625
   120   1      9.7250000000000014      60.294999999999995                   46.68
   121   1      7.7800000000000002      58.350000000000001                   50.57
   122   1      7.7800000000000002      60.294999999999995      52.515000000000001
   123   1      9.7250000000000014      58.350000000000001      52.515000000000001
   124   1      9.7250000000000014      60.294999999999995                   50.57
   125   1      7.7800000000000002      58.350000000000001      54.460000000000001
   126   1      7.7800000000000002      60.294999999999995      56.405000000000001
   127   1      9.7250000000000014      58.350000000000001      56.405000000000001
   128   1      9.7250000000000014      60.294999999999995      54.460000000000001
   129   1      7.7800000000000002      58.350000000000001      58.350000000000001
   130   1      7.7800000000000002      60.294999999999995      60.294999999999995
   131   1      9.7250000000000014      58.350000000000001      60.294999999999995
   132   1      9.7250000000000014      60.294999999999995      58.350000000000001
   133   1      7.7800000000000002      58.350000000000001      62.239999999999988
   134   1      7.7800000000000002      60.294999999999995      64.184999999999988
   135   1      9.7250000000000014      58.350000000000001      64.184999999999988
   136   1      9.7250000000000014      60.294999999999995      62.239999999999988
   137   1      7.7800000000000002      58.350000000000001      66.129999999999995
   138   1      7.7800000000000002      60.294999999999995      68.074999999999989
   139   1      9.7250000000000014      58.350000000000001      68.074999999999989
   140   1      9.7250000000000014      60.294999999999995      66.129999999999995
   141   1      7.7800000000000002      58.350000000000001      70.019999999999996
   142   1      9.7250000000000014      58.350000000000001      71.964999999999989
   143   1      9.7250000000000014      60.294999999999995      70.019999999999996
   144   1      9.7250000000000014      62.239999999999988                  48.625
   145   1      7.7800000000000002      62.239999999999988                   50.57
   146   1      7.7800000000000002      64.184999999999988      52.515000000000001
   147   1      9.7250000000000014      62.239999999999988      52.515000000000001
   148   1      9.7250000000000014      64.184999999999988                   50.57
   149   1      7.7800000000000002      62.239999999999988      54.460000000000001
   150   1      7.7800000000000002      64.184999999999988      56.405000000000001
   151   1      9.7250000000000014      62.239999999999988      56.405000000000001
   152   1      9.7250000000000014      64.184999999999988      54.460000000000001
   153   1      7.7800000000000002      62.239999999999988      58.350000000000001
   154   1      7.7800000000000002      64.184999999999988      60.294999999999995
   155   1      9.7250000000000014      62.239999999999988      60.294999999999995
   156   1      9.7250000000000014      64.184999999999988      58.350000000000001
   157   1      7.7800000000000002      62.239999999999988      62.239999999999988
   158   1      7.7800000000000002      64.184999999999988      64.184999999999988
   159   1      9.7250000000000014      62.239999999999988      64.184999999999988
   160   1      9.7250000000000014      64.184999999999988      62.239999999999988
   161   1      7.7800000000000002      62.239999999999988      66.129999999999995
   162   1      9.7250000000000014      62.239999999999988      68.074999999999989
   163   1      9.7250000000000014      64.184999999999988      66.129999999999995
   164   1      9.7250000000000014      66.129999999999995                  48.625
   165   1      9.7250000000000014      66.129999999999995      52.515000000000001
   166   1      9.7250000000000014      68.074999999999989                   50.57
   167   1      7.7800000000000002      66.129999999999995      54.460000000000001
   168   1      7.7800000000000002      68.074999999999989      56.405000000000001
   169   1      9.7250000000000014      66.129999999999995      56.405000000000001
   170   1      9.7250000000000014      68.074999999999989      54.460000000000001
   171   1      7.7800000000000002      66.129999999999995      58.350000000000001
   172   1      7.7800000000000002      68.074999999999989      60.294999999999995
   173   1      9.7250000000000014      66.129999999999995      60.294999999999995
   174   1      9.7250000000000014      68.074999999999989      58.350000000000001
   175   1      7.7800000000000002      66.129999999999995      62.239999999999988
   176   1      9.7250000000000014      66.129999999999995      64.184999999999988
   177   1      9.7250000000000014      68.074999999999989      62.239999999999988
   178   1      9.7250000000000014      66.129999999999995      68.074999999999989
   179   1      9.7250000000000014      68.074999999999989      66.129999999999995
   180   1      9.7250000000000014      70.019999999999996      56.405000000000001
   181   1      7.7800000000000002      70.019999999999996      58.350000000000001
   182   1      9.7250000000000014      70.019999999999996      60.294999999999995
   183   1      9.7250000000000014      71.964999999999989      58.350000000000001
   184   1      13.615000000000002      40.844999999999999      54.460000000000001
   185   1      13.615000000000002      40.844999999999999      58.350000000000001
   186   1      13.615000000000002      40.844999999999999      62.239999999999988
   187   1      11.670000000000002      44.734999999999999      52.515000000000001
   188   1      13.615000000000002      42.789999999999999      52.515000000000001
   189   1      13.615000000000002      44.734999999999999                   50.57
   190   1      11.670000000000002      44.734999999999999      56.405000000000001
   191   1      13.615000000000002      42.789999999999999      56.405000000000001
   192   1      13.615000000000002      44.734999999999999      54.460000000000001
   193   1      11.670000000000002      42.789999999999999      58.350000000000001
   194   1      11.670000000000002      44.734999999999999      60.294999999999995
   195   1      13.615000000000002      42.789999999999999      60.294999999999995
   196   1      13.615000000000002      44.734999999999999      58.350000000000001
   197   1      11.670000000000002      44.734999999999999      64.184999999999988
   198   1      13.615000000000002      42.789999999999999      64.184999999999988
   199   1      13.615000000000002      44.734999999999999      62.239999999999988
   200   1      13.615000000000002      44.734999999999999      66.129999999999995
   201   1      11.670000000000002                  48.625                  48.625
   202   1      13.615000000000002                   46.68                  48.625
   203   1      13.615000000000002                  48.625                   46.68
   204   1      11.670000000000002                   46.68                   50.57
   205   1      11.670000000000002                  48.625      52.515000000000001
   206   1      13.615000000000002                   46.68      52.515000000000001
   207   1      13.615000000000002                  48.625                   50.57
   208   1      11.670000000000002                   46.68      54.460000000000001
   209   1      11.670000000000002                  48.625      56.405000000000001
   210   1      13.615000000000002                   46.68      56.405000000000001
   211   1      13.615000000000002                  48.625      54.460000000000001
   212   1      11.670000000000002                   46.68      58.350000000000001
   213   1      11.670000000000002                  48.625      60.294999999999995
   214   1      13.615000000000002                   46.68      60.294999999999995
   215   1      13.615000000000002                  48.625      58.350000000000001
   216   1      11.670000000000002                   46.68      62.239999999999988
   217   1      11.670000000000002                  48.625      64.184999999999988
   218   1      13.615000000000002                   46.68      64.184999999999988
   219   1      13.615000000000002                  48.625      62.239999999999988
   220   1      11.670000000000002                   46.68      66.129999999999995
   221   1      11.670000000000002                  48.625      68.074999999999989
   222   1      13.615000000000002                   46.68      68.074999999999989
   223   1      13.615000000000002                  48.625      66.129999999999995
   224   1      13.615000000000002                  48.625      70.019999999999996
   225   1      11.670000000000002      52.515000000000001      44.734999999999999
   226   1      13.615000000000002                   50.57      44.734999999999999
   227   1      13.615000000000002      52.515000000000001      42.789999999999999
   228   1      11.670000000000002                   50.57                   46.68
   229   1      11.670000000000002      52.515000000000001                  48.625
   230   1      13.615000000000002                   50.57                  48.625
   231   1      13.615000000000002      52.515000000000001                   46.68
   232   1      11.670000000000002                   50.57                   50.57
   233   1      11.670000000000002      52.515000000000001      52.515000000000001
   234   1      13.615000000000002                   50.57      52.515000000000001
   235   1      13.615000000000002      52.515000000000001                   50.57
   236   1      11.670000000000002                   50.57      54.460000000000001
   237   1      11.670000000000002      52.515000000000001      56.405000000000001
   238   1      13.615000000000002                   50.57      56.405000000000001
   239   1      13.615000000000002      52.515000000000001      54.460000000000001
   240   1      11.670000000000002                   50.57      58.350000000000001
   241   1      11.670000000000002      52.515000000000001      60.294999999999995
   242   1      13.615000000000002                   50.57      60.294999999999995
   243   1      13.615000000000002      52.515000000000001      58.350000000000001
   244   1      11.670000000000002                   50.57      62.239999999999988
   245   1      11.670000000000002      52.515000000000001      64.184999999999988
   246   1      13.615000000000002                   50.57      64.184999999999988
   247   1      13.615000000000002      52.515000000000001      62.239999999999988
   248   1      11.670000000000002                   50.57      66.129999999999995
   249   1      11.670000000000002      52.515000000000001      68.074999999999989
   250   1      13.615000000000002                   50.57      68.074999999999989
   251   1      13.615000000000002      52.515000000000001      66.129999999999995
   252   1      11.670000000000002                   50.57      70.019999999999996
   253   1      11.670000000000002      52.515000000000001      71.964999999999989
   254   1      13.615000000000002                   50.57      71.964999999999989
   255   1      13.615000000000002      52.515000000000001      70.019999999999996
   256   1      13.615000000000002      52.515000000000001      73.909999999999997
   257   1      13.615000000000002      54.460000000000001      40.844999999999999
   258   1      11.670000000000002      56.405000000000001      44.734999999999999
   259   1      13.615000000000002      54.460000000000001      44.734999999999999
   260   1      13.615000000000002      56.405000000000001      42.789999999999999
   261   1      11.670000000000002      54.460000000000001                   46.68
   262   1      11.670000000000002      56.405000000000001                  48.625
   263   1      13.615000000000002      54.460000000000001                  48.625
   264   1      13.615000000000002      56.405000000000001                   46.68
   265   1      11.670000000000002      54.460000000000001                   50.57
   266   1      11.670000000000002      56.405000000000001      52.515000000000001
   267   1      13.615000000000002      54.460000000000001      52.515000000000001
   268   1      13.615000000000002      56.405000000000001                   50.57
   269   1      11.670000000000002      54.460000000000001      54.460000000000001
   270   1      11.670000000000002      56.405000000000001      56.405000000000001
   271   1      13.615000000000002      54.460000000000001      56.405000000000001
   272   1      13.615000000000002      56.405000000000001      54.460000000000001
   273   1      11.670000000000002      54.460000000000001      58.350000000000001
   274   1      11.670000000000002      56.405000000000001      60.294999999999995
   275   1      13.615000000000002      54.460000000000001      60.294999999999995
   276   1      13.615000000000002      56.405000000000001      58.350000000000001
   277   1      11.670000000000002      54.460000000000001      62.239999999999988
   278   1      11.670000000000002      56.405000000000001      64.184999999999988
   279   1      13.615000000000002      54.460000000000001      64.184999999999988
   280   1      13.615000000000002      56.405000000000001      62.239999999999988
   281   1      11.670000000000002      54.460000000000001      66.129999999999995
   282   1      11.670000000000002      56.405000000000001      68.074999999999989
   283   1      13.615000000000002      54.460000000000001      68.074999999999989
   284   1      13.615000000000002      56.405000000000001      66.129999999999995
   285   1      11.670000000000002      54.460000000000001      70.019999999999996
   286   1      11.670000000000002      56.405000000000001      71.964999999999989
   287   1      13.615000000000002      54.460000000000001      71.964999999999989
   288   1      13.615000000000002      56.405000000000001      70.019999999999996
   289   1      13.615000000000002      54.460000000000001       75.85499999999999
   290   1      13.615000000000002      56.405000000000001      73.909999999999997
   291   1      13.615000000000002      58.350000000000001      40.844999999999999
   292   1      11.670000000000002      58.350000000000001      42.789999999999999
   293   1      11.670000000000002      60.294999999999995      44.734999999999999
   294   1      13.615000000000002      58.350000000000001      44.734999999999999
   295   1      13.615000000000002      60.294999999999995      42.789999999999999
   296   1      11.670000000000002      58.350000000000001                   46.68
   297   1      11.670000000000002      60.294999999999995                  48.625
   298   1      13.615000000000002      58.350000000000001                  48.625
   299   1      13.615000000000002      60.294999999999995                   46.68
   300   1      11.670000000000002      58.350000000000001                   50.57
   301   1      11.670000000000002      60.294999999999995      52.515000000000001
   302   1      13.615000000000002      58.350000000000001      52.515000000000001
   303   1      13.615000000000002      60.294999999999995                   50.57
   304   1      11.670000000000002      58.350000000000001      54.460000000000001
   305   1      11.670000000000002      60.294999999999995      56.405000000000001
   306   1      13.615000000000002      58.350000000000001      56.405000000000001
   307   1      13.615000000000002      60.294999999999995      54.460000000000001
   308   1      11.670000000000002      58.350000000000001      58.350000000000001
   309   1      11.670000000000002      60.294999999999995      60.294999999999995
   310   1      13.615000000000002      58.350000000000001      60.294999999999995
   311   1      13.615000000000002      60.294999999999995      58.350000000000001
   312   1      11.670000000000002      58.350000000000001      62.239999999999988
   313   1      11.670000000000002      60.294999999999995      64.184999999999988
   314   1      13.615000000000002      58.350000000000001      64.184999999999988
   315   1      13.615000000000002      60.294999999999995      62.239999999999988
   316   1      11.670000000000002      58.350000000000001      66.129999999999995
   317   1      11.670000000000002      60.294999999999995      68.074999999999989
   318   1      13.615000000000002      58.350000000000001      68.074999999999989
   319   1      13.615000000000002      60.294999999999995      66.129999999999995
   320   1      11.670000000000002      58.350000000000001      70.019999999999996
   321   1      11.670000000000002      60.294999999999995      71.964999999999989
   322   1      13.615000000000002      58.350000000000001      71.964999999999989
   323   1      13.615000000000002      60.294999999999995      70.019999999999996
   324   1      11.670000000000002      58.350000000000001      73.909999999999997
   325   1      13.615000000000002      58.350000000000001       75.85499999999999
   326   1      13.615000000000002      60.294999999999995      73.909999999999997
   327   1      13.615000000000002      62.239999999999988      40.844999999999999
   328   1      11.670000000000002      64.184999999999988      44.734999999999999
   329   1      13.615000000000002      62.239999999999988      44.734999999999999
   330   1      13.615000000000002      64.184999999999988      42.789999999999999
   331   1      11.670000000000002      62.239999999999988                   46.68
   332   1      11.670000000000002      64.184999999999988                  48.625
   333   1      13.615000000000002      62.239999999999988                  48.625
   334   1      13.615000000000002      64.184999999999988                   46.68
   335   1      11.670000000000002      62.239999999999988                   50.57
   336   1      11.670000000000002      64.184999999999988      52.515000000000001
   337   1      13.615000000000002      62.239999999999988      52.515000000000001
   338   1      13.615000000000002      64.184999999999988                   50.57
   339   1      11.670000000000002      62.239999999999988      54.460000000000001
   340   1      11.670000000000002      64.184999999999988      56.405000000000001
   341   1      13.615000000000002      62.239999999999988      56.405000000000001
   342   1      13.615000000000002      64.184999999999988      54.460000000000001
   343   1      11.670000000000002      62.239999999999988      58.350000000000001
   344   1      11.670000000000002      64.184999999999988      60.294999999999995
   345   1      13.615000000000002      62.239999999999988      60.294999999999995
   346   1      13.615000000000002      64.184999999999988      58.350000000000001
   347   1      11.670000000000002      62.239999999999988      62.239999999999988
   348   1      11.670000000000002      64.184999999999988      64.184999999999988
   349   1      13.615000000000002      62.239999999999988      64.184999999999988
   350   1      13.615000000000002      64.184999999999988      62.239999999999988
   351   1      11.670000000000002      62.239999999999988      66.129999999999995
   352   1      11.670000000000002      64.184999999999988      68.074999999999989
   353   1      13.615000000000002      62.239999999999988      68.074999999999989
   354   1      13.615000000000002      64.184999999999988      66.129999999999995
   355   1      11.670000000000002      62.239999999999988      70.019999999999996
   356   1      11.670000000000002      64.184999999999988      71.964999999999989
   357   1      13.615000000000002      62.239999999999988      71.964999999999989
   358   1      13.615000000000002      64.184999999999988      70.019999999999996