model_files/CuAu/CuAu_30000/CuAu_411/CuAu_411_fcc_29957_temp.data (written by ASE) 

29957 	 atoms 
2  atom types
0.0                      91  xlo xhi
0.0                      91  ylo yhi
0.0                      91  zlo zhi


Atoms 

     1   1      1.8699999999999903      39.269999999999989      44.880000000000003
     2   1      1.8699999999999903      41.139999999999993      43.009999999999991
     3   1      1.8699999999999903      43.009999999999991      41.139999999999993
     4   1      1.8699999999999903      41.139999999999993      46.749999999999993
     5   1      1.8699999999999903      43.009999999999991      44.880000000000003
     6   1      1.8699999999999903      43.009999999999991      48.619999999999997
     7   1      1.8699999999999903      44.880000000000003      39.269999999999989
     8   1      1.8699999999999903      44.880000000000003      43.009999999999991
     9   1      1.8699999999999903      46.749999999999993      41.139999999999993
    10   1      90.999999999999986      44.880000000000003      44.880000000000003
    11   1      1.8699999999999903      44.880000000000003      46.749999999999993
    12   1      1.8699999999999903      46.749999999999993      44.880000000000003
    13   1      1.8699999999999903      44.880000000000003      50.489999999999988
    14   1      1.8699999999999903      46.749999999999993      48.619999999999997
    15   1      1.8699999999999903      48.619999999999997      43.009999999999991
    16   1      1.8699999999999903      48.619999999999997      46.749999999999993
    17   1      1.8699999999999903      50.489999999999988      44.880000000000003
    18   1      5.6099999999999932      24.309999999999995      44.880000000000003
    19   1      5.6099999999999932      26.179999999999996      43.009999999999991
    20   1      5.6099999999999932      28.049999999999997      41.139999999999993
    21   1      5.6099999999999932      26.179999999999996      46.749999999999993
    22   1      5.6099999999999932      28.049999999999997      44.880000000000003
    23   1      5.6099999999999932      28.049999999999997      48.619999999999997
    24   1      5.6099999999999932      29.919999999999998      39.269999999999989
    25   1      5.6099999999999932      31.789999999999996      37.399999999999991
    26   1      3.7399999999999953      31.789999999999996      43.009999999999991
    27   1      5.6099999999999932      29.919999999999998      43.009999999999991
    28   1      5.6099999999999932      31.789999999999996      41.139999999999993
    29   1      3.7399999999999953      29.919999999999998      44.880000000000003
    30   1      3.7399999999999953      31.789999999999996      46.749999999999993
    31   1      5.6099999999999932      29.919999999999998      46.749999999999993
    32   1      5.6099999999999932      31.789999999999996      44.880000000000003
    33   1      5.6099999999999932      29.919999999999998      50.489999999999988
    34   1      5.6099999999999932      31.789999999999996      48.619999999999997
    35   1      5.6099999999999932      31.789999999999996      52.359999999999999
    36   1      5.6099999999999932      33.660000000000004      35.529999999999994
    37   1      5.6099999999999932      35.529999999999994      33.660000000000004
    38   1      3.7399999999999953      35.529999999999994      39.269999999999989
    39   1      5.6099999999999932      33.660000000000004      39.269999999999989
    40   1      5.6099999999999932      35.529999999999994      37.399999999999991
    41   1      3.7399999999999953      33.660000000000004      41.139999999999993
    42   1      3.7399999999999953      35.529999999999994      43.009999999999991
    43   1      5.6099999999999932      33.660000000000004      43.009999999999991
    44   1      5.6099999999999932      35.529999999999994      41.139999999999993
    45   1      3.7399999999999953      33.660000000000004      44.880000000000003
    46   1      3.7399999999999953      35.529999999999994      46.749999999999993
    47   1      5.6099999999999932      33.660000000000004      46.749999999999993
    48   1      5.6099999999999932      35.529999999999994      44.880000000000003
    49   1      3.7399999999999953      33.660000000000004      48.619999999999997
    50   1      3.7399999999999953      35.529999999999994      50.489999999999988
    51   1      5.6099999999999932      33.660000000000004      50.489999999999988
    52   1      5.6099999999999932      35.529999999999994      48.619999999999997
    53   1      5.6099999999999932      33.660000000000004       54.22999999999999
    54   1      5.6099999999999932      35.529999999999994      52.359999999999999
    55   1      5.6099999999999932      35.529999999999994      56.100000000000001
    56   1      5.6099999999999932      37.399999999999991      31.789999999999996
    57   1      5.6099999999999932      39.269999999999989      29.919999999999998
    58   1      3.7399999999999953      39.269999999999989      35.529999999999994
    59   1      5.6099999999999932      37.399999999999991      35.529999999999994
    60   1      5.6099999999999932      39.269999999999989      33.660000000000004
    61   1      3.7399999999999953      37.399999999999991      37.399999999999991
    62   1      3.7399999999999953      39.269999999999989      39.269999999999989
    63   1      5.6099999999999932      37.399999999999991      39.269999999999989
    64   1      5.6099999999999932      39.269999999999989      37.399999999999991
    65   1      3.7399999999999953      37.399999999999991      41.139999999999993
    66   1      3.7399999999999953      39.269999999999989      43.009999999999991
    67   1      5.6099999999999932      37.399999999999991      43.009999999999991
    68   1      5.6099999999999932      39.269999999999989      41.139999999999993
    69   1      3.7399999999999953      37.399999999999991      44.880000000000003
    70   1      3.7399999999999953      39.269999999999989      46.749999999999993
    71   1      5.6099999999999932      37.399999999999991      46.749999999999993
    72   1      5.6099999999999932      39.269999999999989      44.880000000000003
    73   1      3.7399999999999953      37.399999999999991      48.619999999999997
    74   1      3.7399999999999953      39.269999999999989      50.489999999999988
    75   1      5.6099999999999932      37.399999999999991      50.489999999999988
    76   1      5.6099999999999932      39.269999999999989      48.619999999999997
    77   1      3.7399999999999953      37.399999999999991      52.359999999999999
    78   1      3.7399999999999953      39.269999999999989       54.22999999999999
    79   1      5.6099999999999932      37.399999999999991       54.22999999999999
    80   1      5.6099999999999932      39.269999999999989      52.359999999999999
    81   1      5.6099999999999932      37.399999999999991      57.969999999999992
    82   1      5.6099999999999932      39.269999999999989      56.100000000000001
    83   1      5.6099999999999932      39.269999999999989      59.840000000000003
    84   1      5.6099999999999932      41.139999999999993      28.049999999999997
    85   1      5.6099999999999932      43.009999999999991      26.179999999999996
    86   1      3.7399999999999953      43.009999999999991      31.789999999999996
    87   1      5.6099999999999932      41.139999999999993      31.789999999999996
    88   1      5.6099999999999932      43.009999999999991      29.919999999999998
    89   1      3.7399999999999953      41.139999999999993      33.660000000000004
    90   1      3.7399999999999953      43.009999999999991      35.529999999999994
    91   1      5.6099999999999932      41.139999999999993      35.529999999999994
    92   1      5.6099999999999932      43.009999999999991      33.660000000000004
    93   1      3.7399999999999953      41.139999999999993      37.399999999999991
    94   1      3.7399999999999953      43.009999999999991      39.269999999999989
    95   1      5.6099999999999932      41.139999999999993      39.269999999999989
    96   1      5.6099999999999932      43.009999999999991      37.399999999999991
    97   1      3.7399999999999953      41.139999999999993      41.139999999999993
    98   1      3.7399999999999953      43.009999999999991      43.009999999999991
    99   1      5.6099999999999932      41.139999999999993      43.009999999999991
   100   1      5.6099999999999932      43.009999999999991      41.139999999999993
   101   1      3.7399999999999953      41.139999999999993      44.880000000000003
   102   1      3.7399999999999953      43.009999999999991      46.749999999999993
   103   1      5.6099999999999932      41.139999999999993      46.749999999999993
   104   1      5.6099999999999932      43.009999999999991      44.880000000000003
   105   1      3.7399999999999953      41.139999999999993      48.619999999999997
   106   1      3.7399999999999953      43.009999999999991      50.489999999999988
   107   1      5.6099999999999932      41.139999999999993      50.489999999999988
   108   1      5.6099999999999932      43.009999999999991      48.619999999999997
   109   1      3.7399999999999953      41.139999999999993      52.359999999999999
   110   1      3.7399999999999953      43.009999999999991       54.22999999999999
   111   1      5.6099999999999932      41.139999999999993       54.22999999999999
   112   1      5.6099999999999932      43.009999999999991      52.359999999999999
   113   1      3.7399999999999953      41.139999999999993      56.100000000000001
   114   1      3.7399999999999953      43.009999999999991      57.969999999999992
   115   1      5.6099999999999932      41.139999999999993      57.969999999999992
   116   1      5.6099999999999932      43.009999999999991      56.100000000000001
   117   1      5.6099999999999932      41.139999999999993      61.709999999999994
   118   1      5.6099999999999932      43.009999999999991      59.840000000000003
   119   1      5.6099999999999932      43.009999999999991      63.579999999999998
   120   1      5.6099999999999932      44.880000000000003      24.309999999999995
   121   1      5.6099999999999932      44.880000000000003      28.049999999999997
   122   1      5.6099999999999932      46.749999999999993      26.179999999999996
   123   1      3.7399999999999953      44.880000000000003      29.919999999999998
   124   1      3.7399999999999953      46.749999999999993      31.789999999999996
   125   1      5.6099999999999932      44.880000000000003      31.789999999999996
   126   1      5.6099999999999932      46.749999999999993      29.919999999999998
   127   1      3.7399999999999953      44.880000000000003      33.660000000000004
   128   1      3.7399999999999953      46.749999999999993      35.529999999999994
   129   1      5.6099999999999932      44.880000000000003      35.529999999999994
   130   1      5.6099999999999932      46.749999999999993      33.660000000000004
   131   1      3.7399999999999953      44.880000000000003      37.399999999999991
   132   1      3.7399999999999953      46.749999999999993      39.269999999999989
   133   1      5.6099999999999932      44.880000000000003      39.269999999999989
   134   1      5.6099999999999932      46.749999999999993      37.399999999999991
   135   1      3.7399999999999953      44.880000000000003      41.139999999999993
   136   1      3.7399999999999953      46.749999999999993      43.009999999999991
   137   1      5.6099999999999932      44.880000000000003      43.009999999999991
   138   1      5.6099999999999932      46.749999999999993      41.139999999999993
   139   1      3.7399999999999953      44.880000000000003      44.880000000000003
   140   1      3.7399999999999953      46.749999999999993      46.749999999999993
   141   1      5.6099999999999932      44.880000000000003      46.749999999999993
   142   1      5.6099999999999932      46.749999999999993      44.880000000000003
   143   1      3.7399999999999953      44.880000000000003      48.619999999999997
   144   1      3.7399999999999953      46.749999999999993      50.489999999999988
   145   1      5.6099999999999932      44.880000000000003      50.489999999999988
   146   1      5.6099999999999932      46.749999999999993      48.619999999999997
   147   1      3.7399999999999953      44.880000000000003      52.359999999999999
   148   1      3.7399999999999953      46.749999999999993       54.22999999999999
   149   1      5.6099999999999932      44.880000000000003       54.22999999999999
   150   1      5.6099999999999932      46.749999999999993      52.359999999999999
   151   1      3.7399999999999953      44.880000000000003      56.100000000000001
   152   1      3.7399999999999953      46.749999999999993      57.969999999999992
   153   1      5.6099999999999932      44.880000000000003      57.969999999999992
   154   1      5.6099999999999932      46.749999999999993      56.100000000000001
   155   1      3.7399999999999953      44.880000000000003      59.840000000000003
   156   1      5.6099999999999932      44.880000000000003      61.709999999999994
   157   1      5.6099999999999932      46.749999999999993      59.840000000000003
   158   1      5.6099999999999932      44.880000000000003      65.450000000000017
   159   1      5.6099999999999932      46.749999999999993      63.579999999999998
   160   1      5.6099999999999932      48.619999999999997      28.049999999999997
   161   1      5.6099999999999932      48.619999999999997      31.789999999999996
   162   1      5.6099999999999932      50.489999999999988      29.919999999999998
   163   1      3.7399999999999953      48.619999999999997      33.660000000000004
   164   1      3.7399999999999953      50.489999999999988      35.529999999999994
   165   1      5.6099999999999932      48.619999999999997      35.529999999999994
   166   1      5.6099999999999932      50.489999999999988      33.660000000000004
   167   1      3.7399999999999953      48.619999999999997      37.399999999999991
   168   1      3.7399999999999953      50.489999999999988      39.269999999999989
   169   1      5.6099999999999932      48.619999999999997      39.269999999999989
   170   1      5.6099999999999932      50.489999999999988      37.399999999999991
   171   1      3.7399999999999953      48.619999999999997      41.139999999999993
   172   1      3.7399999999999953      50.489999999999988      43.009999999999991
   173   1      5.6099999999999932      48.619999999999997      43.009999999999991
   174   1      5.6099999999999932      50.489999999999988      41.139999999999993
   175   1      3.7399999999999953      48.619999999999997      44.880000000000003
   176   1      3.7399999999999953      50.489999999999988      46.749999999999993
   177   1      5.6099999999999932      48.619999999999997      46.749999999999993
   178   1      5.6099999999999932      50.489999999999988      44.880000000000003
   179   1      3.7399999999999953      48.619999999999997      48.619999999999997
   180   1      3.7399999999999953      50.489999999999988      50.489999999999988
   181   1      5.6099999999999932      48.619999999999997      50.489999999999988
   182   1      5.6099999999999932      50.489999999999988      48.619999999999997
   183   1      3.7399999999999953      48.619999999999997      52.359999999999999
   184   1      3.7399999999999953      50.489999999999988       54.22999999999999
   185   1      5.6099999999999932      48.619999999999997       54.22999999999999
   186   1      5.6099999999999932      50.489999999999988      52.359999999999999
   187   1      3.7399999999999953      48.619999999999997      56.100000000000001
   188   1      5.6099999999999932      48.619999999999997      57.969999999999992
   189   1      5.6099999999999932      50.489999999999988      56.100000000000001
   190   1      5.6099999999999932      48.619999999999997      61.709999999999994
   191   1      5.6099999999999932      50.489999999999988      59.840000000000003
   192   1      5.6099999999999932      52.359999999999999      31.789999999999996
   193   1      5.6099999999999932      52.359999999999999      35.529999999999994
   194   1      5.6099999999999932       54.22999999999999      33.660000000000004
   195   1      3.7399999999999953      52.359999999999999      37.399999999999991
   196   1      3.7399999999999953       54.22999999999999      39.269999999999989
   197   1      5.6099999999999932      52.359999999999999      39.269999999999989
   198   1      5.6099999999999932       54.22999999999999      37.399999999999991
   199   1      3.7399999999999953      52.359999999999999      41.139999999999993
   200   1      3.7399999999999953       54.22999999999999      43.009999999999991
   201   1      5.6099999999999932      52.359999999999999      43.009999999999991
   202   1      5.6099999999999932       54.22999999999999      41.139999999999993
   203   1      3.7399999999999953      52.359999999999999      44.880000000000003
   204   1      3.7399999999999953       54.22999999999999      46.749999999999993
   205   1      5.6099999999999932      52.359999999999999      46.749999999999993
   206   1      5.6099999999999932       54.22999999999999      44.880000000000003
   207   1      3.7399999999999953      52.359999999999999      48.619999999999997
   208   1      3.7399999999999953       54.22999999999999      50.489999999999988
   209   1      5.6099999999999932      52.359999999999999      50.489999999999988
   210   1      5.6099999999999932       54.22999999999999      48.619999999999997
   211   1      3.7399999999999953      52.359999999999999      52.359999999999999
   212   1      5.6099999999999932      52.359999999999999       54.22999999999999
   213   1      5.6099999999999932       54.22999999999999      52.359999999999999
   214   1      5.6099999999999932      52.359999999999999      57.969999999999992
   215   1      5.6099999999999932       54.22999999999999      56.100000000000001
   216   1      5.6099999999999932      56.100000000000001      35.529999999999994
   217   1      5.6099999999999932      56.100000000000001      39.269999999999989
   218   1      5.6099999999999932      57.969999999999992      37.399999999999991
   219   1      3.7399999999999953      56.100000000000001      41.139999999999993
   220   1      3.7399999999999953      57.969999999999992      43.009999999999991
   221   1      5.6099999999999932      56.100000000000001      43.009999999999991
   222   1      5.6099999999999932      57.969999999999992      41.139999999999993
   223   1      3.7399999999999953      56.100000000000001      44.880000000000003
   224   1      3.7399999999999953      57.969999999999992      46.749999999999993
   225   1      5.6099999999999932      56.100000000000001      46.749999999999993
   226   1      5.6099999999999932      57.969999999999992      44.880000000000003
   227   1      3.7399999999999953      56.100000000000001      48.619999999999997
   228   1      5.6099999999999932      56.100000000000001      50.489999999999988
   229   1      5.6099999999999932      57.969999999999992      48.619999999999997
   230   1      5.6099999999999932      56.100000000000001       54.22999999999999
   231   1      5.6099999999999932      57.969999999999992      52.359999999999999
   232   1      5.6099999999999932      59.840000000000003      39.269999999999989
   233   1      5.6099999999999932      59.840000000000003      43.009999999999991
   234   1      5.6099999999999932      61.709999999999994      41.139999999999993
   235   1      3.7399999999999953      59.840000000000003      44.880000000000003
   236   1      5.6099999999999932      59.840000000000003      46.749999999999993
   237   1      5.6099999999999932      61.709999999999994      44.880000000000003
   238   1      5.6099999999999932      59.840000000000003      50.489999999999988
   239   1      5.6099999999999932      61.709999999999994      48.619999999999997
   240   1      5.6099999999999932      63.579999999999998      43.009999999999991
   241   1      5.6099999999999932      63.579999999999998      46.749999999999993
   242   1      5.6099999999999932      65.450000000000017      44.880000000000003
   243   1      9.3499999999999943      9.3499999999999943      44.880000000000003
   244   1      9.3499999999999943      11.219999999999992      43.009999999999991
   245   1      9.3499999999999943      13.089999999999995      41.139999999999993
   246   1      9.3499999999999943      11.219999999999992      46.749999999999993
   247   1      9.3499999999999943      13.089999999999995      44.880000000000003
   248   1      9.3499999999999943      13.089999999999995      48.619999999999997
   249   1      9.3499999999999943      14.959999999999994      39.269999999999989
   250   1      9.3499999999999943      16.829999999999995      37.399999999999991
   251   1      7.4799999999999907      16.829999999999995      43.009999999999991
   252   1      9.3499999999999943      14.959999999999994      43.009999999999991
   253   1      9.3499999999999943      16.829999999999995      41.139999999999993
   254   1      7.4799999999999907      14.959999999999994      44.880000000000003
   255   1      7.4799999999999907      16.829999999999995      46.749999999999993
   256   1      9.3499999999999943      14.959999999999994      46.749999999999993
   257   1      9.3499999999999943      16.829999999999995      44.880000000000003
   258   1      9.3499999999999943      14.959999999999994      50.489999999999988
   259   1      9.3499999999999943      16.829999999999995      48.619999999999997
   260   1      9.3499999999999943      16.829999999999995      52.359999999999999
   261   1      9.3499999999999943      18.699999999999996      35.529999999999994
   262   1      9.3499999999999943      20.569999999999997      33.660000000000004
   263   1      7.4799999999999907      20.569999999999997      39.269999999999989
   264   1      9.3499999999999943      18.699999999999996      39.269999999999989
   265   1      9.3499999999999943      20.569999999999997      37.399999999999991
   266   1      7.4799999999999907      18.699999999999996      41.139999999999993
   267   1      7.4799999999999907      20.569999999999997      43.009999999999991
   268   1      9.3499999999999943      18.699999999999996      43.009999999999991
   269   1      9.3499999999999943      20.569999999999997      41.139999999999993
   270   1      7.4799999999999907      18.699999999999996      44.880000000000003
   271   1      7.4799999999999907      20.569999999999997      46.749999999999993
   272   1      9.3499999999999943      18.699999999999996      46.749999999999993
   273   1      9.3499999999999943      20.569999999999997      44.880000000000003
   274   1      7.4799999999999907      18.699999999999996      48.619999999999997
   275   1      7.4799999999999907      20.569999999999997      50.489999999999988
   276   1      9.3499999999999943      18.699999999999996      50.489999999999988
   277   1      9.3499999999999943      20.569999999999997      48.619999999999997
   278   1      9.3499999999999943      18.699999999999996       54.22999999999999
   279   1      9.3499999999999943      20.569999999999997      52.359999999999999
   280   1      9.3499999999999943      20.569999999999997      56.100000000000001
   281   1      9.3499999999999943      22.439999999999991      31.789999999999996
   282   1      9.3499999999999943      24.309999999999995      29.919999999999998
   283   1      7.4799999999999907      24.309999999999995      35.529999999999994
   284   1      9.3499999999999943      22.439999999999991      35.529999999999994
   285   1      9.3499999999999943      24.309999999999995      33.660000000000004
   286   1      7.4799999999999907      22.439999999999991      37.399999999999991
   287   1      7.4799999999999907      24.309999999999995      39.269999999999989
   288   1      9.3499999999999943      22.439999999999991      39.269999999999989
   289   1      9.3499999999999943      24.309999999999995      37.399999999999991
   290   1      7.4799999999999907      22.439999999999991      41.139999999999993
   291   1      7.4799999999999907      24.309999999999995      43.009999999999991
   292   1      9.3499999999999943      22.439999999999991      43.009999999999991
   293   1      9.3499999999999943      24.309999999999995      41.139999999999993
   294   1      7.4799999999999907      22.439999999999991      44.880000000000003
   295   1      7.4799999999999907      24.309999999999995      46.749999999999993
   296   1      9.3499999999999943      22.439999999999991      46.749999999999993
   297   1      9.3499999999999943      24.309999999999995      44.880000000000003
   298   1      7.4799999999999907      22.439999999999991      48.619999999999997
   299   1      7.4799999999999907      24.309999999999995      50.489999999999988
   300   1      9.3499999999999943      22.439999999999991      50.489999999999988
   301   1      9.3499999999999943      24.309999999999995      48.619999999999997
   302   1      7.4799999999999907      22.439999999999991      52.359999999999999
   303   1      7.4799999999999907      24.309999999999995       54.22999999999999
   304   1      9.3499999999999943      22.439999999999991       54.22999999999999
   305   1      9.3499999999999943      24.309999999999995      52.359999999999999
   306   1      9.3499999999999943      22.439999999999991      57.969999999999992
   307   1      9.3499999999999943      24.309999999999995      56.100000000000001
   308   1      9.3499999999999943      24.309999999999995      59.840000000000003
   309   1      9.3499999999999943      26.179999999999996      28.049999999999997
   310   1      9.3499999999999943      28.049999999999997      26.179999999999996
   311   1      7.4799999999999907      28.049999999999997      31.789999999999996
   312   1      9.3499999999999943      26.179999999999996      31.789999999999996
   313   1      9.3499999999999943      28.049999999999997      29.919999999999998
   314   1      7.4799999999999907      26.179999999999996      33.660000000000004
   315   1      7.4799999999999907      28.049999999999997      35.529999999999994
   316   1      9.3499999999999943      26.179999999999996      35.529999999999994
   317   1      9.3499999999999943      28.049999999999997      33.660000000000004
   318   1      7.4799999999999907      26.179999999999996      37.399999999999991
   319   1      7.4799999999999907      28.049999999999997      39.269999999999989
   320   1      9.3499999999999943      26.179999999999996      39.269999999999989
   321   1      9.3499999999999943      28.049999999999997      37.399999999999991
   322   1      7.4799999999999907      26.179999999999996      41.139999999999993
   323   1      7.4799999999999907      28.049999999999997      43.009999999999991
   324   1      9.3499999999999943      26.179999999999996      43.009999999999991
   325   1      9.3499999999999943      28.049999999999997      41.139999999999993
   326   1      7.4799999999999907      26.179999999999996      44.880000000000003
   327   1      7.4799999999999907      28.049999999999997      46.749999999999993
   328   1      9.3499999999999943      26.179999999999996      46.749999999999993
   329   1      9.3499999999999943      28.049999999999997      44.880000000000003
   330   1      7.4799999999999907      26.179999999999996      48.619999999999997
   331   1      7.4799999999999907      28.049999999999997      50.489999999999988
   332   1      9.3499999999999943      26.179999999999996      50.489999999999988
   333   1      9.3499999999999943      28.049999999999997      48.619999999999997
   334   1      7.4799999999999907      26.179999999999996      52.359999999999999
   335   1      7.4799999999999907      28.049999999999997       54.22999999999999
   336   1      9.3499999999999943      26.179999999999996       54.22999999999999
   337   1      9.3499999999999943      28.049999999999997      52.359999999999999
   338   1      7.4799999999999907      26.179999999999996      56.100000000000001
   339   1      7.4799999999999907      28.049999999999997      57.969999999999992
   340   1      9.3499999999999943      26.179999999999996      57.969999999999992
   341   1      9.3499999999999943      28.049999999999997      56.100000000000001
   342   1      9.3499999999999943      26.179999999999996      61.709999999999994
   343   1      9.3499999999999943      28.049999999999997      59.840000000000003
   344   1      9.3499999999999943      28.049999999999997      63.579999999999998
   345   1      9.3499999999999943      29.919999999999998      24.309999999999995
   346   1      9.3499999999999943      31.789999999999996      22.439999999999991
   347   1      7.4799999999999907      31.789999999999996      28.049999999999997
   348   1      9.3499999999999943      29.919999999999998      28.049999999999997
   349   1      9.3499999999999943      31.789999999999996      26.179999999999996
   350   1      7.4799999999999907      29.919999999999998      29.919999999999998
   351   1      7.4799999999999907      31.789999999999996      31.789999999999996
   352   1      9.3499999999999943      29.919999999999998      31.789999999999996
   353   1      9.3499999999999943      31.789999999999996      29.919999999999998
   354   1      7.4799999999999907      29.919999999999998      33.660000000000004
   355   1      7.4799999999999907      31.789999999999996      35.529999999999994
   356   1      9.3499999999999943      29.919999999999998      35.529999999999994
   357   1      9.3499999999999943      31.789999999999996      33.660000000000004
   358   1      7.4799999999999907      29.919999999999998      37.399999999999991