model_files/PtAu/PtAu_30000/PtAu_310/PtAu_310_fcc_30527_temp.data (written by ASE) 

30527 	 atoms 
2  atom types
0.0                      92  xlo xhi
0.0                      92  ylo yhi
0.0                      92  zlo zhi


Atoms 

     1   1                       0      42.451499999999996      44.472999999999999
     2   1                       0      44.472999999999999      42.451499999999996
     3   1                       0      42.451499999999996      48.515999999999998
     4   1                       0      44.472999999999999      46.494500000000002
     5   1                       0      44.472999999999999      50.537499999999994
     6   1                       0      46.494500000000002      44.472999999999999
     7   1                       0      48.515999999999998      42.451499999999996
     8   1                       0      46.494500000000002      48.515999999999998
     9   1                       0      48.515999999999998      46.494500000000002
    10   1                       0      48.515999999999998      50.537499999999994
    11   1                       0      50.537499999999994      44.472999999999999
    12   1                       0      50.537499999999994      48.515999999999998
    13   1      4.0429999999999993      30.322499999999998      32.344000000000001
    14   1      4.0429999999999993      32.344000000000001      30.322499999999998
    15   1      4.0429999999999993      30.322499999999998                  36.387
    16   1      4.0429999999999993      32.344000000000001      34.365499999999997
    17   1      4.0429999999999993      30.322499999999998                   40.43
    18   1      4.0429999999999993      32.344000000000001      38.408499999999997
    19   1      4.0429999999999993      30.322499999999998      44.472999999999999
    20   1      4.0429999999999993      32.344000000000001      42.451499999999996
    21   1      4.0429999999999993      30.322499999999998      48.515999999999998
    22   1      4.0429999999999993      32.344000000000001      46.494500000000002
    23   1      4.0429999999999993      30.322499999999998      52.559000000000005
    24   1      4.0429999999999993      32.344000000000001      50.537499999999994
    25   1      4.0429999999999993      30.322499999999998      56.602000000000004
    26   1      4.0429999999999993      32.344000000000001      54.580500000000001
    27   1      4.0429999999999993      30.322499999999998      60.644999999999996
    28   1      4.0429999999999993      32.344000000000001                 58.6235
    29   1      4.0429999999999993      32.344000000000001      62.666499999999992
    30   1      4.0429999999999993      34.365499999999997      32.344000000000001
    31   1      4.0429999999999993                  36.387      30.322499999999998
    32   1      2.0214999999999961                  36.387                  36.387
    33   1      4.0429999999999993      34.365499999999997                  36.387
    34   1      4.0429999999999993                  36.387      34.365499999999997
    35   1      2.0214999999999961                  36.387                   40.43
    36   1      4.0429999999999993      34.365499999999997                   40.43
    37   1      4.0429999999999993                  36.387      38.408499999999997
    38   1      2.0214999999999961                  36.387      44.472999999999999
    39   1      4.0429999999999993      34.365499999999997      44.472999999999999
    40   1      4.0429999999999993                  36.387      42.451499999999996
    41   1      2.0214999999999961                  36.387      48.515999999999998
    42   1      4.0429999999999993      34.365499999999997      48.515999999999998
    43   1      4.0429999999999993                  36.387      46.494500000000002
    44   1      2.0214999999999961                  36.387      52.559000000000005
    45   1      4.0429999999999993      34.365499999999997      52.559000000000005
    46   1      4.0429999999999993                  36.387      50.537499999999994
    47   1      2.0214999999999961                  36.387      56.602000000000004
    48   1      4.0429999999999993      34.365499999999997      56.602000000000004
    49   1      4.0429999999999993                  36.387      54.580500000000001
    50   1      4.0429999999999993      34.365499999999997      60.644999999999996
    51   1      4.0429999999999993                  36.387                 58.6235
    52   1      4.0429999999999993                  36.387      62.666499999999992
    53   1      4.0429999999999993      38.408499999999997      32.344000000000001
    54   1      4.0429999999999993                   40.43      30.322499999999998
    55   1      2.0214999999999961                   40.43                  36.387
    56   1      4.0429999999999993      38.408499999999997                  36.387
    57   1      4.0429999999999993                   40.43      34.365499999999997
    58   1      2.0214999999999961      38.408499999999997      38.408499999999997
    59   1      2.0214999999999961                   40.43                   40.43
    60   1      4.0429999999999993      38.408499999999997                   40.43
    61   1      4.0429999999999993                   40.43      38.408499999999997
    62   1      2.0214999999999961      38.408499999999997      42.451499999999996
    63   1      2.0214999999999961                   40.43      44.472999999999999
    64   1      4.0429999999999993      38.408499999999997      44.472999999999999
    65   1      4.0429999999999993                   40.43      42.451499999999996
    66   1      2.0214999999999961      38.408499999999997      46.494500000000002
    67   1      2.0214999999999961                   40.43      48.515999999999998
    68   1      4.0429999999999993      38.408499999999997      48.515999999999998
    69   1      4.0429999999999993                   40.43      46.494500000000002
    70   1      2.0214999999999961      38.408499999999997      50.537499999999994
    71   1      2.0214999999999961                   40.43      52.559000000000005
    72   1      4.0429999999999993      38.408499999999997      52.559000000000005
    73   1      4.0429999999999993                   40.43      50.537499999999994
    74   1      2.0214999999999961      38.408499999999997      54.580500000000001
    75   1      2.0214999999999961                   40.43      56.602000000000004
    76   1      4.0429999999999993      38.408499999999997      56.602000000000004
    77   1      4.0429999999999993                   40.43      54.580500000000001
    78   1      4.0429999999999993      38.408499999999997      60.644999999999996
    79   1      4.0429999999999993                   40.43                 58.6235
    80   1      4.0429999999999993                   40.43      62.666499999999992
    81   1      4.0429999999999993      42.451499999999996      32.344000000000001
    82   1      4.0429999999999993      44.472999999999999      30.322499999999998
    83   1      2.0214999999999961      44.472999999999999                  36.387
    84   1      4.0429999999999993      42.451499999999996                  36.387
    85   1      4.0429999999999993      44.472999999999999      34.365499999999997
    86   1      2.0214999999999961      42.451499999999996      38.408499999999997
    87   1      2.0214999999999961      44.472999999999999                   40.43
    88   1      4.0429999999999993      42.451499999999996                   40.43
    89   1      4.0429999999999993      44.472999999999999      38.408499999999997
    90   1      2.0214999999999961      42.451499999999996      42.451499999999996
    91   1      2.0214999999999961      44.472999999999999      44.472999999999999
    92   1      4.0429999999999993      42.451499999999996      44.472999999999999
    93   1      4.0429999999999993      44.472999999999999      42.451499999999996
    94   1      2.0214999999999961      42.451499999999996      46.494500000000002
    95   1      2.0214999999999961      44.472999999999999      48.515999999999998
    96   1      4.0429999999999993      42.451499999999996      48.515999999999998
    97   1      4.0429999999999993      44.472999999999999      46.494500000000002
    98   1      2.0214999999999961      42.451499999999996      50.537499999999994
    99   1      2.0214999999999961      44.472999999999999      52.559000000000005
   100   1      4.0429999999999993      42.451499999999996      52.559000000000005
   101   1      4.0429999999999993      44.472999999999999      50.537499999999994
   102   1      2.0214999999999961      42.451499999999996      54.580500000000001
   103   1      2.0214999999999961      44.472999999999999      56.602000000000004
   104   1      4.0429999999999993      42.451499999999996      56.602000000000004
   105   1      4.0429999999999993      44.472999999999999      54.580500000000001
   106   1      4.0429999999999993      42.451499999999996      60.644999999999996
   107   1      4.0429999999999993      44.472999999999999                 58.6235
   108   1      4.0429999999999993      44.472999999999999      62.666499999999992
   109   1      4.0429999999999993      46.494500000000002      32.344000000000001
   110   1      4.0429999999999993      48.515999999999998      30.322499999999998
   111   1      2.0214999999999961      48.515999999999998                  36.387
   112   1      4.0429999999999993      46.494500000000002                  36.387
   113   1      4.0429999999999993      48.515999999999998      34.365499999999997
   114   1      2.0214999999999961      46.494500000000002      38.408499999999997
   115   1      2.0214999999999961      48.515999999999998                   40.43
   116   1      4.0429999999999993      46.494500000000002                   40.43
   117   1      4.0429999999999993      48.515999999999998      38.408499999999997
   118   1      2.0214999999999961      46.494500000000002      42.451499999999996
   119   1      2.0214999999999961      48.515999999999998      44.472999999999999
   120   1      4.0429999999999993      46.494500000000002      44.472999999999999
   121   1      4.0429999999999993      48.515999999999998      42.451499999999996
   122   1      2.0214999999999961      46.494500000000002      46.494500000000002
   123   1      2.0214999999999961      48.515999999999998      48.515999999999998
   124   1      4.0429999999999993      46.494500000000002      48.515999999999998
   125   1      4.0429999999999993      48.515999999999998      46.494500000000002
   126   1      2.0214999999999961      46.494500000000002      50.537499999999994
   127   1      2.0214999999999961      48.515999999999998      52.559000000000005
   128   1      4.0429999999999993      46.494500000000002      52.559000000000005
   129   1      4.0429999999999993      48.515999999999998      50.537499999999994
   130   1      2.0214999999999961      46.494500000000002      54.580500000000001
   131   1      2.0214999999999961      48.515999999999998      56.602000000000004
   132   1      4.0429999999999993      46.494500000000002      56.602000000000004
   133   1      4.0429999999999993      48.515999999999998      54.580500000000001
   134   1      4.0429999999999993      46.494500000000002      60.644999999999996
   135   1      4.0429999999999993      48.515999999999998                 58.6235
   136   1      4.0429999999999993      48.515999999999998      62.666499999999992
   137   1      4.0429999999999993      50.537499999999994      32.344000000000001
   138   1      4.0429999999999993      52.559000000000005      30.322499999999998
   139   1      2.0214999999999961      52.559000000000005                  36.387
   140   1      4.0429999999999993      50.537499999999994                  36.387
   141   1      4.0429999999999993      52.559000000000005      34.365499999999997
   142   1      2.0214999999999961      50.537499999999994      38.408499999999997
   143   1      2.0214999999999961      52.559000000000005                   40.43
   144   1      4.0429999999999993      50.537499999999994                   40.43
   145   1      4.0429999999999993      52.559000000000005      38.408499999999997
   146   1      2.0214999999999961      50.537499999999994      42.451499999999996
   147   1      2.0214999999999961      52.559000000000005      44.472999999999999
   148   1      4.0429999999999993      50.537499999999994      44.472999999999999
   149   1      4.0429999999999993      52.559000000000005      42.451499999999996
   150   1      2.0214999999999961      50.537499999999994      46.494500000000002
   151   1      2.0214999999999961      52.559000000000005      48.515999999999998
   152   1      4.0429999999999993      50.537499999999994      48.515999999999998
   153   1      4.0429999999999993      52.559000000000005      46.494500000000002
   154   1      2.0214999999999961      50.537499999999994      50.537499999999994
   155   1      2.0214999999999961      52.559000000000005      52.559000000000005
   156   1      4.0429999999999993      50.537499999999994      52.559000000000005
   157   1      4.0429999999999993      52.559000000000005      50.537499999999994
   158   1      2.0214999999999961      50.537499999999994      54.580500000000001
   159   1      2.0214999999999961      52.559000000000005      56.602000000000004
   160   1      4.0429999999999993      50.537499999999994      56.602000000000004
   161   1      4.0429999999999993      52.559000000000005      54.580500000000001
   162   1      4.0429999999999993      50.537499999999994      60.644999999999996
   163   1      4.0429999999999993      52.559000000000005                 58.6235
   164   1      4.0429999999999993      52.559000000000005      62.666499999999992
   165   1      4.0429999999999993      54.580500000000001      32.344000000000001
   166   1      4.0429999999999993      56.602000000000004      30.322499999999998
   167   1      2.0214999999999961      56.602000000000004                  36.387
   168   1      4.0429999999999993      54.580500000000001                  36.387
   169   1      4.0429999999999993      56.602000000000004      34.365499999999997
   170   1      2.0214999999999961      54.580500000000001      38.408499999999997
   171   1      2.0214999999999961      56.602000000000004                   40.43
   172   1      4.0429999999999993      54.580500000000001                   40.43
   173   1      4.0429999999999993      56.602000000000004      38.408499999999997
   174   1      2.0214999999999961      54.580500000000001      42.451499999999996
   175   1      2.0214999999999961      56.602000000000004      44.472999999999999
   176   1      4.0429999999999993      54.580500000000001      44.472999999999999
   177   1      4.0429999999999993      56.602000000000004      42.451499999999996
   178   1      2.0214999999999961      54.580500000000001      46.494500000000002
   179   1      2.0214999999999961      56.602000000000004      48.515999999999998
   180   1      4.0429999999999993      54.580500000000001      48.515999999999998
   181   1      4.0429999999999993      56.602000000000004      46.494500000000002
   182   1      2.0214999999999961      54.580500000000001      50.537499999999994
   183   1      2.0214999999999961      56.602000000000004      52.559000000000005
   184   1      4.0429999999999993      54.580500000000001      52.559000000000005
   185   1      4.0429999999999993      56.602000000000004      50.537499999999994
   186   1      2.0214999999999961      54.580500000000001      54.580500000000001
   187   1      2.0214999999999961      56.602000000000004      56.602000000000004
   188   1      4.0429999999999993      54.580500000000001      56.602000000000004
   189   1      4.0429999999999993      56.602000000000004      54.580500000000001
   190   1      4.0429999999999993      54.580500000000001      60.644999999999996
   191   1      4.0429999999999993      56.602000000000004                 58.6235
   192   1      4.0429999999999993      56.602000000000004      62.666499999999992
   193   1      4.0429999999999993                 58.6235      32.344000000000001
   194   1      4.0429999999999993      60.644999999999996      30.322499999999998
   195   1      4.0429999999999993                 58.6235                  36.387
   196   1      4.0429999999999993      60.644999999999996      34.365499999999997
   197   1      4.0429999999999993                 58.6235                   40.43
   198   1      4.0429999999999993      60.644999999999996      38.408499999999997
   199   1      4.0429999999999993                 58.6235      44.472999999999999
   200   1      4.0429999999999993      60.644999999999996      42.451499999999996
   201   1      4.0429999999999993                 58.6235      48.515999999999998
   202   1      4.0429999999999993      60.644999999999996      46.494500000000002
   203   1      4.0429999999999993                 58.6235      52.559000000000005
   204   1      4.0429999999999993      60.644999999999996      50.537499999999994
   205   1      4.0429999999999993                 58.6235      56.602000000000004
   206   1      4.0429999999999993      60.644999999999996      54.580500000000001
   207   1      4.0429999999999993                 58.6235      60.644999999999996
   208   1      4.0429999999999993      60.644999999999996                 58.6235
   209   1      4.0429999999999993      60.644999999999996      62.666499999999992
   210   1      4.0429999999999993      62.666499999999992      32.344000000000001
   211   1      4.0429999999999993      62.666499999999992                  36.387
   212   1      4.0429999999999993      62.666499999999992                   40.43
   213   1      4.0429999999999993      62.666499999999992      44.472999999999999
   214   1      4.0429999999999993      62.666499999999992      48.515999999999998
   215   1      4.0429999999999993      62.666499999999992      52.559000000000005
   216   1      4.0429999999999993      62.666499999999992      56.602000000000004
   217   1      4.0429999999999993      62.666499999999992      60.644999999999996
   218   1      8.0859999999999985      18.193499999999997      20.214999999999996
   219   1      8.0859999999999985      20.214999999999996      18.193499999999997
   220   1      8.0859999999999985      18.193499999999997      24.257999999999999
   221   1      8.0859999999999985      20.214999999999996      22.236499999999999
   222   1      8.0859999999999985      18.193499999999997      28.300999999999995
   223   1      8.0859999999999985      20.214999999999996      26.279499999999999
   224   1      8.0859999999999985      18.193499999999997      32.344000000000001
   225   1      8.0859999999999985      20.214999999999996      30.322499999999998
   226   1      8.0859999999999985      18.193499999999997                  36.387
   227   1      8.0859999999999985      20.214999999999996      34.365499999999997
   228   1      8.0859999999999985      18.193499999999997                   40.43
   229   1      8.0859999999999985      20.214999999999996      38.408499999999997
   230   1      8.0859999999999985      18.193499999999997      44.472999999999999
   231   1      8.0859999999999985      20.214999999999996      42.451499999999996
   232   1      8.0859999999999985      18.193499999999997      48.515999999999998
   233   1      8.0859999999999985      20.214999999999996      46.494500000000002
   234   1      8.0859999999999985      18.193499999999997      52.559000000000005
   235   1      8.0859999999999985      20.214999999999996      50.537499999999994
   236   1      8.0859999999999985      18.193499999999997      56.602000000000004
   237   1      8.0859999999999985      20.214999999999996      54.580500000000001
   238   1      8.0859999999999985      18.193499999999997      60.644999999999996
   239   1      8.0859999999999985      20.214999999999996                 58.6235
   240   1      8.0859999999999985      18.193499999999997      64.688000000000002
   241   1      8.0859999999999985      20.214999999999996      62.666499999999992
   242   1      8.0859999999999985      18.193499999999997      68.731000000000009
   243   1      8.0859999999999985      20.214999999999996      66.709500000000006
   244   1      8.0859999999999985      18.193499999999997      72.774000000000001
   245   1      8.0859999999999985      20.214999999999996      70.752499999999998
   246   1      8.0859999999999985      20.214999999999996      74.795500000000004
   247   1      8.0859999999999985      22.236499999999999      20.214999999999996
   248   1      8.0859999999999985      24.257999999999999      18.193499999999997
   249   1      6.0644999999999945      24.257999999999999      24.257999999999999
   250   1      8.0859999999999985      22.236499999999999      24.257999999999999
   251   1      8.0859999999999985      24.257999999999999      22.236499999999999
   252   1      6.0644999999999945      24.257999999999999      28.300999999999995
   253   1      8.0859999999999985      22.236499999999999      28.300999999999995
   254   1      8.0859999999999985      24.257999999999999      26.279499999999999
   255   1      6.0644999999999945      24.257999999999999      32.344000000000001
   256   1      8.0859999999999985      22.236499999999999      32.344000000000001
   257   1      8.0859999999999985      24.257999999999999      30.322499999999998
   258   1      6.0644999999999945      24.257999999999999                  36.387
   259   1      8.0859999999999985      22.236499999999999                  36.387
   260   1      8.0859999999999985      24.257999999999999      34.365499999999997
   261   1      6.0644999999999945      24.257999999999999                   40.43
   262   1      8.0859999999999985      22.236499999999999                   40.43
   263   1      8.0859999999999985      24.257999999999999      38.408499999999997
   264   1      6.0644999999999945      24.257999999999999      44.472999999999999
   265   1      8.0859999999999985      22.236499999999999      44.472999999999999
   266   1      8.0859999999999985      24.257999999999999      42.451499999999996
   267   1      6.0644999999999945      24.257999999999999      48.515999999999998
   268   1      8.0859999999999985      22.236499999999999      48.515999999999998
   269   1      8.0859999999999985      24.257999999999999      46.494500000000002
   270   1      6.0644999999999945      24.257999999999999      52.559000000000005
   271   1      8.0859999999999985      22.236499999999999      52.559000000000005
   272   1      8.0859999999999985      24.257999999999999      50.537499999999994
   273   1      6.0644999999999945      24.257999999999999      56.602000000000004
   274   1      8.0859999999999985      22.236499999999999      56.602000000000004
   275   1      8.0859999999999985      24.257999999999999      54.580500000000001
   276   1      6.0644999999999945      24.257999999999999      60.644999999999996
   277   1      8.0859999999999985      22.236499999999999      60.644999999999996
   278   1      8.0859999999999985      24.257999999999999                 58.6235
   279   1      6.0644999999999945      24.257999999999999      64.688000000000002
   280   1      8.0859999999999985      22.236499999999999      64.688000000000002
   281   1      8.0859999999999985      24.257999999999999      62.666499999999992
   282   1      6.0644999999999945      24.257999999999999      68.731000000000009
   283   1      8.0859999999999985      22.236499999999999      68.731000000000009
   284   1      8.0859999999999985      24.257999999999999      66.709500000000006
   285   1      8.0859999999999985      22.236499999999999      72.774000000000001
   286   1      8.0859999999999985      24.257999999999999      70.752499999999998
   287   1      8.0859999999999985      24.257999999999999      74.795500000000004
   288   1      8.0859999999999985      26.279499999999999      20.214999999999996
   289   1      8.0859999999999985      28.300999999999995      18.193499999999997
   290   1      6.0644999999999945      28.300999999999995      24.257999999999999
   291   1      8.0859999999999985      26.279499999999999      24.257999999999999
   292   1      8.0859999999999985      28.300999999999995      22.236499999999999
   293   1      6.0644999999999945      26.279499999999999      26.279499999999999
   294   1      6.0644999999999945      28.300999999999995      28.300999999999995
   295   1      8.0859999999999985      26.279499999999999      28.300999999999995
   296   1      8.0859999999999985      28.300999999999995      26.279499999999999
   297   1      6.0644999999999945      26.279499999999999      30.322499999999998
   298   1      6.0644999999999945      28.300999999999995      32.344000000000001
   299   1      8.0859999999999985      26.279499999999999      32.344000000000001
   300   1      8.0859999999999985      28.300999999999995      30.322499999999998
   301   1      6.0644999999999945      26.279499999999999      34.365499999999997
   302   1      6.0644999999999945      28.300999999999995                  36.387
   303   1      8.0859999999999985      26.279499999999999                  36.387
   304   1      8.0859999999999985      28.300999999999995      34.365499999999997
   305   1      6.0644999999999945      26.279499999999999      38.408499999999997
   306   1      6.0644999999999945      28.300999999999995                   40.43
   307   1      8.0859999999999985      26.279499999999999                   40.43
   308   1      8.0859999999999985      28.300999999999995      38.408499999999997
   309   1      6.0644999999999945      26.279499999999999      42.451499999999996
   310   1      6.0644999999999945      28.300999999999995      44.472999999999999
   311   1      8.0859999999999985      26.279499999999999      44.472999999999999
   312   1      8.0859999999999985      28.300999999999995      42.451499999999996
   313   1      6.0644999999999945      26.279499999999999      46.494500000000002
   314   1      6.0644999999999945      28.300999999999995      48.515999999999998
   315   1      8.0859999999999985      26.279499999999999      48.515999999999998
   316   1      8.0859999999999985      28.300999999999995      46.494500000000002
   317   1      6.0644999999999945      26.279499999999999      50.537499999999994
   318   1      6.0644999999999945      28.300999999999995      52.559000000000005
   319   1      8.0859999999999985      26.279499999999999      52.559000000000005
   320   1      8.0859999999999985      28.300999999999995      50.537499999999994
   321   1      6.0644999999999945      26.279499999999999      54.580500000000001
   322   1      6.0644999999999945      28.300999999999995      56.602000000000004
   323   1      8.0859999999999985      26.279499999999999      56.602000000000004
   324   1      8.0859999999999985      28.300999999999995      54.580500000000001
   325   1      6.0644999999999945      26.279499999999999                 58.6235
   326   1      6.0644999999999945      28.300999999999995      60.644999999999996
   327   1      8.0859999999999985      26.279499999999999      60.644999999999996
   328   1      8.0859999999999985      28.300999999999995                 58.6235
   329   1      6.0644999999999945      26.279499999999999      62.666499999999992
   330   1      6.0644999999999945      28.300999999999995      64.688000000000002
   331   1      8.0859999999999985      26.279499999999999      64.688000000000002
   332   1      8.0859999999999985      28.300999999999995      62.666499999999992
   333   1      6.0644999999999945      26.279499999999999      66.709500000000006
   334   1      6.0644999999999945      28.300999999999995      68.731000000000009
   335   1      8.0859999999999985      26.279499999999999      68.731000000000009
   336   1      8.0859999999999985      28.300999999999995      66.709500000000006
   337   1      8.0859999999999985      26.279499999999999      72.774000000000001
   338   1      8.0859999999999985      28.300999999999995      70.752499999999998
   339   1      8.0859999999999985      28.300999999999995      74.795500000000004
   340   1      8.0859999999999985      30.322499999999998      20.214999999999996
   341   1      8.0859999999999985      32.344000000000001      18.193499999999997
   342   1      6.0644999999999945      32.344000000000001      24.257999999999999
   343   1      8.0859999999999985      30.322499999999998      24.257999999999999
   344   1      8.0859999999999985      32.344000000000001      22.236499999999999
   345   1      6.0644999999999945      30.322499999999998      26.279499999999999
   346   1      6.0644999999999945      32.344000000000001      28.300999999999995
   347   1      8.0859999999999985      30.322499999999998      28.300999999999995
   348   1      8.0859999999999985      32.344000000000001      26.279499999999999
   349   1      6.0644999999999945      30.322499999999998      30.322499999999998
   350   1      6.0644999999999945      32.344000000000001      32.344000000000001
   351   1      8.0859999999999985      30.322499999999998      32.344000000000001
   352   1      8.0859999999999985      32.344000000000001      30.322499999999998
   353   1      6.0644999999999945      30.322499999999998      34.365499999999997
   354   1      6.0644999999999945      32.344000000000001                  36.387
   355   1      8.0859999999999985      30.322499999999998                  36.387
   356   1      8.0859999999999985      32.344000000000001      34.365499999999997
   357   1      6.0644999999999945      30.322499999999998      38.408499999999997
   358   1      6.0644999999999945      32.344000000000001                   40.43