model_files/Fe/Fe_30000/Fe_432/data.Fe_432_bcc_29911 (written by ASE) 

29911 	 atoms 
1  atom types
0.0                      86  xlo xhi
0.0                      86  ylo yhi
0.0                      86  zlo zhi


Atoms 

     1   1      1.4349999999999952      41.614999999999995       43.04999999999999
     2   1      1.4349999999999952       43.04999999999999      41.614999999999995
     3   1      85.999999999999986       43.04999999999999       43.04999999999999
     4   1      1.4349999999999952       43.04999999999999      44.484999999999992
     5   1      1.4349999999999952      44.484999999999992       43.04999999999999
     6   1      4.3049999999999926      35.874999999999993       43.04999999999999
     7   1      2.8699999999999974       38.74499999999999      41.614999999999995
     8   1      4.3049999999999926      37.309999999999988      41.614999999999995
     9   1      4.3049999999999926       38.74499999999999      40.179999999999993
    10   1      2.8699999999999974       38.74499999999999      44.484999999999992
    11   1      4.3049999999999926      37.309999999999988      44.484999999999992
    12   1      4.3049999999999926       38.74499999999999       43.04999999999999
    13   1      4.3049999999999926       38.74499999999999      45.919999999999987
    14   1      2.8699999999999974      41.614999999999995       38.74499999999999
    15   1      4.3049999999999926      40.179999999999993       38.74499999999999
    16   1      4.3049999999999926      41.614999999999995      37.309999999999988
    17   1      2.8699999999999974      40.179999999999993      40.179999999999993
    18   1      2.8699999999999974      41.614999999999995      41.614999999999995
    19   1      4.3049999999999926      40.179999999999993      41.614999999999995
    20   1      4.3049999999999926      41.614999999999995      40.179999999999993
    21   1      2.8699999999999974      40.179999999999993       43.04999999999999
    22   1      2.8699999999999974      41.614999999999995      44.484999999999992
    23   1      4.3049999999999926      40.179999999999993      44.484999999999992
    24   1      4.3049999999999926      41.614999999999995       43.04999999999999
    25   1      2.8699999999999974      40.179999999999993      45.919999999999987
    26   1      2.8699999999999974      41.614999999999995      47.354999999999983
    27   1      4.3049999999999926      40.179999999999993      47.354999999999983
    28   1      4.3049999999999926      41.614999999999995      45.919999999999987
    29   1      4.3049999999999926      41.614999999999995      48.789999999999992
    30   1      4.3049999999999926       43.04999999999999      35.874999999999993
    31   1      2.8699999999999974      44.484999999999992       38.74499999999999
    32   1      4.3049999999999926       43.04999999999999       38.74499999999999
    33   1      4.3049999999999926      44.484999999999992      37.309999999999988
    34   1      2.8699999999999974       43.04999999999999      40.179999999999993
    35   1      2.8699999999999974      44.484999999999992      41.614999999999995
    36   1      4.3049999999999926       43.04999999999999      41.614999999999995
    37   1      4.3049999999999926      44.484999999999992      40.179999999999993
    38   1      2.8699999999999974       43.04999999999999       43.04999999999999
    39   1      2.8699999999999974      44.484999999999992      44.484999999999992
    40   1      4.3049999999999926       43.04999999999999      44.484999999999992
    41   1      4.3049999999999926      44.484999999999992       43.04999999999999
    42   1      2.8699999999999974       43.04999999999999      45.919999999999987
    43   1      2.8699999999999974      44.484999999999992      47.354999999999983
    44   1      4.3049999999999926       43.04999999999999      47.354999999999983
    45   1      4.3049999999999926      44.484999999999992      45.919999999999987
    46   1      4.3049999999999926       43.04999999999999      50.224999999999994
    47   1      4.3049999999999926      44.484999999999992      48.789999999999992
    48   1      4.3049999999999926      45.919999999999987       38.74499999999999
    49   1      2.8699999999999974      45.919999999999987      40.179999999999993
    50   1      2.8699999999999974      47.354999999999983      41.614999999999995
    51   1      4.3049999999999926      45.919999999999987      41.614999999999995
    52   1      4.3049999999999926      47.354999999999983      40.179999999999993
    53   1      2.8699999999999974      45.919999999999987       43.04999999999999
    54   1      2.8699999999999974      47.354999999999983      44.484999999999992
    55   1      4.3049999999999926      45.919999999999987      44.484999999999992
    56   1      4.3049999999999926      47.354999999999983       43.04999999999999
    57   1      2.8699999999999974      45.919999999999987      45.919999999999987
    58   1      4.3049999999999926      45.919999999999987      47.354999999999983
    59   1      4.3049999999999926      47.354999999999983      45.919999999999987
    60   1      4.3049999999999926      48.789999999999992      41.614999999999995
    61   1      4.3049999999999926      48.789999999999992      44.484999999999992
    62   1      4.3049999999999926      50.224999999999994       43.04999999999999
    63   1      7.1749999999999972      33.004999999999995       43.04999999999999
    64   1      7.1749999999999972      35.874999999999993      37.309999999999988
    65   1      5.7399999999999949      35.874999999999993      41.614999999999995
    66   1      7.1749999999999972      34.439999999999991      41.614999999999995
    67   1      7.1749999999999972      35.874999999999993      40.179999999999993
    68   1      5.7399999999999949      34.439999999999991       43.04999999999999
    69   1      5.7399999999999949      35.874999999999993      44.484999999999992
    70   1      7.1749999999999972      34.439999999999991      44.484999999999992
    71   1      7.1749999999999972      35.874999999999993       43.04999999999999
    72   1      7.1749999999999972      35.874999999999993      45.919999999999987
    73   1      7.1749999999999972      35.874999999999993      48.789999999999992
    74   1      7.1749999999999972      37.309999999999988      35.874999999999993
    75   1      5.7399999999999949       38.74499999999999       38.74499999999999
    76   1      7.1749999999999972      37.309999999999988       38.74499999999999
    77   1      7.1749999999999972       38.74499999999999      37.309999999999988
    78   1      5.7399999999999949      37.309999999999988      40.179999999999993
    79   1      5.7399999999999949       38.74499999999999      41.614999999999995
    80   1      7.1749999999999972      37.309999999999988      41.614999999999995
    81   1      7.1749999999999972       38.74499999999999      40.179999999999993
    82   1      5.7399999999999949      37.309999999999988       43.04999999999999
    83   1      5.7399999999999949       38.74499999999999      44.484999999999992
    84   1      7.1749999999999972      37.309999999999988      44.484999999999992
    85   1      7.1749999999999972       38.74499999999999       43.04999999999999
    86   1      5.7399999999999949      37.309999999999988      45.919999999999987
    87   1      5.7399999999999949       38.74499999999999      47.354999999999983
    88   1      7.1749999999999972      37.309999999999988      47.354999999999983
    89   1      7.1749999999999972       38.74499999999999      45.919999999999987
    90   1      7.1749999999999972      37.309999999999988      50.224999999999994
    91   1      7.1749999999999972       38.74499999999999      48.789999999999992
    92   1      5.7399999999999949      41.614999999999995      35.874999999999993
    93   1      7.1749999999999972      40.179999999999993      35.874999999999993
    94   1      7.1749999999999972      41.614999999999995      34.439999999999991
    95   1      5.7399999999999949      40.179999999999993      37.309999999999988
    96   1      5.7399999999999949      41.614999999999995       38.74499999999999
    97   1      7.1749999999999972      40.179999999999993       38.74499999999999
    98   1      7.1749999999999972      41.614999999999995      37.309999999999988
    99   1      5.7399999999999949      40.179999999999993      40.179999999999993
   100   1      5.7399999999999949      41.614999999999995      41.614999999999995
   101   1      7.1749999999999972      40.179999999999993      41.614999999999995
   102   1      7.1749999999999972      41.614999999999995      40.179999999999993
   103   1      5.7399999999999949      40.179999999999993       43.04999999999999
   104   1      5.7399999999999949      41.614999999999995      44.484999999999992
   105   1      7.1749999999999972      40.179999999999993      44.484999999999992
   106   1      7.1749999999999972      41.614999999999995       43.04999999999999
   107   1      5.7399999999999949      40.179999999999993      45.919999999999987
   108   1      5.7399999999999949      41.614999999999995      47.354999999999983
   109   1      7.1749999999999972      40.179999999999993      47.354999999999983
   110   1      7.1749999999999972      41.614999999999995      45.919999999999987
   111   1      5.7399999999999949      40.179999999999993      48.789999999999992
   112   1      5.7399999999999949      41.614999999999995      50.224999999999994
   113   1      7.1749999999999972      40.179999999999993      50.224999999999994
   114   1      7.1749999999999972      41.614999999999995      48.789999999999992
   115   1      7.1749999999999972      41.614999999999995      51.659999999999989
   116   1      7.1749999999999972       43.04999999999999      33.004999999999995
   117   1      5.7399999999999949       43.04999999999999      34.439999999999991
   118   1      5.7399999999999949      44.484999999999992      35.874999999999993
   119   1      7.1749999999999972       43.04999999999999      35.874999999999993
   120   1      7.1749999999999972      44.484999999999992      34.439999999999991
   121   1      5.7399999999999949       43.04999999999999      37.309999999999988
   122   1      5.7399999999999949      44.484999999999992       38.74499999999999
   123   1      7.1749999999999972       43.04999999999999       38.74499999999999
   124   1      7.1749999999999972      44.484999999999992      37.309999999999988
   125   1      5.7399999999999949       43.04999999999999      40.179999999999993
   126   1      5.7399999999999949      44.484999999999992      41.614999999999995
   127   1      7.1749999999999972       43.04999999999999      41.614999999999995
   128   1      7.1749999999999972      44.484999999999992      40.179999999999993
   129   1      5.7399999999999949       43.04999999999999       43.04999999999999
   130   1      5.7399999999999949      44.484999999999992      44.484999999999992
   131   1      7.1749999999999972       43.04999999999999      44.484999999999992
   132   1      7.1749999999999972      44.484999999999992       43.04999999999999
   133   1      5.7399999999999949       43.04999999999999      45.919999999999987
   134   1      5.7399999999999949      44.484999999999992      47.354999999999983
   135   1      7.1749999999999972       43.04999999999999      47.354999999999983
   136   1      7.1749999999999972      44.484999999999992      45.919999999999987
   137   1      5.7399999999999949       43.04999999999999      48.789999999999992
   138   1      5.7399999999999949      44.484999999999992      50.224999999999994
   139   1      7.1749999999999972       43.04999999999999      50.224999999999994
   140   1      7.1749999999999972      44.484999999999992      48.789999999999992
   141   1      5.7399999999999949       43.04999999999999      51.659999999999989
   142   1      7.1749999999999972       43.04999999999999      53.094999999999985
   143   1      7.1749999999999972      44.484999999999992      51.659999999999989
   144   1      7.1749999999999972      45.919999999999987      35.874999999999993
   145   1      5.7399999999999949      45.919999999999987      37.309999999999988
   146   1      5.7399999999999949      47.354999999999983       38.74499999999999
   147   1      7.1749999999999972      45.919999999999987       38.74499999999999
   148   1      7.1749999999999972      47.354999999999983      37.309999999999988
   149   1      5.7399999999999949      45.919999999999987      40.179999999999993
   150   1      5.7399999999999949      47.354999999999983      41.614999999999995
   151   1      7.1749999999999972      45.919999999999987      41.614999999999995
   152   1      7.1749999999999972      47.354999999999983      40.179999999999993
   153   1      5.7399999999999949      45.919999999999987       43.04999999999999
   154   1      5.7399999999999949      47.354999999999983      44.484999999999992
   155   1      7.1749999999999972      45.919999999999987      44.484999999999992
   156   1      7.1749999999999972      47.354999999999983       43.04999999999999
   157   1      5.7399999999999949      45.919999999999987      45.919999999999987
   158   1      5.7399999999999949      47.354999999999983      47.354999999999983
   159   1      7.1749999999999972      45.919999999999987      47.354999999999983
   160   1      7.1749999999999972      47.354999999999983      45.919999999999987
   161   1      5.7399999999999949      45.919999999999987      48.789999999999992
   162   1      7.1749999999999972      45.919999999999987      50.224999999999994
   163   1      7.1749999999999972      47.354999999999983      48.789999999999992
   164   1      7.1749999999999972      48.789999999999992      35.874999999999993
   165   1      7.1749999999999972      48.789999999999992       38.74499999999999
   166   1      7.1749999999999972      50.224999999999994      37.309999999999988
   167   1      5.7399999999999949      48.789999999999992      40.179999999999993
   168   1      5.7399999999999949      50.224999999999994      41.614999999999995
   169   1      7.1749999999999972      48.789999999999992      41.614999999999995
   170   1      7.1749999999999972      50.224999999999994      40.179999999999993
   171   1      5.7399999999999949      48.789999999999992       43.04999999999999
   172   1      5.7399999999999949      50.224999999999994      44.484999999999992
   173   1      7.1749999999999972      48.789999999999992      44.484999999999992
   174   1      7.1749999999999972      50.224999999999994       43.04999999999999
   175   1      5.7399999999999949      48.789999999999992      45.919999999999987
   176   1      7.1749999999999972      48.789999999999992      47.354999999999983
   177   1      7.1749999999999972      50.224999999999994      45.919999999999987
   178   1      7.1749999999999972      48.789999999999992      50.224999999999994
   179   1      7.1749999999999972      50.224999999999994      48.789999999999992
   180   1      7.1749999999999972      51.659999999999989      41.614999999999995
   181   1      5.7399999999999949      51.659999999999989       43.04999999999999
   182   1      7.1749999999999972      51.659999999999989      44.484999999999992
   183   1      7.1749999999999972      53.094999999999985       43.04999999999999
   184   1      10.044999999999995      30.134999999999987      40.179999999999993
   185   1      10.044999999999995      30.134999999999987       43.04999999999999
   186   1      10.044999999999995      30.134999999999987      45.919999999999987
   187   1      8.6099999999999923      33.004999999999995       38.74499999999999
   188   1      10.044999999999995      31.569999999999993       38.74499999999999
   189   1      10.044999999999995      33.004999999999995      37.309999999999988
   190   1      8.6099999999999923      33.004999999999995      41.614999999999995
   191   1      10.044999999999995      31.569999999999993      41.614999999999995
   192   1      10.044999999999995      33.004999999999995      40.179999999999993
   193   1      8.6099999999999923      31.569999999999993       43.04999999999999
   194   1      8.6099999999999923      33.004999999999995      44.484999999999992
   195   1      10.044999999999995      31.569999999999993      44.484999999999992
   196   1      10.044999999999995      33.004999999999995       43.04999999999999
   197   1      8.6099999999999923      33.004999999999995      47.354999999999983
   198   1      10.044999999999995      31.569999999999993      47.354999999999983
   199   1      10.044999999999995      33.004999999999995      45.919999999999987
   200   1      10.044999999999995      33.004999999999995      48.789999999999992
   201   1      8.6099999999999923      35.874999999999993      35.874999999999993
   202   1      10.044999999999995      34.439999999999991      35.874999999999993
   203   1      10.044999999999995      35.874999999999993      34.439999999999991
   204   1      8.6099999999999923      34.439999999999991      37.309999999999988
   205   1      8.6099999999999923      35.874999999999993       38.74499999999999
   206   1      10.044999999999995      34.439999999999991       38.74499999999999
   207   1      10.044999999999995      35.874999999999993      37.309999999999988
   208   1      8.6099999999999923      34.439999999999991      40.179999999999993
   209   1      8.6099999999999923      35.874999999999993      41.614999999999995
   210   1      10.044999999999995      34.439999999999991      41.614999999999995
   211   1      10.044999999999995      35.874999999999993      40.179999999999993
   212   1      8.6099999999999923      34.439999999999991       43.04999999999999
   213   1      8.6099999999999923      35.874999999999993      44.484999999999992
   214   1      10.044999999999995      34.439999999999991      44.484999999999992
   215   1      10.044999999999995      35.874999999999993       43.04999999999999
   216   1      8.6099999999999923      34.439999999999991      45.919999999999987
   217   1      8.6099999999999923      35.874999999999993      47.354999999999983
   218   1      10.044999999999995      34.439999999999991      47.354999999999983
   219   1      10.044999999999995      35.874999999999993      45.919999999999987
   220   1      8.6099999999999923      34.439999999999991      48.789999999999992
   221   1      8.6099999999999923      35.874999999999993      50.224999999999994
   222   1      10.044999999999995      34.439999999999991      50.224999999999994
   223   1      10.044999999999995      35.874999999999993      48.789999999999992
   224   1      10.044999999999995      35.874999999999993      51.659999999999989
   225   1      8.6099999999999923       38.74499999999999      33.004999999999995
   226   1      10.044999999999995      37.309999999999988      33.004999999999995
   227   1      10.044999999999995       38.74499999999999      31.569999999999993
   228   1      8.6099999999999923      37.309999999999988      34.439999999999991
   229   1      8.6099999999999923       38.74499999999999      35.874999999999993
   230   1      10.044999999999995      37.309999999999988      35.874999999999993
   231   1      10.044999999999995       38.74499999999999      34.439999999999991
   232   1      8.6099999999999923      37.309999999999988      37.309999999999988
   233   1      8.6099999999999923       38.74499999999999       38.74499999999999
   234   1      10.044999999999995      37.309999999999988       38.74499999999999
   235   1      10.044999999999995       38.74499999999999      37.309999999999988
   236   1      8.6099999999999923      37.309999999999988      40.179999999999993
   237   1      8.6099999999999923       38.74499999999999      41.614999999999995
   238   1      10.044999999999995      37.309999999999988      41.614999999999995
   239   1      10.044999999999995       38.74499999999999      40.179999999999993
   240   1      8.6099999999999923      37.309999999999988       43.04999999999999
   241   1      8.6099999999999923       38.74499999999999      44.484999999999992
   242   1      10.044999999999995      37.309999999999988      44.484999999999992
   243   1      10.044999999999995       38.74499999999999       43.04999999999999
   244   1      8.6099999999999923      37.309999999999988      45.919999999999987
   245   1      8.6099999999999923       38.74499999999999      47.354999999999983
   246   1      10.044999999999995      37.309999999999988      47.354999999999983
   247   1      10.044999999999995       38.74499999999999      45.919999999999987
   248   1      8.6099999999999923      37.309999999999988      48.789999999999992
   249   1      8.6099999999999923       38.74499999999999      50.224999999999994
   250   1      10.044999999999995      37.309999999999988      50.224999999999994
   251   1      10.044999999999995       38.74499999999999      48.789999999999992
   252   1      8.6099999999999923      37.309999999999988      51.659999999999989
   253   1      8.6099999999999923       38.74499999999999      53.094999999999985
   254   1      10.044999999999995      37.309999999999988      53.094999999999985
   255   1      10.044999999999995       38.74499999999999      51.659999999999989
   256   1      10.044999999999995       38.74499999999999      54.529999999999987
   257   1      10.044999999999995      40.179999999999993      30.134999999999987
   258   1      8.6099999999999923      41.614999999999995      33.004999999999995
   259   1      10.044999999999995      40.179999999999993      33.004999999999995
   260   1      10.044999999999995      41.614999999999995      31.569999999999993
   261   1      8.6099999999999923      40.179999999999993      34.439999999999991
   262   1      8.6099999999999923      41.614999999999995      35.874999999999993
   263   1      10.044999999999995      40.179999999999993      35.874999999999993
   264   1      10.044999999999995      41.614999999999995      34.439999999999991
   265   1      8.6099999999999923      40.179999999999993      37.309999999999988
   266   1      8.6099999999999923      41.614999999999995       38.74499999999999
   267   1      10.044999999999995      40.179999999999993       38.74499999999999
   268   1      10.044999999999995      41.614999999999995      37.309999999999988
   269   1      8.6099999999999923      40.179999999999993      40.179999999999993
   270   1      8.6099999999999923      41.614999999999995      41.614999999999995
   271   1      10.044999999999995      40.179999999999993      41.614999999999995
   272   1      10.044999999999995      41.614999999999995      40.179999999999993
   273   1      8.6099999999999923      40.179999999999993       43.04999999999999
   274   1      8.6099999999999923      41.614999999999995      44.484999999999992
   275   1      10.044999999999995      40.179999999999993      44.484999999999992
   276   1      10.044999999999995      41.614999999999995       43.04999999999999
   277   1      8.6099999999999923      40.179999999999993      45.919999999999987
   278   1      8.6099999999999923      41.614999999999995      47.354999999999983
   279   1      10.044999999999995      40.179999999999993      47.354999999999983
   280   1      10.044999999999995      41.614999999999995      45.919999999999987
   281   1      8.6099999999999923      40.179999999999993      48.789999999999992
   282   1      8.6099999999999923      41.614999999999995      50.224999999999994
   283   1      10.044999999999995      40.179999999999993      50.224999999999994
   284   1      10.044999999999995      41.614999999999995      48.789999999999992
   285   1      8.6099999999999923      40.179999999999993      51.659999999999989
   286   1      8.6099999999999923      41.614999999999995      53.094999999999985
   287   1      10.044999999999995      40.179999999999993      53.094999999999985
   288   1      10.044999999999995      41.614999999999995      51.659999999999989
   289   1      10.044999999999995      40.179999999999993      55.964999999999989
   290   1      10.044999999999995      41.614999999999995      54.529999999999987
   291   1      10.044999999999995       43.04999999999999      30.134999999999987
   292   1      8.6099999999999923       43.04999999999999      31.569999999999993
   293   1      8.6099999999999923      44.484999999999992      33.004999999999995
   294   1      10.044999999999995       43.04999999999999      33.004999999999995
   295   1      10.044999999999995      44.484999999999992      31.569999999999993
   296   1      8.6099999999999923       43.04999999999999      34.439999999999991
   297   1      8.6099999999999923      44.484999999999992      35.874999999999993
   298   1      10.044999999999995       43.04999999999999      35.874999999999993
   299   1      10.044999999999995      44.484999999999992      34.439999999999991
   300   1      8.6099999999999923       43.04999999999999      37.309999999999988
   301   1      8.6099999999999923      44.484999999999992       38.74499999999999
   302   1      10.044999999999995       43.04999999999999       38.74499999999999
   303   1      10.044999999999995      44.484999999999992      37.309999999999988
   304   1      8.6099999999999923       43.04999999999999      40.179999999999993
   305   1      8.6099999999999923      44.484999999999992      41.614999999999995
   306   1      10.044999999999995       43.04999999999999      41.614999999999995
   307   1      10.044999999999995      44.484999999999992      40.179999999999993
   308   1      8.6099999999999923       43.04999999999999       43.04999999999999
   309   1      8.6099999999999923      44.484999999999992      44.484999999999992
   310   1      10.044999999999995       43.04999999999999      44.484999999999992
   311   1      10.044999999999995      44.484999999999992       43.04999999999999
   312   1      8.6099999999999923       43.04999999999999      45.919999999999987
   313   1      8.6099999999999923      44.484999999999992      47.354999999999983
   314   1      10.044999999999995       43.04999999999999      47.354999999999983
   315   1      10.044999999999995      44.484999999999992      45.919999999999987
   316   1      8.6099999999999923       43.04999999999999      48.789999999999992
   317   1      8.6099999999999923      44.484999999999992      50.224999999999994
   318   1      10.044999999999995       43.04999999999999      50.224999999999994
   319   1      10.044999999999995      44.484999999999992      48.789999999999992
   320   1      8.6099999999999923       43.04999999999999      51.659999999999989
   321   1      8.6099999999999923      44.484999999999992      53.094999999999985
   322   1      10.044999999999995       43.04999999999999      53.094999999999985
   323   1      10.044999999999995      44.484999999999992      51.659999999999989
   324   1      8.6099999999999923       43.04999999999999      54.529999999999987
   325   1      10.044999999999995       43.04999999999999      55.964999999999989
   326   1      10.044999999999995      44.484999999999992      54.529999999999987
   327   1      10.044999999999995      45.919999999999987      30.134999999999987
   328   1      8.6099999999999923      47.354999999999983      33.004999999999995
   329   1      10.044999999999995      45.919999999999987      33.004999999999995
   330   1      10.044999999999995      47.354999999999983      31.569999999999993
   331   1      8.6099999999999923      45.919999999999987      34.439999999999991
   332   1      8.6099999999999923      47.354999999999983      35.874999999999993
   333   1      10.044999999999995      45.919999999999987      35.874999999999993
   334   1      10.044999999999995      47.354999999999983      34.439999999999991
   335   1      8.6099999999999923      45.919999999999987      37.309999999999988
   336   1      8.6099999999999923      47.354999999999983       38.74499999999999
   337   1      10.044999999999995      45.919999999999987       38.74499999999999
   338   1      10.044999999999995      47.354999999999983      37.309999999999988
   339   1      8.6099999999999923      45.919999999999987      40.179999999999993
   340   1      8.6099999999999923      47.354999999999983      41.614999999999995
   341   1      10.044999999999995      45.919999999999987      41.614999999999995
   342   1      10.044999999999995      47.354999999999983      40.179999999999993
   343   1      8.6099999999999923      45.919999999999987       43.04999999999999
   344   1      8.6099999999999923      47.354999999999983      44.484999999999992
   345   1      10.044999999999995      45.919999999999987      44.484999999999992
   346   1      10.044999999999995      47.354999999999983       43.04999999999999
   347   1      8.6099999999999923      45.919999999999987      45.919999999999987
   348   1      8.6099999999999923      47.354999999999983      47.354999999999983
   349   1      10.044999999999995      45.919999999999987      47.354999999999983
   350   1      10.044999999999995      47.354999999999983      45.919999999999987
   351   1      8.6099999999999923      45.919999999999987      48.789999999999992
   352   1      8.6099999999999923      47.354999999999983      50.224999999999994
   353   1      10.044999999999995      45.919999999999987      50.224999999999994
   354   1      10.044999999999995      47.354999999999983      48.789999999999992
   355   1      8.6099999999999923      45.919999999999987      51.659999999999989
   356   1      8.6099999999999923      47.354999999999983      53.094999999999985
   357   1      10.044999999999995      45.919999999999987      53.094999999999985
   358   1      10.044999999999995      47.354999999999983      51.659999999999989