model_files/Au/Au_30000/Au_541/data.Au_541_fcc_30387 (written by ASE) 

30387 	 atoms 
1  atom types
0.0                     122  xlo xhi
0.0                     122  ylo yhi
0.0                     122  zlo zhi


Atoms 

     1   1      2.0399999999999991      59.160000000000004       61.20000000000001
     2   1      2.0399999999999991       61.20000000000001      59.160000000000004
     3   1                       0       61.20000000000001       61.20000000000001
     4   1      2.0399999999999991       61.20000000000001      63.240000000000002
     5   1      2.0399999999999991      63.240000000000002       61.20000000000001
     6   1      6.1199999999999974      55.080000000000005      57.120000000000012
     7   1      6.1199999999999974      55.080000000000005       61.20000000000001
     8   1      6.1199999999999974      55.080000000000005      65.280000000000001
     9   1      6.1199999999999974      57.120000000000012      55.080000000000005
    10   1      4.0799999999999983      57.120000000000012      57.120000000000012
    11   1      4.0799999999999983      59.160000000000004      59.160000000000004
    12   1      6.1199999999999974      57.120000000000012      59.160000000000004
    13   1      6.1199999999999974      59.160000000000004      57.120000000000012
    14   1      4.0799999999999983      57.120000000000012       61.20000000000001
    15   1      4.0799999999999983      59.160000000000004      63.240000000000002
    16   1      6.1199999999999974      57.120000000000012      63.240000000000002
    17   1      6.1199999999999974      59.160000000000004       61.20000000000001
    18   1      4.0799999999999983      57.120000000000012      65.280000000000001
    19   1      6.1199999999999974      57.120000000000012      67.320000000000007
    20   1      6.1199999999999974      59.160000000000004      65.280000000000001
    21   1      6.1199999999999974       61.20000000000001      55.080000000000005
    22   1      4.0799999999999983       61.20000000000001      57.120000000000012
    23   1      4.0799999999999983      63.240000000000002      59.160000000000004
    24   1      6.1199999999999974       61.20000000000001      59.160000000000004
    25   1      6.1199999999999974      63.240000000000002      57.120000000000012
    26   1      4.0799999999999983       61.20000000000001       61.20000000000001
    27   1      4.0799999999999983      63.240000000000002      63.240000000000002
    28   1      6.1199999999999974       61.20000000000001      63.240000000000002
    29   1      6.1199999999999974      63.240000000000002       61.20000000000001
    30   1      4.0799999999999983       61.20000000000001      65.280000000000001
    31   1      6.1199999999999974       61.20000000000001      67.320000000000007
    32   1      6.1199999999999974      63.240000000000002      65.280000000000001
    33   1      6.1199999999999974      65.280000000000001      55.080000000000005
    34   1      4.0799999999999983      65.280000000000001      57.120000000000012
    35   1      6.1199999999999974      65.280000000000001      59.160000000000004
    36   1      6.1199999999999974      67.320000000000007      57.120000000000012
    37   1      4.0799999999999983      65.280000000000001       61.20000000000001
    38   1      6.1199999999999974      65.280000000000001      63.240000000000002
    39   1      6.1199999999999974      67.320000000000007       61.20000000000001
    40   1      4.0799999999999983      65.280000000000001      65.280000000000001
    41   1      6.1199999999999974      65.280000000000001      67.320000000000007
    42   1      6.1199999999999974      67.320000000000007      65.280000000000001
    43   1      10.200000000000003                      51      53.040000000000006
    44   1      10.200000000000003      48.960000000000001      59.160000000000004
    45   1      10.200000000000003                      51      57.120000000000012
    46   1      10.200000000000003      48.960000000000001      63.240000000000002
    47   1      10.200000000000003                      51       61.20000000000001
    48   1      10.200000000000003                      51      65.280000000000001
    49   1      10.200000000000003                      51      69.359999999999999
    50   1      10.200000000000003      53.040000000000006                      51
    51   1      8.1599999999999966      53.040000000000006      53.040000000000006
    52   1      8.1599999999999966      55.080000000000005      55.080000000000005
    53   1      10.200000000000003      53.040000000000006      55.080000000000005
    54   1      10.200000000000003      55.080000000000005      53.040000000000006
    55   1      8.1599999999999966      53.040000000000006      57.120000000000012
    56   1      8.1599999999999966      55.080000000000005      59.160000000000004
    57   1      10.200000000000003      53.040000000000006      59.160000000000004
    58   1      10.200000000000003      55.080000000000005      57.120000000000012
    59   1      8.1599999999999966      53.040000000000006       61.20000000000001
    60   1      8.1599999999999966      55.080000000000005      63.240000000000002
    61   1      10.200000000000003      53.040000000000006      63.240000000000002
    62   1      10.200000000000003      55.080000000000005       61.20000000000001
    63   1      8.1599999999999966      53.040000000000006      65.280000000000001
    64   1      8.1599999999999966      55.080000000000005      67.320000000000007
    65   1      10.200000000000003      53.040000000000006      67.320000000000007
    66   1      10.200000000000003      55.080000000000005      65.280000000000001
    67   1      8.1599999999999966      53.040000000000006      69.359999999999999
    68   1      10.200000000000003      53.040000000000006      71.400000000000006
    69   1      10.200000000000003      55.080000000000005      69.359999999999999
    70   1      10.200000000000003      57.120000000000012                      51
    71   1      10.200000000000003      59.160000000000004      48.960000000000001
    72   1      8.1599999999999966      57.120000000000012      53.040000000000006
    73   1      8.1599999999999966      59.160000000000004      55.080000000000005
    74   1      10.200000000000003      57.120000000000012      55.080000000000005
    75   1      10.200000000000003      59.160000000000004      53.040000000000006
    76   1      8.1599999999999966      57.120000000000012      57.120000000000012
    77   1      8.1599999999999966      59.160000000000004      59.160000000000004
    78   1      10.200000000000003      57.120000000000012      59.160000000000004
    79   1      10.200000000000003      59.160000000000004      57.120000000000012
    80   1      8.1599999999999966      57.120000000000012       61.20000000000001
    81   1      8.1599999999999966      59.160000000000004      63.240000000000002
    82   1      10.200000000000003      57.120000000000012      63.240000000000002
    83   1      10.200000000000003      59.160000000000004       61.20000000000001
    84   1      8.1599999999999966      57.120000000000012      65.280000000000001
    85   1      8.1599999999999966      59.160000000000004      67.320000000000007
    86   1      10.200000000000003      57.120000000000012      67.320000000000007
    87   1      10.200000000000003      59.160000000000004      65.280000000000001
    88   1      8.1599999999999966      57.120000000000012      69.359999999999999
    89   1      10.200000000000003      57.120000000000012      71.400000000000006
    90   1      10.200000000000003      59.160000000000004      69.359999999999999
    91   1      10.200000000000003      59.160000000000004      73.439999999999998
    92   1      10.200000000000003       61.20000000000001                      51
    93   1      10.200000000000003      63.240000000000002      48.960000000000001
    94   1      8.1599999999999966       61.20000000000001      53.040000000000006
    95   1      8.1599999999999966      63.240000000000002      55.080000000000005
    96   1      10.200000000000003       61.20000000000001      55.080000000000005
    97   1      10.200000000000003      63.240000000000002      53.040000000000006
    98   1      8.1599999999999966       61.20000000000001      57.120000000000012
    99   1      8.1599999999999966      63.240000000000002      59.160000000000004
   100   1      10.200000000000003       61.20000000000001      59.160000000000004
   101   1      10.200000000000003      63.240000000000002      57.120000000000012
   102   1      8.1599999999999966       61.20000000000001       61.20000000000001
   103   1      8.1599999999999966      63.240000000000002      63.240000000000002
   104   1      10.200000000000003       61.20000000000001      63.240000000000002
   105   1      10.200000000000003      63.240000000000002       61.20000000000001
   106   1      8.1599999999999966       61.20000000000001      65.280000000000001
   107   1      8.1599999999999966      63.240000000000002      67.320000000000007
   108   1      10.200000000000003       61.20000000000001      67.320000000000007
   109   1      10.200000000000003      63.240000000000002      65.280000000000001
   110   1      8.1599999999999966       61.20000000000001      69.359999999999999
   111   1      10.200000000000003       61.20000000000001      71.400000000000006
   112   1      10.200000000000003      63.240000000000002      69.359999999999999
   113   1      10.200000000000003      63.240000000000002      73.439999999999998
   114   1      10.200000000000003      65.280000000000001                      51
   115   1      8.1599999999999966      65.280000000000001      53.040000000000006
   116   1      8.1599999999999966      67.320000000000007      55.080000000000005
   117   1      10.200000000000003      65.280000000000001      55.080000000000005
   118   1      10.200000000000003      67.320000000000007      53.040000000000006
   119   1      8.1599999999999966      65.280000000000001      57.120000000000012
   120   1      8.1599999999999966      67.320000000000007      59.160000000000004
   121   1      10.200000000000003      65.280000000000001      59.160000000000004
   122   1      10.200000000000003      67.320000000000007      57.120000000000012
   123   1      8.1599999999999966      65.280000000000001       61.20000000000001
   124   1      8.1599999999999966      67.320000000000007      63.240000000000002
   125   1      10.200000000000003      65.280000000000001      63.240000000000002
   126   1      10.200000000000003      67.320000000000007       61.20000000000001
   127   1      8.1599999999999966      65.280000000000001      65.280000000000001
   128   1      8.1599999999999966      67.320000000000007      67.320000000000007
   129   1      10.200000000000003      65.280000000000001      67.320000000000007
   130   1      10.200000000000003      67.320000000000007      65.280000000000001
   131   1      8.1599999999999966      65.280000000000001      69.359999999999999
   132   1      10.200000000000003      65.280000000000001      71.400000000000006
   133   1      10.200000000000003      67.320000000000007      69.359999999999999
   134   1      10.200000000000003      69.359999999999999                      51
   135   1      8.1599999999999966      69.359999999999999      53.040000000000006
   136   1      10.200000000000003      69.359999999999999      55.080000000000005
   137   1      10.200000000000003      71.400000000000006      53.040000000000006
   138   1      8.1599999999999966      69.359999999999999      57.120000000000012
   139   1      10.200000000000003      69.359999999999999      59.160000000000004
   140   1      10.200000000000003      71.400000000000006      57.120000000000012
   141   1      8.1599999999999966      69.359999999999999       61.20000000000001
   142   1      10.200000000000003      69.359999999999999      63.240000000000002
   143   1      10.200000000000003      71.400000000000006       61.20000000000001
   144   1      8.1599999999999966      69.359999999999999      65.280000000000001
   145   1      10.200000000000003      69.359999999999999      67.320000000000007
   146   1      10.200000000000003      71.400000000000006      65.280000000000001
   147   1      8.1599999999999966      69.359999999999999      69.359999999999999
   148   1      10.200000000000003      69.359999999999999      71.400000000000006
   149   1      10.200000000000003      71.400000000000006      69.359999999999999
   150   1      10.200000000000003      73.439999999999998      59.160000000000004
   151   1      10.200000000000003      73.439999999999998      63.240000000000002
   152   1      14.280000000000003      46.920000000000002      48.960000000000001
   153   1      14.280000000000003       44.88000000000001      55.080000000000005
   154   1      14.280000000000003      46.920000000000002      53.040000000000006
   155   1      12.240000000000002      46.920000000000002      59.160000000000004
   156   1      14.280000000000003       44.88000000000001      59.160000000000004
   157   1      14.280000000000003      46.920000000000002      57.120000000000012
   158   1      12.240000000000002      46.920000000000002      63.240000000000002
   159   1      14.280000000000003       44.88000000000001      63.240000000000002
   160   1      14.280000000000003      46.920000000000002       61.20000000000001
   161   1      14.280000000000003       44.88000000000001      67.320000000000007
   162   1      14.280000000000003      46.920000000000002      65.280000000000001
   163   1      14.280000000000003      46.920000000000002      69.359999999999999
   164   1      14.280000000000003      46.920000000000002      73.439999999999998
   165   1      14.280000000000003      48.960000000000001      46.920000000000002
   166   1      12.240000000000002      48.960000000000001      48.960000000000001
   167   1      12.240000000000002                      51                      51
   168   1      14.280000000000003      48.960000000000001                      51
   169   1      14.280000000000003                      51      48.960000000000001
   170   1      12.240000000000002      48.960000000000001      53.040000000000006
   171   1      12.240000000000002                      51      55.080000000000005
   172   1      14.280000000000003      48.960000000000001      55.080000000000005
   173   1      14.280000000000003                      51      53.040000000000006
   174   1      12.240000000000002      48.960000000000001      57.120000000000012
   175   1      12.240000000000002                      51      59.160000000000004
   176   1      14.280000000000003      48.960000000000001      59.160000000000004
   177   1      14.280000000000003                      51      57.120000000000012
   178   1      12.240000000000002      48.960000000000001       61.20000000000001
   179   1      12.240000000000002                      51      63.240000000000002
   180   1      14.280000000000003      48.960000000000001      63.240000000000002
   181   1      14.280000000000003                      51       61.20000000000001
   182   1      12.240000000000002      48.960000000000001      65.280000000000001
   183   1      12.240000000000002                      51      67.320000000000007
   184   1      14.280000000000003      48.960000000000001      67.320000000000007
   185   1      14.280000000000003                      51      65.280000000000001
   186   1      12.240000000000002      48.960000000000001      69.359999999999999
   187   1      12.240000000000002                      51      71.400000000000006
   188   1      14.280000000000003      48.960000000000001      71.400000000000006
   189   1      14.280000000000003                      51      69.359999999999999
   190   1      12.240000000000002      48.960000000000001      73.439999999999998
   191   1      14.280000000000003      48.960000000000001      75.480000000000004
   192   1      14.280000000000003                      51      73.439999999999998
   193   1      14.280000000000003      53.040000000000006      46.920000000000002
   194   1      14.280000000000003      55.080000000000005       44.88000000000001
   195   1      12.240000000000002      53.040000000000006      48.960000000000001
   196   1      12.240000000000002      55.080000000000005                      51
   197   1      14.280000000000003      53.040000000000006                      51
   198   1      14.280000000000003      55.080000000000005      48.960000000000001
   199   1      12.240000000000002      53.040000000000006      53.040000000000006
   200   1      12.240000000000002      55.080000000000005      55.080000000000005
   201   1      14.280000000000003      53.040000000000006      55.080000000000005
   202   1      14.280000000000003      55.080000000000005      53.040000000000006
   203   1      12.240000000000002      53.040000000000006      57.120000000000012
   204   1      12.240000000000002      55.080000000000005      59.160000000000004
   205   1      14.280000000000003      53.040000000000006      59.160000000000004
   206   1      14.280000000000003      55.080000000000005      57.120000000000012
   207   1      12.240000000000002      53.040000000000006       61.20000000000001
   208   1      12.240000000000002      55.080000000000005      63.240000000000002
   209   1      14.280000000000003      53.040000000000006      63.240000000000002
   210   1      14.280000000000003      55.080000000000005       61.20000000000001
   211   1      12.240000000000002      53.040000000000006      65.280000000000001
   212   1      12.240000000000002      55.080000000000005      67.320000000000007
   213   1      14.280000000000003      53.040000000000006      67.320000000000007
   214   1      14.280000000000003      55.080000000000005      65.280000000000001
   215   1      12.240000000000002      53.040000000000006      69.359999999999999
   216   1      12.240000000000002      55.080000000000005      71.400000000000006
   217   1      14.280000000000003      53.040000000000006      71.400000000000006
   218   1      14.280000000000003      55.080000000000005      69.359999999999999
   219   1      12.240000000000002      53.040000000000006      73.439999999999998
   220   1      14.280000000000003      53.040000000000006      75.480000000000004
   221   1      14.280000000000003      55.080000000000005      73.439999999999998
   222   1      14.280000000000003      55.080000000000005      77.519999999999996
   223   1      12.240000000000002      59.160000000000004      46.920000000000002
   224   1      14.280000000000003      57.120000000000012      46.920000000000002
   225   1      14.280000000000003      59.160000000000004       44.88000000000001
   226   1      12.240000000000002      57.120000000000012      48.960000000000001
   227   1      12.240000000000002      59.160000000000004                      51
   228   1      14.280000000000003      57.120000000000012                      51
   229   1      14.280000000000003      59.160000000000004      48.960000000000001
   230   1      12.240000000000002      57.120000000000012      53.040000000000006
   231   1      12.240000000000002      59.160000000000004      55.080000000000005
   232   1      14.280000000000003      57.120000000000012      55.080000000000005
   233   1      14.280000000000003      59.160000000000004      53.040000000000006
   234   1      12.240000000000002      57.120000000000012      57.120000000000012
   235   1      12.240000000000002      59.160000000000004      59.160000000000004
   236   1      14.280000000000003      57.120000000000012      59.160000000000004
   237   1      14.280000000000003      59.160000000000004      57.120000000000012
   238   1      12.240000000000002      57.120000000000012       61.20000000000001
   239   1      12.240000000000002      59.160000000000004      63.240000000000002
   240   1      14.280000000000003      57.120000000000012      63.240000000000002
   241   1      14.280000000000003      59.160000000000004       61.20000000000001
   242   1      12.240000000000002      57.120000000000012      65.280000000000001
   243   1      12.240000000000002      59.160000000000004      67.320000000000007
   244   1      14.280000000000003      57.120000000000012      67.320000000000007
   245   1      14.280000000000003      59.160000000000004      65.280000000000001
   246   1      12.240000000000002      57.120000000000012      69.359999999999999
   247   1      12.240000000000002      59.160000000000004      71.400000000000006
   248   1      14.280000000000003      57.120000000000012      71.400000000000006
   249   1      14.280000000000003      59.160000000000004      69.359999999999999
   250   1      12.240000000000002      57.120000000000012      73.439999999999998
   251   1      12.240000000000002      59.160000000000004      75.480000000000004
   252   1      14.280000000000003      57.120000000000012      75.480000000000004
   253   1      14.280000000000003      59.160000000000004      73.439999999999998
   254   1      14.280000000000003      59.160000000000004      77.519999999999996
   255   1      12.240000000000002      63.240000000000002      46.920000000000002
   256   1      14.280000000000003       61.20000000000001      46.920000000000002
   257   1      14.280000000000003      63.240000000000002       44.88000000000001
   258   1      12.240000000000002       61.20000000000001      48.960000000000001
   259   1      12.240000000000002      63.240000000000002                      51
   260   1      14.280000000000003       61.20000000000001                      51
   261   1      14.280000000000003      63.240000000000002      48.960000000000001
   262   1      12.240000000000002       61.20000000000001      53.040000000000006
   263   1      12.240000000000002      63.240000000000002      55.080000000000005
   264   1      14.280000000000003       61.20000000000001      55.080000000000005
   265   1      14.280000000000003      63.240000000000002      53.040000000000006
   266   1      12.240000000000002       61.20000000000001      57.120000000000012
   267   1      12.240000000000002      63.240000000000002      59.160000000000004
   268   1      14.280000000000003       61.20000000000001      59.160000000000004
   269   1      14.280000000000003      63.240000000000002      57.120000000000012
   270   1      12.240000000000002       61.20000000000001       61.20000000000001
   271   1      12.240000000000002      63.240000000000002      63.240000000000002
   272   1      14.280000000000003       61.20000000000001      63.240000000000002
   273   1      14.280000000000003      63.240000000000002       61.20000000000001
   274   1      12.240000000000002       61.20000000000001      65.280000000000001
   275   1      12.240000000000002      63.240000000000002      67.320000000000007
   276   1      14.280000000000003       61.20000000000001      67.320000000000007
   277   1      14.280000000000003      63.240000000000002      65.280000000000001
   278   1      12.240000000000002       61.20000000000001      69.359999999999999
   279   1      12.240000000000002      63.240000000000002      71.400000000000006
   280   1      14.280000000000003       61.20000000000001      71.400000000000006
   281   1      14.280000000000003      63.240000000000002      69.359999999999999
   282   1      12.240000000000002       61.20000000000001      73.439999999999998
   283   1      12.240000000000002      63.240000000000002      75.480000000000004
   284   1      14.280000000000003       61.20000000000001      75.480000000000004
   285   1      14.280000000000003      63.240000000000002      73.439999999999998
   286   1      14.280000000000003      63.240000000000002      77.519999999999996
   287   1      14.280000000000003      65.280000000000001      46.920000000000002
   288   1      14.280000000000003      67.320000000000007       44.88000000000001
   289   1      12.240000000000002      65.280000000000001      48.960000000000001
   290   1      12.240000000000002      67.320000000000007                      51
   291   1      14.280000000000003      65.280000000000001                      51
   292   1      14.280000000000003      67.320000000000007      48.960000000000001
   293   1      12.240000000000002      65.280000000000001      53.040000000000006
   294   1      12.240000000000002      67.320000000000007      55.080000000000005
   295   1      14.280000000000003      65.280000000000001      55.080000000000005
   296   1      14.280000000000003      67.320000000000007      53.040000000000006
   297   1      12.240000000000002      65.280000000000001      57.120000000000012
   298   1      12.240000000000002      67.320000000000007      59.160000000000004
   299   1      14.280000000000003      65.280000000000001      59.160000000000004
   300   1      14.280000000000003      67.320000000000007      57.120000000000012
   301   1      12.240000000000002      65.280000000000001       61.20000000000001
   302   1      12.240000000000002      67.320000000000007      63.240000000000002
   303   1      14.280000000000003      65.280000000000001      63.240000000000002
   304   1      14.280000000000003      67.320000000000007       61.20000000000001
   305   1      12.240000000000002      65.280000000000001      65.280000000000001
   306   1      12.240000000000002      67.320000000000007      67.320000000000007
   307   1      14.280000000000003      65.280000000000001      67.320000000000007
   308   1      14.280000000000003      67.320000000000007      65.280000000000001
   309   1      12.240000000000002      65.280000000000001      69.359999999999999
   310   1      12.240000000000002      67.320000000000007      71.400000000000006
   311   1      14.280000000000003      65.280000000000001      71.400000000000006
   312   1      14.280000000000003      67.320000000000007      69.359999999999999
   313   1      12.240000000000002      65.280000000000001      73.439999999999998
   314   1      14.280000000000003      65.280000000000001      75.480000000000004
   315   1      14.280000000000003      67.320000000000007      73.439999999999998
   316   1      14.280000000000003      67.320000000000007      77.519999999999996
   317   1      14.280000000000003      69.359999999999999      46.920000000000002
   318   1      12.240000000000002      69.359999999999999      48.960000000000001
   319   1      12.240000000000002      71.400000000000006                      51
   320   1      14.280000000000003      69.359999999999999                      51
   321   1      14.280000000000003      71.400000000000006      48.960000000000001
   322   1      12.240000000000002      69.359999999999999      53.040000000000006
   323   1      12.240000000000002      71.400000000000006      55.080000000000005
   324   1      14.280000000000003      69.359999999999999      55.080000000000005
   325   1      14.280000000000003      71.400000000000006      53.040000000000006
   326   1      12.240000000000002      69.359999999999999      57.120000000000012
   327   1      12.240000000000002      71.400000000000006      59.160000000000004
   328   1      14.280000000000003      69.359999999999999      59.160000000000004
   329   1      14.280000000000003      71.400000000000006      57.120000000000012
   330   1      12.240000000000002      69.359999999999999       61.20000000000001
   331   1      12.240000000000002      71.400000000000006      63.240000000000002
   332   1      14.280000000000003      69.359999999999999      63.240000000000002
   333   1      14.280000000000003      71.400000000000006       61.20000000000001
   334   1      12.240000000000002      69.359999999999999      65.280000000000001
   335   1      12.240000000000002      71.400000000000006      67.320000000000007
   336   1      14.280000000000003      69.359999999999999      67.320000000000007
   337   1      14.280000000000003      71.400000000000006      65.280000000000001
   338   1      12.240000000000002      69.359999999999999      69.359999999999999
   339   1      12.240000000000002      71.400000000000006      71.400000000000006
   340   1      14.280000000000003      69.359999999999999      71.400000000000006
   341   1      14.280000000000003      71.400000000000006      69.359999999999999
   342   1      12.240000000000002      69.359999999999999      73.439999999999998
   343   1      14.280000000000003      69.359999999999999      75.480000000000004
   344   1      14.280000000000003      71.400000000000006      73.439999999999998
   345   1      14.280000000000003      73.439999999999998      46.920000000000002
   346   1      12.240000000000002      73.439999999999998      48.960000000000001
   347   1      14.280000000000003      73.439999999999998                      51
   348   1      14.280000000000003      75.480000000000004      48.960000000000001
   349   1      12.240000000000002      73.439999999999998      53.040000000000006
   350   1      14.280000000000003      73.439999999999998      55.080000000000005
   351   1      14.280000000000003      75.480000000000004      53.040000000000006
   352   1      12.240000000000002      73.439999999999998      57.120000000000012
   353   1      12.240000000000002      75.480000000000004      59.160000000000004
   354   1      14.280000000000003      73.439999999999998      59.160000000000004
   355   1      14.280000000000003      75.480000000000004      57.120000000000012
   356   1      12.240000000000002      73.439999999999998       61.20000000000001
   357   1      12.240000000000002      75.480000000000004      63.240000000000002
   358   1      14.280000000000003      73.439999999999998      63.240000000000002