model_files/Co/Co_30000/Co_520/data.Co_520_hcp_30029 (written by ASE) 

30029 	 atoms 
1  atom types
0.0                      60  xlo xhi
0.0                      60  ylo yhi
0.0                      60  zlo zhi


Atoms 

     1   1      1.2550000000000026      26.354999999999997      27.609999999999999
     2   1      1.2550000000000026      26.354999999999997      30.120000000000001
     3   1      1.2550000000000026      26.354999999999997      32.630000000000003
     4   1      1.2550000000000026      27.609999999999999      26.354999999999997
     5   1                       0      28.864999999999998      28.864999999999998
     6   1      1.2550000000000026      27.609999999999999      28.864999999999998
     7   1      1.2550000000000026      28.864999999999998      27.609999999999999
     8   1                       0      28.864999999999998                  31.375
     9   1      1.2550000000000026      27.609999999999999                  31.375
    10   1      1.2550000000000026      28.864999999999998      30.120000000000001
    11   1      1.2550000000000026      27.609999999999999      33.885000000000005
    12   1      1.2550000000000026      28.864999999999998      32.630000000000003
    13   1      1.2550000000000026      30.120000000000001      26.354999999999997
    14   1                       0                  31.375      28.864999999999998
    15   1      1.2550000000000026      30.120000000000001      28.864999999999998
    16   1      1.2550000000000026                  31.375      27.609999999999999
    17   1                       0      30.120000000000001      30.120000000000001
    18   1                       0                  31.375                  31.375
    19   1      1.2550000000000026      30.120000000000001                  31.375
    20   1      1.2550000000000026                  31.375      30.120000000000001
    21   1      1.2550000000000026      30.120000000000001      33.885000000000005
    22   1      1.2550000000000026                  31.375      32.630000000000003
    23   1      1.2550000000000026      32.630000000000003      26.354999999999997
    24   1      1.2550000000000026      32.630000000000003      28.864999999999998
    25   1      1.2550000000000026      33.885000000000005      27.609999999999999
    26   1      1.2550000000000026      32.630000000000003                  31.375
    27   1      1.2550000000000026      33.885000000000005      30.120000000000001
    28   1      1.2550000000000026      32.630000000000003      33.885000000000005
    29   1      1.2550000000000026      33.885000000000005      32.630000000000003
    30   1       3.765000000000001      20.079999999999998      21.334999999999997
    31   1       3.765000000000001      21.334999999999997      20.079999999999998
    32   1       3.765000000000001      20.079999999999998      23.844999999999999
    33   1       3.765000000000001      21.334999999999997                   22.59
    34   1       3.765000000000001      20.079999999999998      26.354999999999997
    35   1       3.765000000000001      21.334999999999997      25.100000000000001
    36   1       3.765000000000001      20.079999999999998      28.864999999999998
    37   1       3.765000000000001      21.334999999999997      27.609999999999999
    38   1       3.765000000000001      20.079999999999998                  31.375
    39   1       3.765000000000001      21.334999999999997      30.120000000000001
    40   1       3.765000000000001      20.079999999999998      33.885000000000005
    41   1       3.765000000000001      21.334999999999997      32.630000000000003
    42   1       3.765000000000001      20.079999999999998      36.395000000000003
    43   1       3.765000000000001      21.334999999999997      35.140000000000001
    44   1       3.765000000000001      20.079999999999998      38.905000000000001
    45   1       3.765000000000001      21.334999999999997      37.649999999999999
    46   1       3.765000000000001      21.334999999999997      40.159999999999997
    47   1       3.765000000000001                   22.59      21.334999999999997
    48   1       3.765000000000001      23.844999999999999      20.079999999999998
    49   1      2.5100000000000016                   22.59                   22.59
    50   1      2.5100000000000016      23.844999999999999      23.844999999999999
    51   1       3.765000000000001                   22.59      23.844999999999999
    52   1       3.765000000000001      23.844999999999999                   22.59
    53   1      2.5100000000000016                   22.59      25.100000000000001
    54   1      2.5100000000000016      23.844999999999999      26.354999999999997
    55   1       3.765000000000001                   22.59      26.354999999999997
    56   1       3.765000000000001      23.844999999999999      25.100000000000001
    57   1      2.5100000000000016                   22.59      27.609999999999999
    58   1      2.5100000000000016      23.844999999999999      28.864999999999998
    59   1       3.765000000000001                   22.59      28.864999999999998
    60   1       3.765000000000001      23.844999999999999      27.609999999999999
    61   1      2.5100000000000016                   22.59      30.120000000000001
    62   1      2.5100000000000016      23.844999999999999                  31.375
    63   1       3.765000000000001                   22.59                  31.375
    64   1       3.765000000000001      23.844999999999999      30.120000000000001
    65   1      2.5100000000000016                   22.59      32.630000000000003
    66   1      2.5100000000000016      23.844999999999999      33.885000000000005
    67   1       3.765000000000001                   22.59      33.885000000000005
    68   1       3.765000000000001      23.844999999999999      32.630000000000003
    69   1      2.5100000000000016                   22.59      35.140000000000001
    70   1      2.5100000000000016      23.844999999999999      36.395000000000003
    71   1       3.765000000000001                   22.59      36.395000000000003
    72   1       3.765000000000001      23.844999999999999      35.140000000000001
    73   1      2.5100000000000016                   22.59      37.649999999999999
    74   1       3.765000000000001                   22.59      38.905000000000001
    75   1       3.765000000000001      23.844999999999999      37.649999999999999
    76   1       3.765000000000001      23.844999999999999      40.159999999999997
    77   1       3.765000000000001      25.100000000000001      21.334999999999997
    78   1       3.765000000000001      26.354999999999997      20.079999999999998
    79   1      2.5100000000000016      25.100000000000001                   22.59
    80   1      2.5100000000000016      26.354999999999997      23.844999999999999
    81   1       3.765000000000001      25.100000000000001      23.844999999999999
    82   1       3.765000000000001      26.354999999999997                   22.59
    83   1      2.5100000000000016      25.100000000000001      25.100000000000001
    84   1      2.5100000000000016      26.354999999999997      26.354999999999997
    85   1       3.765000000000001      25.100000000000001      26.354999999999997
    86   1       3.765000000000001      26.354999999999997      25.100000000000001
    87   1      2.5100000000000016      25.100000000000001      27.609999999999999
    88   1      2.5100000000000016      26.354999999999997      28.864999999999998
    89   1       3.765000000000001      25.100000000000001      28.864999999999998
    90   1       3.765000000000001      26.354999999999997      27.609999999999999
    91   1      2.5100000000000016      25.100000000000001      30.120000000000001
    92   1      2.5100000000000016      26.354999999999997                  31.375
    93   1       3.765000000000001      25.100000000000001                  31.375
    94   1       3.765000000000001      26.354999999999997      30.120000000000001
    95   1      2.5100000000000016      25.100000000000001      32.630000000000003
    96   1      2.5100000000000016      26.354999999999997      33.885000000000005
    97   1       3.765000000000001      25.100000000000001      33.885000000000005
    98   1       3.765000000000001      26.354999999999997      32.630000000000003
    99   1      2.5100000000000016      25.100000000000001      35.140000000000001
   100   1      2.5100000000000016      26.354999999999997      36.395000000000003
   101   1       3.765000000000001      25.100000000000001      36.395000000000003
   102   1       3.765000000000001      26.354999999999997      35.140000000000001
   103   1      2.5100000000000016      25.100000000000001      37.649999999999999
   104   1       3.765000000000001      25.100000000000001      38.905000000000001
   105   1       3.765000000000001      26.354999999999997      37.649999999999999
   106   1       3.765000000000001      26.354999999999997      40.159999999999997
   107   1       3.765000000000001      27.609999999999999      21.334999999999997
   108   1       3.765000000000001      28.864999999999998      20.079999999999998
   109   1      2.5100000000000016      27.609999999999999                   22.59
   110   1      2.5100000000000016      28.864999999999998      23.844999999999999
   111   1       3.765000000000001      27.609999999999999      23.844999999999999
   112   1       3.765000000000001      28.864999999999998                   22.59
   113   1      2.5100000000000016      27.609999999999999      25.100000000000001
   114   1      2.5100000000000016      28.864999999999998      26.354999999999997
   115   1       3.765000000000001      27.609999999999999      26.354999999999997
   116   1       3.765000000000001      28.864999999999998      25.100000000000001
   117   1      2.5100000000000016      27.609999999999999      27.609999999999999
   118   1      2.5100000000000016      28.864999999999998      28.864999999999998
   119   1       3.765000000000001      27.609999999999999      28.864999999999998
   120   1       3.765000000000001      28.864999999999998      27.609999999999999
   121   1      2.5100000000000016      27.609999999999999      30.120000000000001
   122   1      2.5100000000000016      28.864999999999998                  31.375
   123   1       3.765000000000001      27.609999999999999                  31.375
   124   1       3.765000000000001      28.864999999999998      30.120000000000001
   125   1      2.5100000000000016      27.609999999999999      32.630000000000003
   126   1      2.5100000000000016      28.864999999999998      33.885000000000005
   127   1       3.765000000000001      27.609999999999999      33.885000000000005
   128   1       3.765000000000001      28.864999999999998      32.630000000000003
   129   1      2.5100000000000016      27.609999999999999      35.140000000000001
   130   1      2.5100000000000016      28.864999999999998      36.395000000000003
   131   1       3.765000000000001      27.609999999999999      36.395000000000003
   132   1       3.765000000000001      28.864999999999998      35.140000000000001
   133   1      2.5100000000000016      27.609999999999999      37.649999999999999
   134   1       3.765000000000001      27.609999999999999      38.905000000000001
   135   1       3.765000000000001      28.864999999999998      37.649999999999999
   136   1       3.765000000000001      28.864999999999998      40.159999999999997
   137   1       3.765000000000001      30.120000000000001      21.334999999999997
   138   1       3.765000000000001                  31.375      20.079999999999998
   139   1      2.5100000000000016      30.120000000000001                   22.59
   140   1      2.5100000000000016                  31.375      23.844999999999999
   141   1       3.765000000000001      30.120000000000001      23.844999999999999
   142   1       3.765000000000001                  31.375                   22.59
   143   1      2.5100000000000016      30.120000000000001      25.100000000000001
   144   1      2.5100000000000016                  31.375      26.354999999999997
   145   1       3.765000000000001      30.120000000000001      26.354999999999997
   146   1       3.765000000000001                  31.375      25.100000000000001
   147   1      2.5100000000000016      30.120000000000001      27.609999999999999
   148   1      2.5100000000000016                  31.375      28.864999999999998
   149   1       3.765000000000001      30.120000000000001      28.864999999999998
   150   1       3.765000000000001                  31.375      27.609999999999999
   151   1      2.5100000000000016      30.120000000000001      30.120000000000001
   152   1      2.5100000000000016                  31.375                  31.375
   153   1       3.765000000000001      30.120000000000001                  31.375
   154   1       3.765000000000001                  31.375      30.120000000000001
   155   1      2.5100000000000016      30.120000000000001      32.630000000000003
   156   1      2.5100000000000016                  31.375      33.885000000000005
   157   1       3.765000000000001      30.120000000000001      33.885000000000005
   158   1       3.765000000000001                  31.375      32.630000000000003
   159   1      2.5100000000000016      30.120000000000001      35.140000000000001
   160   1      2.5100000000000016                  31.375      36.395000000000003
   161   1       3.765000000000001      30.120000000000001      36.395000000000003
   162   1       3.765000000000001                  31.375      35.140000000000001
   163   1      2.5100000000000016      30.120000000000001      37.649999999999999
   164   1       3.765000000000001      30.120000000000001      38.905000000000001
   165   1       3.765000000000001                  31.375      37.649999999999999
   166   1       3.765000000000001                  31.375      40.159999999999997
   167   1       3.765000000000001      32.630000000000003      21.334999999999997
   168   1       3.765000000000001      33.885000000000005      20.079999999999998
   169   1      2.5100000000000016      32.630000000000003                   22.59
   170   1      2.5100000000000016      33.885000000000005      23.844999999999999
   171   1       3.765000000000001      32.630000000000003      23.844999999999999
   172   1       3.765000000000001      33.885000000000005                   22.59
   173   1      2.5100000000000016      32.630000000000003      25.100000000000001
   174   1      2.5100000000000016      33.885000000000005      26.354999999999997
   175   1       3.765000000000001      32.630000000000003      26.354999999999997
   176   1       3.765000000000001      33.885000000000005      25.100000000000001
   177   1      2.5100000000000016      32.630000000000003      27.609999999999999
   178   1      2.5100000000000016      33.885000000000005      28.864999999999998
   179   1       3.765000000000001      32.630000000000003      28.864999999999998
   180   1       3.765000000000001      33.885000000000005      27.609999999999999
   181   1      2.5100000000000016      32.630000000000003      30.120000000000001
   182   1      2.5100000000000016      33.885000000000005                  31.375
   183   1       3.765000000000001      32.630000000000003                  31.375
   184   1       3.765000000000001      33.885000000000005      30.120000000000001
   185   1      2.5100000000000016      32.630000000000003      32.630000000000003
   186   1      2.5100000000000016      33.885000000000005      33.885000000000005
   187   1       3.765000000000001      32.630000000000003      33.885000000000005
   188   1       3.765000000000001      33.885000000000005      32.630000000000003
   189   1      2.5100000000000016      32.630000000000003      35.140000000000001
   190   1      2.5100000000000016      33.885000000000005      36.395000000000003
   191   1       3.765000000000001      32.630000000000003      36.395000000000003
   192   1       3.765000000000001      33.885000000000005      35.140000000000001
   193   1      2.5100000000000016      32.630000000000003      37.649999999999999
   194   1       3.765000000000001      32.630000000000003      38.905000000000001
   195   1       3.765000000000001      33.885000000000005      37.649999999999999
   196   1       3.765000000000001      33.885000000000005      40.159999999999997
   197   1       3.765000000000001      35.140000000000001      21.334999999999997
   198   1       3.765000000000001      36.395000000000003      20.079999999999998
   199   1      2.5100000000000016      35.140000000000001                   22.59
   200   1      2.5100000000000016      36.395000000000003      23.844999999999999
   201   1       3.765000000000001      35.140000000000001      23.844999999999999
   202   1       3.765000000000001      36.395000000000003                   22.59
   203   1      2.5100000000000016      35.140000000000001      25.100000000000001
   204   1      2.5100000000000016      36.395000000000003      26.354999999999997
   205   1       3.765000000000001      35.140000000000001      26.354999999999997
   206   1       3.765000000000001      36.395000000000003      25.100000000000001
   207   1      2.5100000000000016      35.140000000000001      27.609999999999999
   208   1      2.5100000000000016      36.395000000000003      28.864999999999998
   209   1       3.765000000000001      35.140000000000001      28.864999999999998
   210   1       3.765000000000001      36.395000000000003      27.609999999999999
   211   1      2.5100000000000016      35.140000000000001      30.120000000000001
   212   1      2.5100000000000016      36.395000000000003                  31.375
   213   1       3.765000000000001      35.140000000000001                  31.375
   214   1       3.765000000000001      36.395000000000003      30.120000000000001
   215   1      2.5100000000000016      35.140000000000001      32.630000000000003
   216   1      2.5100000000000016      36.395000000000003      33.885000000000005
   217   1       3.765000000000001      35.140000000000001      33.885000000000005
   218   1       3.765000000000001      36.395000000000003      32.630000000000003
   219   1      2.5100000000000016      35.140000000000001      35.140000000000001
   220   1      2.5100000000000016      36.395000000000003      36.395000000000003
   221   1       3.765000000000001      35.140000000000001      36.395000000000003
   222   1       3.765000000000001      36.395000000000003      35.140000000000001
   223   1      2.5100000000000016      35.140000000000001      37.649999999999999
   224   1       3.765000000000001      35.140000000000001      38.905000000000001
   225   1       3.765000000000001      36.395000000000003      37.649999999999999
   226   1       3.765000000000001      36.395000000000003      40.159999999999997
   227   1       3.765000000000001      37.649999999999999      21.334999999999997
   228   1       3.765000000000001      38.905000000000001      20.079999999999998
   229   1      2.5100000000000016      37.649999999999999                   22.59
   230   1       3.765000000000001      37.649999999999999      23.844999999999999
   231   1       3.765000000000001      38.905000000000001                   22.59
   232   1      2.5100000000000016      37.649999999999999      25.100000000000001
   233   1       3.765000000000001      37.649999999999999      26.354999999999997
   234   1       3.765000000000001      38.905000000000001      25.100000000000001
   235   1      2.5100000000000016      37.649999999999999      27.609999999999999
   236   1       3.765000000000001      37.649999999999999      28.864999999999998
   237   1       3.765000000000001      38.905000000000001      27.609999999999999
   238   1      2.5100000000000016      37.649999999999999      30.120000000000001
   239   1       3.765000000000001      37.649999999999999                  31.375
   240   1       3.765000000000001      38.905000000000001      30.120000000000001
   241   1      2.5100000000000016      37.649999999999999      32.630000000000003
   242   1       3.765000000000001      37.649999999999999      33.885000000000005
   243   1       3.765000000000001      38.905000000000001      32.630000000000003
   244   1      2.5100000000000016      37.649999999999999      35.140000000000001
   245   1       3.765000000000001      37.649999999999999      36.395000000000003
   246   1       3.765000000000001      38.905000000000001      35.140000000000001
   247   1      2.5100000000000016      37.649999999999999      37.649999999999999
   248   1       3.765000000000001      37.649999999999999      38.905000000000001
   249   1       3.765000000000001      38.905000000000001      37.649999999999999
   250   1       3.765000000000001      38.905000000000001      40.159999999999997
   251   1       3.765000000000001      40.159999999999997      21.334999999999997
   252   1       3.765000000000001      40.159999999999997      23.844999999999999
   253   1       3.765000000000001      40.159999999999997      26.354999999999997
   254   1       3.765000000000001      40.159999999999997      28.864999999999998
   255   1       3.765000000000001      40.159999999999997                  31.375
   256   1       3.765000000000001      40.159999999999997      33.885000000000005
   257   1       3.765000000000001      40.159999999999997      36.395000000000003
   258   1       3.765000000000001      40.159999999999997      38.905000000000001
   259   1      6.2750000000000021                  13.805      15.060000000000004
   260   1      6.2750000000000021                  13.805                   17.57
   261   1      6.2750000000000021                  13.805      20.079999999999998
   262   1      6.2750000000000021                  13.805                   22.59
   263   1      6.2750000000000021                  13.805      25.100000000000001
   264   1      6.2750000000000021                  13.805      27.609999999999999
   265   1      6.2750000000000021                  13.805      30.120000000000001
   266   1      6.2750000000000021                  13.805      32.630000000000003
   267   1      6.2750000000000021                  13.805      35.140000000000001
   268   1      6.2750000000000021                  13.805      37.649999999999999
   269   1      6.2750000000000021                  13.805      40.159999999999997
   270   1      6.2750000000000021                  13.805      42.669999999999995
   271   1      6.2750000000000021                  13.805                   45.18
   272   1      6.2750000000000021      15.060000000000004                  13.805
   273   1      5.0200000000000031      16.315000000000001      16.315000000000001
   274   1      6.2750000000000021      15.060000000000004      16.315000000000001
   275   1      6.2750000000000021      16.315000000000001      15.060000000000004
   276   1      5.0200000000000031      16.315000000000001      18.824999999999999
   277   1      6.2750000000000021      15.060000000000004      18.824999999999999
   278   1      6.2750000000000021      16.315000000000001                   17.57
   279   1      5.0200000000000031      16.315000000000001      21.334999999999997
   280   1      6.2750000000000021      15.060000000000004      21.334999999999997
   281   1      6.2750000000000021      16.315000000000001      20.079999999999998
   282   1      5.0200000000000031      16.315000000000001      23.844999999999999
   283   1      6.2750000000000021      15.060000000000004      23.844999999999999
   284   1      6.2750000000000021      16.315000000000001                   22.59
   285   1      5.0200000000000031      16.315000000000001      26.354999999999997
   286   1      6.2750000000000021      15.060000000000004      26.354999999999997
   287   1      6.2750000000000021      16.315000000000001      25.100000000000001
   288   1      5.0200000000000031      16.315000000000001      28.864999999999998
   289   1      6.2750000000000021      15.060000000000004      28.864999999999998
   290   1      6.2750000000000021      16.315000000000001      27.609999999999999
   291   1      5.0200000000000031      16.315000000000001                  31.375
   292   1      6.2750000000000021      15.060000000000004                  31.375
   293   1      6.2750000000000021      16.315000000000001      30.120000000000001
   294   1      5.0200000000000031      16.315000000000001      33.885000000000005
   295   1      6.2750000000000021      15.060000000000004      33.885000000000005
   296   1      6.2750000000000021      16.315000000000001      32.630000000000003
   297   1      5.0200000000000031      16.315000000000001      36.395000000000003
   298   1      6.2750000000000021      15.060000000000004      36.395000000000003
   299   1      6.2750000000000021      16.315000000000001      35.140000000000001
   300   1      5.0200000000000031      16.315000000000001      38.905000000000001
   301   1      6.2750000000000021      15.060000000000004      38.905000000000001
   302   1      6.2750000000000021      16.315000000000001      37.649999999999999
   303   1      5.0200000000000031      16.315000000000001      41.414999999999999
   304   1      6.2750000000000021      15.060000000000004      41.414999999999999
   305   1      6.2750000000000021      16.315000000000001      40.159999999999997
   306   1      5.0200000000000031      16.315000000000001      43.924999999999997
   307   1      6.2750000000000021      15.060000000000004      43.924999999999997
   308   1      6.2750000000000021      16.315000000000001      42.669999999999995
   309   1      6.2750000000000021      15.060000000000004      46.435000000000002
   310   1      6.2750000000000021      16.315000000000001                   45.18
   311   1      6.2750000000000021                   17.57                  13.805
   312   1      5.0200000000000031      18.824999999999999      16.315000000000001
   313   1      6.2750000000000021                   17.57      16.315000000000001
   314   1      6.2750000000000021      18.824999999999999      15.060000000000004
   315   1      5.0200000000000031                   17.57                   17.57
   316   1      5.0200000000000031      18.824999999999999      18.824999999999999
   317   1      6.2750000000000021                   17.57      18.824999999999999
   318   1      6.2750000000000021      18.824999999999999                   17.57
   319   1      5.0200000000000031                   17.57      20.079999999999998
   320   1      5.0200000000000031      18.824999999999999      21.334999999999997
   321   1      6.2750000000000021                   17.57      21.334999999999997
   322   1      6.2750000000000021      18.824999999999999      20.079999999999998
   323   1      5.0200000000000031                   17.57                   22.59
   324   1      5.0200000000000031      18.824999999999999      23.844999999999999
   325   1      6.2750000000000021                   17.57      23.844999999999999
   326   1      6.2750000000000021      18.824999999999999                   22.59
   327   1      5.0200000000000031                   17.57      25.100000000000001
   328   1      5.0200000000000031      18.824999999999999      26.354999999999997
   329   1      6.2750000000000021                   17.57      26.354999999999997
   330   1      6.2750000000000021      18.824999999999999      25.100000000000001
   331   1      5.0200000000000031                   17.57      27.609999999999999
   332   1      5.0200000000000031      18.824999999999999      28.864999999999998
   333   1      6.2750000000000021                   17.57      28.864999999999998
   334   1      6.2750000000000021      18.824999999999999      27.609999999999999
   335   1      5.0200000000000031                   17.57      30.120000000000001
   336   1      5.0200000000000031      18.824999999999999                  31.375
   337   1      6.2750000000000021                   17.57                  31.375
   338   1      6.2750000000000021      18.824999999999999      30.120000000000001
   339   1      5.0200000000000031                   17.57      32.630000000000003
   340   1      5.0200000000000031      18.824999999999999      33.885000000000005
   341   1      6.2750000000000021                   17.57      33.885000000000005
   342   1      6.2750000000000021      18.824999999999999      32.630000000000003
   343   1      5.0200000000000031                   17.57      35.140000000000001
   344   1      5.0200000000000031      18.824999999999999      36.395000000000003
   345   1      6.2750000000000021                   17.57      36.395000000000003
   346   1      6.2750000000000021      18.824999999999999      35.140000000000001
   347   1      5.0200000000000031                   17.57      37.649999999999999
   348   1      5.0200000000000031      18.824999999999999      38.905000000000001
   349   1      6.2750000000000021                   17.57      38.905000000000001
   350   1      6.2750000000000021      18.824999999999999      37.649999999999999
   351   1      5.0200000000000031                   17.57      40.159999999999997
   352   1      5.0200000000000031      18.824999999999999      41.414999999999999
   353   1      6.2750000000000021                   17.57      41.414999999999999
   354   1      6.2750000000000021      18.824999999999999      40.159999999999997
   355   1      5.0200000000000031                   17.57      42.669999999999995
   356   1      5.0200000000000031      18.824999999999999      43.924999999999997
   357   1      6.2750000000000021                   17.57      43.924999999999997
   358   1      6.2750000000000021      18.824999999999999      42.669999999999995