model_files/PdCo/PdCo_30000/PdCo_411/PdCo_411_fcc_29957_temp.data (written by ASE) 

29957 	 atoms 
2  atom types
0.0                      91  xlo xhi
0.0                      91  ylo yhi
0.0                      91  zlo zhi


Atoms 

     1   1      1.8750000000000002                  39.375                      45
     2   1      1.8750000000000002      41.250000000000007                  43.125
     3   1      1.8750000000000002                  43.125      41.250000000000007
     4   1      1.8750000000000002      41.250000000000007      46.875000000000007
     5   1      1.8750000000000002                  43.125                      45
     6   1      1.8750000000000002                  43.125      48.750000000000007
     7   1      1.8750000000000002                      45                  39.375
     8   1      1.8750000000000002                      45                  43.125
     9   1      1.8750000000000002      46.875000000000007      41.250000000000007
    10   1                       0                      45                      45
    11   1      1.8750000000000002                      45      46.875000000000007
    12   1      1.8750000000000002      46.875000000000007                      45
    13   1      1.8750000000000002                      45                  50.625
    14   1      1.8750000000000002      46.875000000000007      48.750000000000007
    15   1      1.8750000000000002      48.750000000000007                  43.125
    16   1      1.8750000000000002      48.750000000000007      46.875000000000007
    17   1      1.8750000000000002                  50.625                      45
    18   1                   5.625      24.375000000000004                      45
    19   1                   5.625      26.250000000000004                  43.125
    20   1                   5.625                  28.125      41.250000000000007
    21   1                   5.625      26.250000000000004      46.875000000000007
    22   1                   5.625                  28.125                      45
    23   1                   5.625                  28.125      48.750000000000007
    24   1                   5.625      30.000000000000004                  39.375
    25   1                   5.625      31.875000000000004                    37.5
    26   1      3.7500000000000004      31.875000000000004                  43.125
    27   1                   5.625      30.000000000000004                  43.125
    28   1                   5.625      31.875000000000004      41.250000000000007
    29   1      3.7500000000000004      30.000000000000004                      45
    30   1      3.7500000000000004      31.875000000000004      46.875000000000007
    31   1                   5.625      30.000000000000004      46.875000000000007
    32   1                   5.625      31.875000000000004                      45
    33   1                   5.625      30.000000000000004                  50.625
    34   1                   5.625      31.875000000000004      48.750000000000007
    35   1                   5.625      31.875000000000004      52.500000000000007
    36   1                   5.625                   33.75      35.625000000000007
    37   1                   5.625      35.625000000000007                   33.75
    38   1      3.7500000000000004      35.625000000000007                  39.375
    39   1                   5.625                   33.75                  39.375
    40   1                   5.625      35.625000000000007                    37.5
    41   1      3.7500000000000004                   33.75      41.250000000000007
    42   1      3.7500000000000004      35.625000000000007                  43.125
    43   1                   5.625                   33.75                  43.125
    44   1                   5.625      35.625000000000007      41.250000000000007
    45   1      3.7500000000000004                   33.75                      45
    46   1      3.7500000000000004      35.625000000000007      46.875000000000007
    47   1                   5.625                   33.75      46.875000000000007
    48   1                   5.625      35.625000000000007                      45
    49   1      3.7500000000000004                   33.75      48.750000000000007
    50   1      3.7500000000000004      35.625000000000007                  50.625
    51   1                   5.625                   33.75                  50.625
    52   1                   5.625      35.625000000000007      48.750000000000007
    53   1                   5.625                   33.75      54.375000000000007
    54   1                   5.625      35.625000000000007      52.500000000000007
    55   1                   5.625      35.625000000000007                   56.25
    56   1                   5.625                    37.5      31.875000000000004
    57   1                   5.625                  39.375      30.000000000000004
    58   1      3.7500000000000004                  39.375      35.625000000000007
    59   1                   5.625                    37.5      35.625000000000007
    60   1                   5.625                  39.375                   33.75
    61   1      3.7500000000000004                    37.5                    37.5
    62   1      3.7500000000000004                  39.375                  39.375
    63   1                   5.625                    37.5                  39.375
    64   1                   5.625                  39.375                    37.5
    65   1      3.7500000000000004                    37.5      41.250000000000007
    66   1      3.7500000000000004                  39.375                  43.125
    67   1                   5.625                    37.5                  43.125
    68   1                   5.625                  39.375      41.250000000000007
    69   1      3.7500000000000004                    37.5                      45
    70   1      3.7500000000000004                  39.375      46.875000000000007
    71   1                   5.625                    37.5      46.875000000000007
    72   1                   5.625                  39.375                      45
    73   1      3.7500000000000004                    37.5      48.750000000000007
    74   1      3.7500000000000004                  39.375                  50.625
    75   1                   5.625                    37.5                  50.625
    76   1                   5.625                  39.375      48.750000000000007
    77   1      3.7500000000000004                    37.5      52.500000000000007
    78   1      3.7500000000000004                  39.375      54.375000000000007
    79   1                   5.625                    37.5      54.375000000000007
    80   1                   5.625                  39.375      52.500000000000007
    81   1                   5.625                    37.5      58.125000000000007
    82   1                   5.625                  39.375                   56.25
    83   1                   5.625                  39.375      60.000000000000007
    84   1                   5.625      41.250000000000007                  28.125
    85   1                   5.625                  43.125      26.250000000000004
    86   1      3.7500000000000004                  43.125      31.875000000000004
    87   1                   5.625      41.250000000000007      31.875000000000004
    88   1                   5.625                  43.125      30.000000000000004
    89   1      3.7500000000000004      41.250000000000007                   33.75
    90   1      3.7500000000000004                  43.125      35.625000000000007
    91   1                   5.625      41.250000000000007      35.625000000000007
    92   1                   5.625                  43.125                   33.75
    93   1      3.7500000000000004      41.250000000000007                    37.5
    94   1      3.7500000000000004                  43.125                  39.375
    95   1                   5.625      41.250000000000007                  39.375
    96   1                   5.625                  43.125                    37.5
    97   1      3.7500000000000004      41.250000000000007      41.250000000000007
    98   1      3.7500000000000004                  43.125                  43.125
    99   1                   5.625      41.250000000000007                  43.125
   100   1                   5.625                  43.125      41.250000000000007
   101   1      3.7500000000000004      41.250000000000007                      45
   102   1      3.7500000000000004                  43.125      46.875000000000007
   103   1                   5.625      41.250000000000007      46.875000000000007
   104   1                   5.625                  43.125                      45
   105   1      3.7500000000000004      41.250000000000007      48.750000000000007
   106   1      3.7500000000000004                  43.125                  50.625
   107   1                   5.625      41.250000000000007                  50.625
   108   1                   5.625                  43.125      48.750000000000007
   109   1      3.7500000000000004      41.250000000000007      52.500000000000007
   110   1      3.7500000000000004                  43.125      54.375000000000007
   111   1                   5.625      41.250000000000007      54.375000000000007
   112   1                   5.625                  43.125      52.500000000000007
   113   1      3.7500000000000004      41.250000000000007                   56.25
   114   1      3.7500000000000004                  43.125      58.125000000000007
   115   1                   5.625      41.250000000000007      58.125000000000007
   116   1                   5.625                  43.125                   56.25
   117   1                   5.625      41.250000000000007                  61.875
   118   1                   5.625                  43.125      60.000000000000007
   119   1                   5.625                  43.125      63.750000000000007
   120   1                   5.625                      45      24.375000000000004
   121   1                   5.625                      45                  28.125
   122   1                   5.625      46.875000000000007      26.250000000000004
   123   1      3.7500000000000004                      45      30.000000000000004
   124   1      3.7500000000000004      46.875000000000007      31.875000000000004
   125   1                   5.625                      45      31.875000000000004
   126   1                   5.625      46.875000000000007      30.000000000000004
   127   1      3.7500000000000004                      45                   33.75
   128   1      3.7500000000000004      46.875000000000007      35.625000000000007
   129   1                   5.625                      45      35.625000000000007
   130   1                   5.625      46.875000000000007                   33.75
   131   1      3.7500000000000004                      45                    37.5
   132   1      3.7500000000000004      46.875000000000007                  39.375
   133   1                   5.625                      45                  39.375
   134   1                   5.625      46.875000000000007                    37.5
   135   1      3.7500000000000004                      45      41.250000000000007
   136   1      3.7500000000000004      46.875000000000007                  43.125
   137   1                   5.625                      45                  43.125
   138   1                   5.625      46.875000000000007      41.250000000000007
   139   1      3.7500000000000004                      45                      45
   140   1      3.7500000000000004      46.875000000000007      46.875000000000007
   141   1                   5.625                      45      46.875000000000007
   142   1                   5.625      46.875000000000007                      45
   143   1      3.7500000000000004                      45      48.750000000000007
   144   1      3.7500000000000004      46.875000000000007                  50.625
   145   1                   5.625                      45                  50.625
   146   1                   5.625      46.875000000000007      48.750000000000007
   147   1      3.7500000000000004                      45      52.500000000000007
   148   1      3.7500000000000004      46.875000000000007      54.375000000000007
   149   1                   5.625                      45      54.375000000000007
   150   1                   5.625      46.875000000000007      52.500000000000007
   151   1      3.7500000000000004                      45                   56.25
   152   1      3.7500000000000004      46.875000000000007      58.125000000000007
   153   1                   5.625                      45      58.125000000000007
   154   1                   5.625      46.875000000000007                   56.25
   155   1      3.7500000000000004                      45      60.000000000000007
   156   1                   5.625                      45                  61.875
   157   1                   5.625      46.875000000000007      60.000000000000007
   158   1                   5.625                      45      65.625000000000014
   159   1                   5.625      46.875000000000007      63.750000000000007
   160   1                   5.625      48.750000000000007                  28.125
   161   1                   5.625      48.750000000000007      31.875000000000004
   162   1                   5.625                  50.625      30.000000000000004
   163   1      3.7500000000000004      48.750000000000007                   33.75
   164   1      3.7500000000000004                  50.625      35.625000000000007
   165   1                   5.625      48.750000000000007      35.625000000000007
   166   1                   5.625                  50.625                   33.75
   167   1      3.7500000000000004      48.750000000000007                    37.5
   168   1      3.7500000000000004                  50.625                  39.375
   169   1                   5.625      48.750000000000007                  39.375
   170   1                   5.625                  50.625                    37.5
   171   1      3.7500000000000004      48.750000000000007      41.250000000000007
   172   1      3.7500000000000004                  50.625                  43.125
   173   1                   5.625      48.750000000000007                  43.125
   174   1                   5.625                  50.625      41.250000000000007
   175   1      3.7500000000000004      48.750000000000007                      45
   176   1      3.7500000000000004                  50.625      46.875000000000007
   177   1                   5.625      48.750000000000007      46.875000000000007
   178   1                   5.625                  50.625                      45
   179   1      3.7500000000000004      48.750000000000007      48.750000000000007
   180   1      3.7500000000000004                  50.625                  50.625
   181   1                   5.625      48.750000000000007                  50.625
   182   1                   5.625                  50.625      48.750000000000007
   183   1      3.7500000000000004      48.750000000000007      52.500000000000007
   184   1      3.7500000000000004                  50.625      54.375000000000007
   185   1                   5.625      48.750000000000007      54.375000000000007
   186   1                   5.625                  50.625      52.500000000000007
   187   1      3.7500000000000004      48.750000000000007                   56.25
   188   1                   5.625      48.750000000000007      58.125000000000007
   189   1                   5.625                  50.625                   56.25
   190   1                   5.625      48.750000000000007                  61.875
   191   1                   5.625                  50.625      60.000000000000007
   192   1                   5.625      52.500000000000007      31.875000000000004
   193   1                   5.625      52.500000000000007      35.625000000000007
   194   1                   5.625      54.375000000000007                   33.75
   195   1      3.7500000000000004      52.500000000000007                    37.5
   196   1      3.7500000000000004      54.375000000000007                  39.375
   197   1                   5.625      52.500000000000007                  39.375
   198   1                   5.625      54.375000000000007                    37.5
   199   1      3.7500000000000004      52.500000000000007      41.250000000000007
   200   1      3.7500000000000004      54.375000000000007                  43.125
   201   1                   5.625      52.500000000000007                  43.125
   202   1                   5.625      54.375000000000007      41.250000000000007
   203   1      3.7500000000000004      52.500000000000007                      45
   204   1      3.7500000000000004      54.375000000000007      46.875000000000007
   205   1                   5.625      52.500000000000007      46.875000000000007
   206   1                   5.625      54.375000000000007                      45
   207   1      3.7500000000000004      52.500000000000007      48.750000000000007
   208   1      3.7500000000000004      54.375000000000007                  50.625
   209   1                   5.625      52.500000000000007                  50.625
   210   1                   5.625      54.375000000000007      48.750000000000007
   211   1      3.7500000000000004      52.500000000000007      52.500000000000007
   212   1                   5.625      52.500000000000007      54.375000000000007
   213   1                   5.625      54.375000000000007      52.500000000000007
   214   1                   5.625      52.500000000000007      58.125000000000007
   215   1                   5.625      54.375000000000007                   56.25
   216   1                   5.625                   56.25      35.625000000000007
   217   1                   5.625                   56.25                  39.375
   218   1                   5.625      58.125000000000007                    37.5
   219   1      3.7500000000000004                   56.25      41.250000000000007
   220   1      3.7500000000000004      58.125000000000007                  43.125
   221   1                   5.625                   56.25                  43.125
   222   1                   5.625      58.125000000000007      41.250000000000007
   223   1      3.7500000000000004                   56.25                      45
   224   1      3.7500000000000004      58.125000000000007      46.875000000000007
   225   1                   5.625                   56.25      46.875000000000007
   226   1                   5.625      58.125000000000007                      45
   227   1      3.7500000000000004                   56.25      48.750000000000007
   228   1                   5.625                   56.25                  50.625
   229   1                   5.625      58.125000000000007      48.750000000000007
   230   1                   5.625                   56.25      54.375000000000007
   231   1                   5.625      58.125000000000007      52.500000000000007
   232   1                   5.625      60.000000000000007                  39.375
   233   1                   5.625      60.000000000000007                  43.125
   234   1                   5.625                  61.875      41.250000000000007
   235   1      3.7500000000000004      60.000000000000007                      45
   236   1                   5.625      60.000000000000007      46.875000000000007
   237   1                   5.625                  61.875                      45
   238   1                   5.625      60.000000000000007                  50.625
   239   1                   5.625                  61.875      48.750000000000007
   240   1                   5.625      63.750000000000007                  43.125
   241   1                   5.625      63.750000000000007      46.875000000000007
   242   1                   5.625      65.625000000000014                      45
   243   1                   9.375                   9.375                      45
   244   1                   9.375                   11.25                  43.125
   245   1                   9.375      13.125000000000002      41.250000000000007
   246   1                   9.375                   11.25      46.875000000000007
   247   1                   9.375      13.125000000000002                      45
   248   1                   9.375      13.125000000000002      48.750000000000007
   249   1                   9.375      15.000000000000002                  39.375
   250   1                   9.375                  16.875                    37.5
   251   1      7.5000000000000009                  16.875                  43.125
   252   1                   9.375      15.000000000000002                  43.125
   253   1                   9.375                  16.875      41.250000000000007
   254   1      7.5000000000000009      15.000000000000002                      45
   255   1      7.5000000000000009                  16.875      46.875000000000007
   256   1                   9.375      15.000000000000002      46.875000000000007
   257   1                   9.375                  16.875                      45
   258   1                   9.375      15.000000000000002                  50.625
   259   1                   9.375                  16.875      48.750000000000007
   260   1                   9.375                  16.875      52.500000000000007
   261   1                   9.375                   18.75      35.625000000000007
   262   1                   9.375      20.625000000000004                   33.75
   263   1      7.5000000000000009      20.625000000000004                  39.375
   264   1                   9.375                   18.75                  39.375
   265   1                   9.375      20.625000000000004                    37.5
   266   1      7.5000000000000009                   18.75      41.250000000000007
   267   1      7.5000000000000009      20.625000000000004                  43.125
   268   1                   9.375                   18.75                  43.125
   269   1                   9.375      20.625000000000004      41.250000000000007
   270   1      7.5000000000000009                   18.75                      45
   271   1      7.5000000000000009      20.625000000000004      46.875000000000007
   272   1                   9.375                   18.75      46.875000000000007
   273   1                   9.375      20.625000000000004                      45
   274   1      7.5000000000000009                   18.75      48.750000000000007
   275   1      7.5000000000000009      20.625000000000004                  50.625
   276   1                   9.375                   18.75                  50.625
   277   1                   9.375      20.625000000000004      48.750000000000007
   278   1                   9.375                   18.75      54.375000000000007
   279   1                   9.375      20.625000000000004      52.500000000000007
   280   1                   9.375      20.625000000000004                   56.25
   281   1                   9.375                    22.5      31.875000000000004
   282   1                   9.375      24.375000000000004      30.000000000000004
   283   1      7.5000000000000009      24.375000000000004      35.625000000000007
   284   1                   9.375                    22.5      35.625000000000007
   285   1                   9.375      24.375000000000004                   33.75
   286   1      7.5000000000000009                    22.5                    37.5
   287   1      7.5000000000000009      24.375000000000004                  39.375
   288   1                   9.375                    22.5                  39.375
   289   1                   9.375      24.375000000000004                    37.5
   290   1      7.5000000000000009                    22.5      41.250000000000007
   291   1      7.5000000000000009      24.375000000000004                  43.125
   292   1                   9.375                    22.5                  43.125
   293   1                   9.375      24.375000000000004      41.250000000000007
   294   1      7.5000000000000009                    22.5                      45
   295   1      7.5000000000000009      24.375000000000004      46.875000000000007
   296   1                   9.375                    22.5      46.875000000000007
   297   1                   9.375      24.375000000000004                      45
   298   1      7.5000000000000009                    22.5      48.750000000000007
   299   1      7.5000000000000009      24.375000000000004                  50.625
   300   1                   9.375                    22.5                  50.625
   301   1                   9.375      24.375000000000004      48.750000000000007
   302   1      7.5000000000000009                    22.5      52.500000000000007
   303   1      7.5000000000000009      24.375000000000004      54.375000000000007
   304   1                   9.375                    22.5      54.375000000000007
   305   1                   9.375      24.375000000000004      52.500000000000007
   306   1                   9.375                    22.5      58.125000000000007
   307   1                   9.375      24.375000000000004                   56.25
   308   1                   9.375      24.375000000000004      60.000000000000007
   309   1                   9.375      26.250000000000004                  28.125
   310   1                   9.375                  28.125      26.250000000000004
   311   1      7.5000000000000009                  28.125      31.875000000000004
   312   1                   9.375      26.250000000000004      31.875000000000004
   313   1                   9.375                  28.125      30.000000000000004
   314   1      7.5000000000000009      26.250000000000004                   33.75
   315   1      7.5000000000000009                  28.125      35.625000000000007
   316   1                   9.375      26.250000000000004      35.625000000000007
   317   1                   9.375                  28.125                   33.75
   318   1      7.5000000000000009      26.250000000000004                    37.5
   319   1      7.5000000000000009                  28.125                  39.375
   320   1                   9.375      26.250000000000004                  39.375
   321   1                   9.375                  28.125                    37.5
   322   1      7.5000000000000009      26.250000000000004      41.250000000000007
   323   1      7.5000000000000009                  28.125                  43.125
   324   1                   9.375      26.250000000000004                  43.125
   325   1                   9.375                  28.125      41.250000000000007
   326   1      7.5000000000000009      26.250000000000004                      45
   327   1      7.5000000000000009                  28.125      46.875000000000007
   328   1                   9.375      26.250000000000004      46.875000000000007
   329   1                   9.375                  28.125                      45
   330   1      7.5000000000000009      26.250000000000004      48.750000000000007
   331   1      7.5000000000000009                  28.125                  50.625
   332   1                   9.375      26.250000000000004                  50.625
   333   1                   9.375                  28.125      48.750000000000007
   334   1      7.5000000000000009      26.250000000000004      52.500000000000007
   335   1      7.5000000000000009                  28.125      54.375000000000007
   336   1                   9.375      26.250000000000004      54.375000000000007
   337   1                   9.375                  28.125      52.500000000000007
   338   1      7.5000000000000009      26.250000000000004                   56.25
   339   1      7.5000000000000009                  28.125      58.125000000000007
   340   1                   9.375      26.250000000000004      58.125000000000007
   341   1                   9.375                  28.125                   56.25
   342   1                   9.375      26.250000000000004                  61.875
   343   1                   9.375                  28.125      60.000000000000007
   344   1                   9.375                  28.125      63.750000000000007
   345   1                   9.375      30.000000000000004      24.375000000000004
   346   1                   9.375      31.875000000000004                    22.5
   347   1      7.5000000000000009      31.875000000000004                  28.125
   348   1                   9.375      30.000000000000004                  28.125
   349   1                   9.375      31.875000000000004      26.250000000000004
   350   1      7.5000000000000009      30.000000000000004      30.000000000000004
   351   1      7.5000000000000009      31.875000000000004      31.875000000000004
   352   1                   9.375      30.000000000000004      31.875000000000004
   353   1                   9.375      31.875000000000004      30.000000000000004
   354   1      7.5000000000000009      30.000000000000004                   33.75
   355   1      7.5000000000000009      31.875000000000004      35.625000000000007
   356   1                   9.375      30.000000000000004      35.625000000000007
   357   1                   9.375      31.875000000000004                   33.75
   358   1      7.5000000000000009      30.000000000000004                    37.5