model_files/NiCoCrFeMn/NiCoCrFeMn_30000/NiCoCrFeMn_510/NiCoCrFeMn_510_fcc_29899_temp.data (written by ASE) 

29899 	 atoms 
5  atom types
0.0                      81  xlo xhi
0.0                      81  ylo yhi
0.0                      81  zlo zhi


Atoms 

     1   1      1.7974999999999994      30.557500000000005      32.355000000000004
     2   1      1.7974999999999994      30.557500000000005      35.949999999999996
     3   1      1.7974999999999994      30.557500000000005      39.544999999999995
     4   1      1.7974999999999994      30.557500000000005      43.140000000000001
     5   1      1.7974999999999994      30.557500000000005      46.734999999999999
     6   1      1.7974999999999994      32.355000000000004      30.557500000000005
     7   1      1.7974999999999994      32.355000000000004      34.152500000000003
     8   1      1.7974999999999994      34.152500000000003      32.355000000000004
     9   1      1.7974999999999994      32.355000000000004      37.747499999999995
    10   1      1.7974999999999994      34.152500000000003      35.949999999999996
    11   1      1.7974999999999994      32.355000000000004      41.342500000000001
    12   1      1.7974999999999994      34.152500000000003      39.544999999999995
    13   1      1.7974999999999994      32.355000000000004                 44.9375
    14   1      1.7974999999999994      34.152500000000003      43.140000000000001
    15   1      1.7974999999999994      32.355000000000004      48.532500000000006
    16   1      1.7974999999999994      34.152500000000003      46.734999999999999
    17   1      1.7974999999999994      35.949999999999996      30.557500000000005
    18   1      1.7974999999999994      35.949999999999996      34.152500000000003
    19   1      1.7974999999999994      37.747499999999995      32.355000000000004
    20   1      1.7974999999999994      35.949999999999996      37.747499999999995
    21   1      1.7974999999999994      37.747499999999995      35.949999999999996
    22   1      1.7974999999999994      35.949999999999996      41.342500000000001
    23   1      1.7974999999999994      37.747499999999995      39.544999999999995
    24   1      1.7974999999999994      35.949999999999996                 44.9375
    25   1      1.7974999999999994      37.747499999999995      43.140000000000001
    26   1      1.7974999999999994      35.949999999999996      48.532500000000006
    27   1      1.7974999999999994      37.747499999999995      46.734999999999999
    28   1      1.7974999999999994      39.544999999999995      30.557500000000005
    29   1      1.7974999999999994      39.544999999999995      34.152500000000003
    30   1      1.7974999999999994      41.342500000000001      32.355000000000004
    31   1      1.7974999999999994      39.544999999999995      37.747499999999995
    32   1      1.7974999999999994      41.342500000000001      35.949999999999996
    33   1                       0      39.544999999999995      39.544999999999995
    34   1      1.7974999999999994      39.544999999999995      41.342500000000001
    35   1      1.7974999999999994      41.342500000000001      39.544999999999995
    36   1      1.7974999999999994      39.544999999999995                 44.9375
    37   1      1.7974999999999994      41.342500000000001      43.140000000000001
    38   1      1.7974999999999994      39.544999999999995      48.532500000000006
    39   1      1.7974999999999994      41.342500000000001      46.734999999999999
    40   1      1.7974999999999994      43.140000000000001      30.557500000000005
    41   1      1.7974999999999994      43.140000000000001      34.152500000000003
    42   1      1.7974999999999994                 44.9375      32.355000000000004
    43   1      1.7974999999999994      43.140000000000001      37.747499999999995
    44   1      1.7974999999999994                 44.9375      35.949999999999996
    45   1      1.7974999999999994      43.140000000000001      41.342500000000001
    46   1      1.7974999999999994                 44.9375      39.544999999999995
    47   1      1.7974999999999994      43.140000000000001                 44.9375
    48   1      1.7974999999999994                 44.9375      43.140000000000001
    49   1      1.7974999999999994      43.140000000000001      48.532500000000006
    50   1      1.7974999999999994                 44.9375      46.734999999999999
    51   1      1.7974999999999994      46.734999999999999      30.557500000000005
    52   1      1.7974999999999994      46.734999999999999      34.152500000000003
    53   1      1.7974999999999994      48.532500000000006      32.355000000000004
    54   1      1.7974999999999994      46.734999999999999      37.747499999999995
    55   1      1.7974999999999994      48.532500000000006      35.949999999999996
    56   1      1.7974999999999994      46.734999999999999      41.342500000000001
    57   1      1.7974999999999994      48.532500000000006      39.544999999999995
    58   1      1.7974999999999994      46.734999999999999                 44.9375
    59   1      1.7974999999999994      48.532500000000006      43.140000000000001
    60   1      1.7974999999999994      46.734999999999999      48.532500000000006
    61   1      1.7974999999999994      48.532500000000006      46.734999999999999
    62   1      5.3924999999999983      12.582500000000003      14.380000000000003
    63   1      5.3924999999999983      12.582500000000003      17.974999999999998
    64   1      5.3924999999999983      12.582500000000003                   21.57
    65   1      5.3924999999999983      12.582500000000003      25.164999999999999
    66   1      5.3924999999999983      12.582500000000003      28.760000000000005
    67   1      5.3924999999999983      12.582500000000003      32.355000000000004
    68   1      5.3924999999999983      12.582500000000003      35.949999999999996
    69   1      5.3924999999999983      12.582500000000003      39.544999999999995
    70   1      5.3924999999999983      12.582500000000003      43.140000000000001
    71   1      5.3924999999999983      12.582500000000003      46.734999999999999
    72   1      5.3924999999999983      12.582500000000003      50.329999999999998
    73   1      5.3924999999999983      12.582500000000003      53.924999999999997
    74   1      5.3924999999999983      12.582500000000003      57.520000000000003
    75   1      5.3924999999999983      12.582500000000003      61.115000000000009
    76   1      5.3924999999999983      12.582500000000003      64.710000000000008
    77   1      5.3924999999999983      14.380000000000003      12.582500000000003
    78   1      5.3924999999999983      14.380000000000003      16.177500000000002
    79   1      5.3924999999999983      16.177500000000002      14.380000000000003
    80   1      5.3924999999999983      14.380000000000003      19.772499999999997
    81   1      5.3924999999999983      16.177500000000002      17.974999999999998
    82   1      5.3924999999999983      14.380000000000003                 23.3675
    83   1      5.3924999999999983      16.177500000000002                   21.57
    84   1      5.3924999999999983      14.380000000000003      26.962499999999999
    85   1      5.3924999999999983      16.177500000000002      25.164999999999999
    86   1      5.3924999999999983      14.380000000000003      30.557500000000005
    87   1      5.3924999999999983      16.177500000000002      28.760000000000005
    88   1      5.3924999999999983      14.380000000000003      34.152500000000003
    89   1      5.3924999999999983      16.177500000000002      32.355000000000004
    90   1      5.3924999999999983      14.380000000000003      37.747499999999995
    91   1      5.3924999999999983      16.177500000000002      35.949999999999996
    92   1      5.3924999999999983      14.380000000000003      41.342500000000001
    93   1      5.3924999999999983      16.177500000000002      39.544999999999995
    94   1      5.3924999999999983      14.380000000000003                 44.9375
    95   1      5.3924999999999983      16.177500000000002      43.140000000000001
    96   1      5.3924999999999983      14.380000000000003      48.532500000000006
    97   1      5.3924999999999983      16.177500000000002      46.734999999999999
    98   1      5.3924999999999983      14.380000000000003      52.127500000000005
    99   1      5.3924999999999983      16.177500000000002      50.329999999999998
   100   1      5.3924999999999983      14.380000000000003      55.722500000000004
   101   1      5.3924999999999983      16.177500000000002      53.924999999999997
   102   1      5.3924999999999983      14.380000000000003      59.317499999999995
   103   1      5.3924999999999983      16.177500000000002      57.520000000000003
   104   1      5.3924999999999983      14.380000000000003      62.912500000000001
   105   1      5.3924999999999983      16.177500000000002      61.115000000000009
   106   1      5.3924999999999983      14.380000000000003      66.507500000000007
   107   1      5.3924999999999983      16.177500000000002      64.710000000000008
   108   1      5.3924999999999983      17.974999999999998      12.582500000000003
   109   1      5.3924999999999983      17.974999999999998      16.177500000000002
   110   1      5.3924999999999983      19.772499999999997      14.380000000000003
   111   1      5.3924999999999983      17.974999999999998      19.772499999999997
   112   1      5.3924999999999983      19.772499999999997      17.974999999999998
   113   1      5.3924999999999983      17.974999999999998                 23.3675
   114   1      5.3924999999999983      19.772499999999997                   21.57
   115   1      5.3924999999999983      17.974999999999998      26.962499999999999
   116   1      5.3924999999999983      19.772499999999997      25.164999999999999
   117   1      5.3924999999999983      17.974999999999998      30.557500000000005
   118   1      5.3924999999999983      19.772499999999997      28.760000000000005
   119   1      5.3924999999999983      17.974999999999998      34.152500000000003
   120   1      5.3924999999999983      19.772499999999997      32.355000000000004
   121   1      5.3924999999999983      17.974999999999998      37.747499999999995
   122   1      5.3924999999999983      19.772499999999997      35.949999999999996
   123   1      5.3924999999999983      17.974999999999998      41.342500000000001
   124   1      5.3924999999999983      19.772499999999997      39.544999999999995
   125   1      5.3924999999999983      17.974999999999998                 44.9375
   126   1      5.3924999999999983      19.772499999999997      43.140000000000001
   127   1      5.3924999999999983      17.974999999999998      48.532500000000006
   128   1      5.3924999999999983      19.772499999999997      46.734999999999999
   129   1      5.3924999999999983      17.974999999999998      52.127500000000005
   130   1      5.3924999999999983      19.772499999999997      50.329999999999998
   131   1      5.3924999999999983      17.974999999999998      55.722500000000004
   132   1      5.3924999999999983      19.772499999999997      53.924999999999997
   133   1      5.3924999999999983      17.974999999999998      59.317499999999995
   134   1      5.3924999999999983      19.772499999999997      57.520000000000003
   135   1      5.3924999999999983      17.974999999999998      62.912500000000001
   136   1      5.3924999999999983      19.772499999999997      61.115000000000009
   137   1      5.3924999999999983      17.974999999999998      66.507500000000007
   138   1      5.3924999999999983      19.772499999999997      64.710000000000008
   139   1      5.3924999999999983                   21.57      12.582500000000003
   140   1      5.3924999999999983                   21.57      16.177500000000002
   141   1      5.3924999999999983                 23.3675      14.380000000000003
   142   1      5.3924999999999983                   21.57      19.772499999999997
   143   1      5.3924999999999983                 23.3675      17.974999999999998
   144   1      3.5949999999999989                   21.57                   21.57
   145   1      3.5949999999999989                 23.3675                 23.3675
   146   1      5.3924999999999983                   21.57                 23.3675
   147   1      5.3924999999999983                 23.3675                   21.57
   148   1      3.5949999999999989                   21.57      25.164999999999999
   149   1      3.5949999999999989                 23.3675      26.962499999999999
   150   1      5.3924999999999983                   21.57      26.962499999999999
   151   1      5.3924999999999983                 23.3675      25.164999999999999
   152   1      3.5949999999999989                   21.57      28.760000000000005
   153   1      3.5949999999999989                 23.3675      30.557500000000005
   154   1      5.3924999999999983                   21.57      30.557500000000005
   155   1      5.3924999999999983                 23.3675      28.760000000000005
   156   1      3.5949999999999989                   21.57      32.355000000000004
   157   1      3.5949999999999989                 23.3675      34.152500000000003
   158   1      5.3924999999999983                   21.57      34.152500000000003
   159   1      5.3924999999999983                 23.3675      32.355000000000004
   160   1      3.5949999999999989                   21.57      35.949999999999996
   161   1      3.5949999999999989                 23.3675      37.747499999999995
   162   1      5.3924999999999983                   21.57      37.747499999999995
   163   1      5.3924999999999983                 23.3675      35.949999999999996
   164   1      3.5949999999999989                   21.57      39.544999999999995
   165   1      3.5949999999999989                 23.3675      41.342500000000001
   166   1      5.3924999999999983                   21.57      41.342500000000001
   167   1      5.3924999999999983                 23.3675      39.544999999999995
   168   1      3.5949999999999989                   21.57      43.140000000000001
   169   1      3.5949999999999989                 23.3675                 44.9375
   170   1      5.3924999999999983                   21.57                 44.9375
   171   1      5.3924999999999983                 23.3675      43.140000000000001
   172   1      3.5949999999999989                   21.57      46.734999999999999
   173   1      3.5949999999999989                 23.3675      48.532500000000006
   174   1      5.3924999999999983                   21.57      48.532500000000006
   175   1      5.3924999999999983                 23.3675      46.734999999999999
   176   1      3.5949999999999989                   21.57      50.329999999999998
   177   1      3.5949999999999989                 23.3675      52.127500000000005
   178   1      5.3924999999999983                   21.57      52.127500000000005
   179   1      5.3924999999999983                 23.3675      50.329999999999998
   180   1      3.5949999999999989                   21.57      53.924999999999997
   181   1      3.5949999999999989                 23.3675      55.722500000000004
   182   1      5.3924999999999983                   21.57      55.722500000000004
   183   1      5.3924999999999983                 23.3675      53.924999999999997
   184   1      3.5949999999999989                   21.57      57.520000000000003
   185   1      5.3924999999999983                   21.57      59.317499999999995
   186   1      5.3924999999999983                 23.3675      57.520000000000003
   187   1      5.3924999999999983                   21.57      62.912500000000001
   188   1      5.3924999999999983                 23.3675      61.115000000000009
   189   1      5.3924999999999983                   21.57      66.507500000000007
   190   1      5.3924999999999983                 23.3675      64.710000000000008
   191   1      5.3924999999999983      25.164999999999999      12.582500000000003
   192   1      5.3924999999999983      25.164999999999999      16.177500000000002
   193   1      5.3924999999999983      26.962499999999999      14.380000000000003
   194   1      5.3924999999999983      25.164999999999999      19.772499999999997
   195   1      5.3924999999999983      26.962499999999999      17.974999999999998
   196   1      3.5949999999999989      25.164999999999999                   21.57
   197   1      3.5949999999999989      26.962499999999999                 23.3675
   198   1      5.3924999999999983      25.164999999999999                 23.3675
   199   1      5.3924999999999983      26.962499999999999                   21.57
   200   1      3.5949999999999989      25.164999999999999      25.164999999999999
   201   1      3.5949999999999989      26.962499999999999      26.962499999999999
   202   1      5.3924999999999983      25.164999999999999      26.962499999999999
   203   1      5.3924999999999983      26.962499999999999      25.164999999999999
   204   1      3.5949999999999989      25.164999999999999      28.760000000000005
   205   1      3.5949999999999989      26.962499999999999      30.557500000000005
   206   1      5.3924999999999983      25.164999999999999      30.557500000000005
   207   1      5.3924999999999983      26.962499999999999      28.760000000000005
   208   1      3.5949999999999989      25.164999999999999      32.355000000000004
   209   1      3.5949999999999989      26.962499999999999      34.152500000000003
   210   1      5.3924999999999983      25.164999999999999      34.152500000000003
   211   1      5.3924999999999983      26.962499999999999      32.355000000000004
   212   1      3.5949999999999989      25.164999999999999      35.949999999999996
   213   1      3.5949999999999989      26.962499999999999      37.747499999999995
   214   1      5.3924999999999983      25.164999999999999      37.747499999999995
   215   1      5.3924999999999983      26.962499999999999      35.949999999999996
   216   1      3.5949999999999989      25.164999999999999      39.544999999999995
   217   1      3.5949999999999989      26.962499999999999      41.342500000000001
   218   1      5.3924999999999983      25.164999999999999      41.342500000000001
   219   1      5.3924999999999983      26.962499999999999      39.544999999999995
   220   1      3.5949999999999989      25.164999999999999      43.140000000000001
   221   1      3.5949999999999989      26.962499999999999                 44.9375
   222   1      5.3924999999999983      25.164999999999999                 44.9375
   223   1      5.3924999999999983      26.962499999999999      43.140000000000001
   224   1      3.5949999999999989      25.164999999999999      46.734999999999999
   225   1      3.5949999999999989      26.962499999999999      48.532500000000006
   226   1      5.3924999999999983      25.164999999999999      48.532500000000006
   227   1      5.3924999999999983      26.962499999999999      46.734999999999999
   228   1      3.5949999999999989      25.164999999999999      50.329999999999998
   229   1      3.5949999999999989      26.962499999999999      52.127500000000005
   230   1      5.3924999999999983      25.164999999999999      52.127500000000005
   231   1      5.3924999999999983      26.962499999999999      50.329999999999998
   232   1      3.5949999999999989      25.164999999999999      53.924999999999997
   233   1      3.5949999999999989      26.962499999999999      55.722500000000004
   234   1      5.3924999999999983      25.164999999999999      55.722500000000004
   235   1      5.3924999999999983      26.962499999999999      53.924999999999997
   236   1      3.5949999999999989      25.164999999999999      57.520000000000003
   237   1      5.3924999999999983      25.164999999999999      59.317499999999995
   238   1      5.3924999999999983      26.962499999999999      57.520000000000003
   239   1      5.3924999999999983      25.164999999999999      62.912500000000001
   240   1      5.3924999999999983      26.962499999999999      61.115000000000009
   241   1      5.3924999999999983      25.164999999999999      66.507500000000007
   242   1      5.3924999999999983      26.962499999999999      64.710000000000008
   243   1      5.3924999999999983      28.760000000000005      12.582500000000003
   244   1      5.3924999999999983      28.760000000000005      16.177500000000002
   245   1      5.3924999999999983      30.557500000000005      14.380000000000003
   246   1      5.3924999999999983      28.760000000000005      19.772499999999997
   247   1      5.3924999999999983      30.557500000000005      17.974999999999998
   248   1      3.5949999999999989      28.760000000000005                   21.57
   249   1      3.5949999999999989      30.557500000000005                 23.3675
   250   1      5.3924999999999983      28.760000000000005                 23.3675
   251   1      5.3924999999999983      30.557500000000005                   21.57
   252   1      3.5949999999999989      28.760000000000005      25.164999999999999
   253   1      3.5949999999999989      30.557500000000005      26.962499999999999
   254   1      5.3924999999999983      28.760000000000005      26.962499999999999
   255   1      5.3924999999999983      30.557500000000005      25.164999999999999
   256   1      3.5949999999999989      28.760000000000005      28.760000000000005
   257   1      3.5949999999999989      30.557500000000005      30.557500000000005
   258   1      5.3924999999999983      28.760000000000005      30.557500000000005
   259   1      5.3924999999999983      30.557500000000005      28.760000000000005
   260   1      3.5949999999999989      28.760000000000005      32.355000000000004
   261   1      3.5949999999999989      30.557500000000005      34.152500000000003
   262   1      5.3924999999999983      28.760000000000005      34.152500000000003
   263   1      5.3924999999999983      30.557500000000005      32.355000000000004
   264   1      3.5949999999999989      28.760000000000005      35.949999999999996
   265   1      3.5949999999999989      30.557500000000005      37.747499999999995
   266   1      5.3924999999999983      28.760000000000005      37.747499999999995
   267   1      5.3924999999999983      30.557500000000005      35.949999999999996
   268   1      3.5949999999999989      28.760000000000005      39.544999999999995
   269   1      3.5949999999999989      30.557500000000005      41.342500000000001
   270   1      5.3924999999999983      28.760000000000005      41.342500000000001
   271   1      5.3924999999999983      30.557500000000005      39.544999999999995
   272   1      3.5949999999999989      28.760000000000005      43.140000000000001
   273   1      3.5949999999999989      30.557500000000005                 44.9375
   274   1      5.3924999999999983      28.760000000000005                 44.9375
   275   1      5.3924999999999983      30.557500000000005      43.140000000000001
   276   1      3.5949999999999989      28.760000000000005      46.734999999999999
   277   1      3.5949999999999989      30.557500000000005      48.532500000000006
   278   1      5.3924999999999983      28.760000000000005      48.532500000000006
   279   1      5.3924999999999983      30.557500000000005      46.734999999999999
   280   1      3.5949999999999989      28.760000000000005      50.329999999999998
   281   1      3.5949999999999989      30.557500000000005      52.127500000000005
   282   1      5.3924999999999983      28.760000000000005      52.127500000000005
   283   1      5.3924999999999983      30.557500000000005      50.329999999999998
   284   1      3.5949999999999989      28.760000000000005      53.924999999999997
   285   1      3.5949999999999989      30.557500000000005      55.722500000000004
   286   1      5.3924999999999983      28.760000000000005      55.722500000000004
   287   1      5.3924999999999983      30.557500000000005      53.924999999999997
   288   1      3.5949999999999989      28.760000000000005      57.520000000000003
   289   1      5.3924999999999983      28.760000000000005      59.317499999999995
   290   1      5.3924999999999983      30.557500000000005      57.520000000000003
   291   1      5.3924999999999983      28.760000000000005      62.912500000000001
   292   1      5.3924999999999983      30.557500000000005      61.115000000000009
   293   1      5.3924999999999983      28.760000000000005      66.507500000000007
   294   1      5.3924999999999983      30.557500000000005      64.710000000000008
   295   1      5.3924999999999983      32.355000000000004      12.582500000000003
   296   1      5.3924999999999983      32.355000000000004      16.177500000000002
   297   1      5.3924999999999983      34.152500000000003      14.380000000000003
   298   1      5.3924999999999983      32.355000000000004      19.772499999999997
   299   1      5.3924999999999983      34.152500000000003      17.974999999999998
   300   1      3.5949999999999989      32.355000000000004                   21.57
   301   1      3.5949999999999989      34.152500000000003                 23.3675
   302   1      5.3924999999999983      32.355000000000004                 23.3675
   303   1      5.3924999999999983      34.152500000000003                   21.57
   304   1      3.5949999999999989      32.355000000000004      25.164999999999999
   305   1      3.5949999999999989      34.152500000000003      26.962499999999999
   306   1      5.3924999999999983      32.355000000000004      26.962499999999999
   307   1      5.3924999999999983      34.152500000000003      25.164999999999999
   308   1      3.5949999999999989      32.355000000000004      28.760000000000005
   309   1      3.5949999999999989      34.152500000000003      30.557500000000005
   310   1      5.3924999999999983      32.355000000000004      30.557500000000005
   311   1      5.3924999999999983      34.152500000000003      28.760000000000005
   312   1      3.5949999999999989      32.355000000000004      32.355000000000004
   313   1      3.5949999999999989      34.152500000000003      34.152500000000003
   314   1      5.3924999999999983      32.355000000000004      34.152500000000003
   315   1      5.3924999999999983      34.152500000000003      32.355000000000004
   316   1      3.5949999999999989      32.355000000000004      35.949999999999996
   317   1      3.5949999999999989      34.152500000000003      37.747499999999995
   318   1      5.3924999999999983      32.355000000000004      37.747499999999995
   319   1      5.3924999999999983      34.152500000000003      35.949999999999996
   320   1      3.5949999999999989      32.355000000000004      39.544999999999995
   321   1      3.5949999999999989      34.152500000000003      41.342500000000001
   322   1      5.3924999999999983      32.355000000000004      41.342500000000001
   323   1      5.3924999999999983      34.152500000000003      39.544999999999995
   324   1      3.5949999999999989      32.355000000000004      43.140000000000001
   325   1      3.5949999999999989      34.152500000000003                 44.9375
   326   1      5.3924999999999983      32.355000000000004                 44.9375
   327   1      5.3924999999999983      34.152500000000003      43.140000000000001
   328   1      3.5949999999999989      32.355000000000004      46.734999999999999
   329   1      3.5949999999999989      34.152500000000003      48.532500000000006
   330   1      5.3924999999999983      32.355000000000004      48.532500000000006
   331   1      5.3924999999999983      34.152500000000003      46.734999999999999
   332   1      3.5949999999999989      32.355000000000004      50.329999999999998
   333   1      3.5949999999999989      34.152500000000003      52.127500000000005
   334   1      5.3924999999999983      32.355000000000004      52.127500000000005
   335   1      5.3924999999999983      34.152500000000003      50.329999999999998
   336   1      3.5949999999999989      32.355000000000004      53.924999999999997
   337   1      3.5949999999999989      34.152500000000003      55.722500000000004
   338   1      5.3924999999999983      32.355000000000004      55.722500000000004
   339   1      5.3924999999999983      34.152500000000003      53.924999999999997
   340   1      3.5949999999999989      32.355000000000004      57.520000000000003
   341   1      5.3924999999999983      32.355000000000004      59.317499999999995
   342   1      5.3924999999999983      34.152500000000003      57.520000000000003
   343   1      5.3924999999999983      32.355000000000004      62.912500000000001
   344   1      5.3924999999999983      34.152500000000003      61.115000000000009
   345   1      5.3924999999999983      32.355000000000004      66.507500000000007
   346   1      5.3924999999999983      34.152500000000003      64.710000000000008
   347   1      5.3924999999999983      35.949999999999996      12.582500000000003
   348   1      5.3924999999999983      35.949999999999996      16.177500000000002
   349   1      5.3924999999999983      37.747499999999995      14.380000000000003
   350   1      5.3924999999999983      35.949999999999996      19.772499999999997
   351   1      5.3924999999999983      37.747499999999995      17.974999999999998
   352   1      3.5949999999999989      35.949999999999996                   21.57
   353   1      3.5949999999999989      37.747499999999995                 23.3675
   354   1      5.3924999999999983      35.949999999999996                 23.3675
   355   1      5.3924999999999983      37.747499999999995                   21.57
   356   1      3.5949999999999989      35.949999999999996      25.164999999999999
   357   1      3.5949999999999989      37.747499999999995      26.962499999999999
   358   1      5.3924999999999983      35.949999999999996      26.962499999999999