model_files/CuFeNi/CuFeNi_30000/CuFeNi_331/CuFeNi_331_fcc_30729_temp.data (written by ASE) 

30729 	 atoms 
3  atom types
0.0                     114  xlo xhi
0.0                     114  ylo yhi
0.0                     114  zlo zhi


Atoms 

     1   1      1.7899999999999991      55.490000000000002      57.279999999999994
     2   1      1.7899999999999991      57.279999999999994      55.490000000000002
     3   1                       0      57.279999999999994      57.279999999999994
     4   1      1.7899999999999991      57.279999999999994      59.069999999999993
     5   1      1.7899999999999991      59.069999999999993      57.279999999999994
     6   1      5.3700000000000045      51.909999999999997      53.700000000000003
     7   1      5.3700000000000045      51.909999999999997      57.279999999999994
     8   1      5.3700000000000045      51.909999999999997      60.859999999999999
     9   1      5.3700000000000045      53.700000000000003      51.909999999999997
    10   1      3.5799999999999983      53.700000000000003      53.700000000000003
    11   1      3.5799999999999983      55.490000000000002      55.490000000000002
    12   1      5.3700000000000045      53.700000000000003      55.490000000000002
    13   1      5.3700000000000045      55.490000000000002      53.700000000000003
    14   1      3.5799999999999983      53.700000000000003      57.279999999999994
    15   1      3.5799999999999983      55.490000000000002      59.069999999999993
    16   1      5.3700000000000045      53.700000000000003      59.069999999999993
    17   1      5.3700000000000045      55.490000000000002      57.279999999999994
    18   1      3.5799999999999983      53.700000000000003      60.859999999999999
    19   1      5.3700000000000045      53.700000000000003      62.649999999999999
    20   1      5.3700000000000045      55.490000000000002      60.859999999999999
    21   1      5.3700000000000045      57.279999999999994      51.909999999999997
    22   1      3.5799999999999983      57.279999999999994      53.700000000000003
    23   1      3.5799999999999983      59.069999999999993      55.490000000000002
    24   1      5.3700000000000045      57.279999999999994      55.490000000000002
    25   1      5.3700000000000045      59.069999999999993      53.700000000000003
    26   1      3.5799999999999983      57.279999999999994      57.279999999999994
    27   1      3.5799999999999983      59.069999999999993      59.069999999999993
    28   1      5.3700000000000045      57.279999999999994      59.069999999999993
    29   1      5.3700000000000045      59.069999999999993      57.279999999999994
    30   1      3.5799999999999983      57.279999999999994      60.859999999999999
    31   1      5.3700000000000045      57.279999999999994      62.649999999999999
    32   1      5.3700000000000045      59.069999999999993      60.859999999999999
    33   1      5.3700000000000045      60.859999999999999      51.909999999999997
    34   1      3.5799999999999983      60.859999999999999      53.700000000000003
    35   1      5.3700000000000045      60.859999999999999      55.490000000000002
    36   1      5.3700000000000045      62.649999999999999      53.700000000000003
    37   1      3.5799999999999983      60.859999999999999      57.279999999999994
    38   1      5.3700000000000045      60.859999999999999      59.069999999999993
    39   1      5.3700000000000045      62.649999999999999      57.279999999999994
    40   1      3.5799999999999983      60.859999999999999      60.859999999999999
    41   1      5.3700000000000045      60.859999999999999      62.649999999999999
    42   1      5.3700000000000045      62.649999999999999      60.859999999999999
    43   1      8.9500000000000028      48.329999999999998      53.700000000000003
    44   1      8.9500000000000028      48.329999999999998      57.279999999999994
    45   1      8.9500000000000028      48.329999999999998      60.859999999999999
    46   1      7.1600000000000028      51.909999999999997      51.909999999999997
    47   1      8.9500000000000028      50.120000000000005      51.909999999999997
    48   1      8.9500000000000028      51.909999999999997      50.120000000000005
    49   1      7.1600000000000028      50.120000000000005      53.700000000000003
    50   1      7.1600000000000028      51.909999999999997      55.490000000000002
    51   1      8.9500000000000028      50.120000000000005      55.490000000000002
    52   1      8.9500000000000028      51.909999999999997      53.700000000000003
    53   1      7.1600000000000028      50.120000000000005      57.279999999999994
    54   1      7.1600000000000028      51.909999999999997      59.069999999999993
    55   1      8.9500000000000028      50.120000000000005      59.069999999999993
    56   1      8.9500000000000028      51.909999999999997      57.279999999999994
    57   1      7.1600000000000028      50.120000000000005      60.859999999999999
    58   1      7.1600000000000028      51.909999999999997      62.649999999999999
    59   1      8.9500000000000028      50.120000000000005      62.649999999999999
    60   1      8.9500000000000028      51.909999999999997      60.859999999999999
    61   1      8.9500000000000028      51.909999999999997      64.439999999999998
    62   1      8.9500000000000028      53.700000000000003      48.329999999999998
    63   1      7.1600000000000028      53.700000000000003      50.120000000000005
    64   1      7.1600000000000028      55.490000000000002      51.909999999999997
    65   1      8.9500000000000028      53.700000000000003      51.909999999999997
    66   1      8.9500000000000028      55.490000000000002      50.120000000000005
    67   1      7.1600000000000028      53.700000000000003      53.700000000000003
    68   1      7.1600000000000028      55.490000000000002      55.490000000000002
    69   1      8.9500000000000028      53.700000000000003      55.490000000000002
    70   1      8.9500000000000028      55.490000000000002      53.700000000000003
    71   1      7.1600000000000028      53.700000000000003      57.279999999999994
    72   1      7.1600000000000028      55.490000000000002      59.069999999999993
    73   1      8.9500000000000028      53.700000000000003      59.069999999999993
    74   1      8.9500000000000028      55.490000000000002      57.279999999999994
    75   1      7.1600000000000028      53.700000000000003      60.859999999999999
    76   1      7.1600000000000028      55.490000000000002      62.649999999999999
    77   1      8.9500000000000028      53.700000000000003      62.649999999999999
    78   1      8.9500000000000028      55.490000000000002      60.859999999999999
    79   1      7.1600000000000028      53.700000000000003      64.439999999999998
    80   1      8.9500000000000028      53.700000000000003      66.230000000000004
    81   1      8.9500000000000028      55.490000000000002      64.439999999999998
    82   1      8.9500000000000028      57.279999999999994      48.329999999999998
    83   1      7.1600000000000028      57.279999999999994      50.120000000000005
    84   1      7.1600000000000028      59.069999999999993      51.909999999999997
    85   1      8.9500000000000028      57.279999999999994      51.909999999999997
    86   1      8.9500000000000028      59.069999999999993      50.120000000000005
    87   1      7.1600000000000028      57.279999999999994      53.700000000000003
    88   1      7.1600000000000028      59.069999999999993      55.490000000000002
    89   1      8.9500000000000028      57.279999999999994      55.490000000000002
    90   1      8.9500000000000028      59.069999999999993      53.700000000000003
    91   1      7.1600000000000028      57.279999999999994      57.279999999999994
    92   1      7.1600000000000028      59.069999999999993      59.069999999999993
    93   1      8.9500000000000028      57.279999999999994      59.069999999999993
    94   1      8.9500000000000028      59.069999999999993      57.279999999999994
    95   1      7.1600000000000028      57.279999999999994      60.859999999999999
    96   1      7.1600000000000028      59.069999999999993      62.649999999999999
    97   1      8.9500000000000028      57.279999999999994      62.649999999999999
    98   1      8.9500000000000028      59.069999999999993      60.859999999999999
    99   1      7.1600000000000028      57.279999999999994      64.439999999999998
   100   1      8.9500000000000028      57.279999999999994      66.230000000000004
   101   1      8.9500000000000028      59.069999999999993      64.439999999999998
   102   1      8.9500000000000028      60.859999999999999      48.329999999999998
   103   1      7.1600000000000028      60.859999999999999      50.120000000000005
   104   1      7.1600000000000028      62.649999999999999      51.909999999999997
   105   1      8.9500000000000028      60.859999999999999      51.909999999999997
   106   1      8.9500000000000028      62.649999999999999      50.120000000000005
   107   1      7.1600000000000028      60.859999999999999      53.700000000000003
   108   1      7.1600000000000028      62.649999999999999      55.490000000000002
   109   1      8.9500000000000028      60.859999999999999      55.490000000000002
   110   1      8.9500000000000028      62.649999999999999      53.700000000000003
   111   1      7.1600000000000028      60.859999999999999      57.279999999999994
   112   1      7.1600000000000028      62.649999999999999      59.069999999999993
   113   1      8.9500000000000028      60.859999999999999      59.069999999999993
   114   1      8.9500000000000028      62.649999999999999      57.279999999999994
   115   1      7.1600000000000028      60.859999999999999      60.859999999999999
   116   1      7.1600000000000028      62.649999999999999      62.649999999999999
   117   1      8.9500000000000028      60.859999999999999      62.649999999999999
   118   1      8.9500000000000028      62.649999999999999      60.859999999999999
   119   1      7.1600000000000028      60.859999999999999      64.439999999999998
   120   1      8.9500000000000028      60.859999999999999      66.230000000000004
   121   1      8.9500000000000028      62.649999999999999      64.439999999999998
   122   1      8.9500000000000028      64.439999999999998      51.909999999999997
   123   1      7.1600000000000028      64.439999999999998      53.700000000000003
   124   1      8.9500000000000028      64.439999999999998      55.490000000000002
   125   1      8.9500000000000028      66.230000000000004      53.700000000000003
   126   1      7.1600000000000028      64.439999999999998      57.279999999999994
   127   1      8.9500000000000028      64.439999999999998      59.069999999999993
   128   1      8.9500000000000028      66.230000000000004      57.279999999999994
   129   1      7.1600000000000028      64.439999999999998      60.859999999999999
   130   1      8.9500000000000028      64.439999999999998      62.649999999999999
   131   1      8.9500000000000028      66.230000000000004      60.859999999999999
   132   1      12.530000000000001                   44.75      53.700000000000003
   133   1      12.530000000000001                   44.75      57.279999999999994
   134   1      12.530000000000001                   44.75      60.859999999999999
   135   1                   10.74      48.329999999999998      48.329999999999998
   136   1      12.530000000000001      46.540000000000006      48.329999999999998
   137   1      12.530000000000001      48.329999999999998      46.540000000000006
   138   1                   10.74      48.329999999999998      51.909999999999997
   139   1      12.530000000000001      46.540000000000006      51.909999999999997
   140   1      12.530000000000001      48.329999999999998      50.120000000000005
   141   1                   10.74      46.540000000000006      53.700000000000003
   142   1                   10.74      48.329999999999998      55.490000000000002
   143   1      12.530000000000001      46.540000000000006      55.490000000000002
   144   1      12.530000000000001      48.329999999999998      53.700000000000003
   145   1                   10.74      46.540000000000006      57.279999999999994
   146   1                   10.74      48.329999999999998      59.069999999999993
   147   1      12.530000000000001      46.540000000000006      59.069999999999993
   148   1      12.530000000000001      48.329999999999998      57.279999999999994
   149   1                   10.74      46.540000000000006      60.859999999999999
   150   1                   10.74      48.329999999999998      62.649999999999999
   151   1      12.530000000000001      46.540000000000006      62.649999999999999
   152   1      12.530000000000001      48.329999999999998      60.859999999999999
   153   1                   10.74      48.329999999999998      66.230000000000004
   154   1      12.530000000000001      46.540000000000006      66.230000000000004
   155   1      12.530000000000001      48.329999999999998      64.439999999999998
   156   1      12.530000000000001      48.329999999999998      68.019999999999982
   157   1                   10.74      51.909999999999997      48.329999999999998
   158   1      12.530000000000001      50.120000000000005      48.329999999999998
   159   1      12.530000000000001      51.909999999999997      46.540000000000006
   160   1                   10.74      50.120000000000005      50.120000000000005
   161   1                   10.74      51.909999999999997      51.909999999999997
   162   1      12.530000000000001      50.120000000000005      51.909999999999997
   163   1      12.530000000000001      51.909999999999997      50.120000000000005
   164   1                   10.74      50.120000000000005      53.700000000000003
   165   1                   10.74      51.909999999999997      55.490000000000002
   166   1      12.530000000000001      50.120000000000005      55.490000000000002
   167   1      12.530000000000001      51.909999999999997      53.700000000000003
   168   1                   10.74      50.120000000000005      57.279999999999994
   169   1                   10.74      51.909999999999997      59.069999999999993
   170   1      12.530000000000001      50.120000000000005      59.069999999999993
   171   1      12.530000000000001      51.909999999999997      57.279999999999994
   172   1                   10.74      50.120000000000005      60.859999999999999
   173   1                   10.74      51.909999999999997      62.649999999999999
   174   1      12.530000000000001      50.120000000000005      62.649999999999999
   175   1      12.530000000000001      51.909999999999997      60.859999999999999
   176   1                   10.74      50.120000000000005      64.439999999999998
   177   1                   10.74      51.909999999999997      66.230000000000004
   178   1      12.530000000000001      50.120000000000005      66.230000000000004
   179   1      12.530000000000001      51.909999999999997      64.439999999999998
   180   1      12.530000000000001      51.909999999999997      68.019999999999982
   181   1      12.530000000000001      53.700000000000003                   44.75
   182   1                   10.74      53.700000000000003      46.540000000000006
   183   1                   10.74      55.490000000000002      48.329999999999998
   184   1      12.530000000000001      53.700000000000003      48.329999999999998
   185   1      12.530000000000001      55.490000000000002      46.540000000000006
   186   1                   10.74      53.700000000000003      50.120000000000005
   187   1                   10.74      55.490000000000002      51.909999999999997
   188   1      12.530000000000001      53.700000000000003      51.909999999999997
   189   1      12.530000000000001      55.490000000000002      50.120000000000005
   190   1                   10.74      53.700000000000003      53.700000000000003
   191   1                   10.74      55.490000000000002      55.490000000000002
   192   1      12.530000000000001      53.700000000000003      55.490000000000002
   193   1      12.530000000000001      55.490000000000002      53.700000000000003
   194   1                   10.74      53.700000000000003      57.279999999999994
   195   1                   10.74      55.490000000000002      59.069999999999993
   196   1      12.530000000000001      53.700000000000003      59.069999999999993
   197   1      12.530000000000001      55.490000000000002      57.279999999999994
   198   1                   10.74      53.700000000000003      60.859999999999999
   199   1                   10.74      55.490000000000002      62.649999999999999
   200   1      12.530000000000001      53.700000000000003      62.649999999999999
   201   1      12.530000000000001      55.490000000000002      60.859999999999999
   202   1                   10.74      53.700000000000003      64.439999999999998
   203   1                   10.74      55.490000000000002      66.230000000000004
   204   1      12.530000000000001      53.700000000000003      66.230000000000004
   205   1      12.530000000000001      55.490000000000002      64.439999999999998
   206   1                   10.74      53.700000000000003      68.019999999999982
   207   1      12.530000000000001      53.700000000000003      69.810000000000002
   208   1      12.530000000000001      55.490000000000002      68.019999999999982
   209   1      12.530000000000001      57.279999999999994                   44.75
   210   1                   10.74      57.279999999999994      46.540000000000006
   211   1                   10.74      59.069999999999993      48.329999999999998
   212   1      12.530000000000001      57.279999999999994      48.329999999999998
   213   1      12.530000000000001      59.069999999999993      46.540000000000006
   214   1                   10.74      57.279999999999994      50.120000000000005
   215   1                   10.74      59.069999999999993      51.909999999999997
   216   1      12.530000000000001      57.279999999999994      51.909999999999997
   217   1      12.530000000000001      59.069999999999993      50.120000000000005
   218   1                   10.74      57.279999999999994      53.700000000000003
   219   1                   10.74      59.069999999999993      55.490000000000002
   220   1      12.530000000000001      57.279999999999994      55.490000000000002
   221   1      12.530000000000001      59.069999999999993      53.700000000000003
   222   1                   10.74      57.279999999999994      57.279999999999994
   223   1                   10.74      59.069999999999993      59.069999999999993
   224   1      12.530000000000001      57.279999999999994      59.069999999999993
   225   1      12.530000000000001      59.069999999999993      57.279999999999994
   226   1                   10.74      57.279999999999994      60.859999999999999
   227   1                   10.74      59.069999999999993      62.649999999999999
   228   1      12.530000000000001      57.279999999999994      62.649999999999999
   229   1      12.530000000000001      59.069999999999993      60.859999999999999
   230   1                   10.74      57.279999999999994      64.439999999999998
   231   1                   10.74      59.069999999999993      66.230000000000004
   232   1      12.530000000000001      57.279999999999994      66.230000000000004
   233   1      12.530000000000001      59.069999999999993      64.439999999999998
   234   1                   10.74      57.279999999999994      68.019999999999982
   235   1      12.530000000000001      57.279999999999994      69.810000000000002
   236   1      12.530000000000001      59.069999999999993      68.019999999999982
   237   1      12.530000000000001      60.859999999999999                   44.75
   238   1                   10.74      60.859999999999999      46.540000000000006
   239   1                   10.74      62.649999999999999      48.329999999999998
   240   1      12.530000000000001      60.859999999999999      48.329999999999998
   241   1      12.530000000000001      62.649999999999999      46.540000000000006
   242   1                   10.74      60.859999999999999      50.120000000000005
   243   1                   10.74      62.649999999999999      51.909999999999997
   244   1      12.530000000000001      60.859999999999999      51.909999999999997
   245   1      12.530000000000001      62.649999999999999      50.120000000000005
   246   1                   10.74      60.859999999999999      53.700000000000003
   247   1                   10.74      62.649999999999999      55.490000000000002
   248   1      12.530000000000001      60.859999999999999      55.490000000000002
   249   1      12.530000000000001      62.649999999999999      53.700000000000003
   250   1                   10.74      60.859999999999999      57.279999999999994
   251   1                   10.74      62.649999999999999      59.069999999999993
   252   1      12.530000000000001      60.859999999999999      59.069999999999993
   253   1      12.530000000000001      62.649999999999999      57.279999999999994
   254   1                   10.74      60.859999999999999      60.859999999999999
   255   1                   10.74      62.649999999999999      62.649999999999999
   256   1      12.530000000000001      60.859999999999999      62.649999999999999
   257   1      12.530000000000001      62.649999999999999      60.859999999999999
   258   1                   10.74      60.859999999999999      64.439999999999998
   259   1                   10.74      62.649999999999999      66.230000000000004
   260   1      12.530000000000001      60.859999999999999      66.230000000000004
   261   1      12.530000000000001      62.649999999999999      64.439999999999998
   262   1                   10.74      60.859999999999999      68.019999999999982
   263   1      12.530000000000001      60.859999999999999      69.810000000000002
   264   1      12.530000000000001      62.649999999999999      68.019999999999982
   265   1                   10.74      66.230000000000004      48.329999999999998
   266   1      12.530000000000001      64.439999999999998      48.329999999999998
   267   1      12.530000000000001      66.230000000000004      46.540000000000006
   268   1                   10.74      64.439999999999998      50.120000000000005
   269   1                   10.74      66.230000000000004      51.909999999999997
   270   1      12.530000000000001      64.439999999999998      51.909999999999997
   271   1      12.530000000000001      66.230000000000004      50.120000000000005
   272   1                   10.74      64.439999999999998      53.700000000000003
   273   1                   10.74      66.230000000000004      55.490000000000002
   274   1      12.530000000000001      64.439999999999998      55.490000000000002
   275   1      12.530000000000001      66.230000000000004      53.700000000000003
   276   1                   10.74      64.439999999999998      57.279999999999994
   277   1                   10.74      66.230000000000004      59.069999999999993
   278   1      12.530000000000001      64.439999999999998      59.069999999999993
   279   1      12.530000000000001      66.230000000000004      57.279999999999994
   280   1                   10.74      64.439999999999998      60.859999999999999
   281   1                   10.74      66.230000000000004      62.649999999999999
   282   1      12.530000000000001      64.439999999999998      62.649999999999999
   283   1      12.530000000000001      66.230000000000004      60.859999999999999
   284   1                   10.74      64.439999999999998      64.439999999999998
   285   1                   10.74      66.230000000000004      66.230000000000004
   286   1      12.530000000000001      64.439999999999998      66.230000000000004
   287   1      12.530000000000001      66.230000000000004      64.439999999999998
   288   1      12.530000000000001      66.230000000000004      68.019999999999982
   289   1      12.530000000000001      68.019999999999982      48.329999999999998
   290   1      12.530000000000001      68.019999999999982      51.909999999999997
   291   1                   10.74      68.019999999999982      53.700000000000003
   292   1      12.530000000000001      68.019999999999982      55.490000000000002
   293   1      12.530000000000001      69.810000000000002      53.700000000000003
   294   1                   10.74      68.019999999999982      57.279999999999994
   295   1      12.530000000000001      68.019999999999982      59.069999999999993
   296   1      12.530000000000001      69.810000000000002      57.279999999999994
   297   1                   10.74      68.019999999999982      60.859999999999999
   298   1      12.530000000000001      68.019999999999982      62.649999999999999
   299   1      12.530000000000001      69.810000000000002      60.859999999999999
   300   1      12.530000000000001      68.019999999999982      66.230000000000004
   301   1      16.109999999999999      41.170000000000002      53.700000000000003
   302   1      16.109999999999999      41.170000000000002      57.279999999999994
   303   1      16.109999999999999      41.170000000000002      60.859999999999999
   304   1      14.319999999999999                   44.75      48.329999999999998
   305   1      16.109999999999999      42.959999999999994      48.329999999999998
   306   1      16.109999999999999                   44.75      46.540000000000006
   307   1      14.319999999999999                   44.75      51.909999999999997
   308   1      16.109999999999999      42.959999999999994      51.909999999999997
   309   1      16.109999999999999                   44.75      50.120000000000005
   310   1      14.319999999999999      42.959999999999994      53.700000000000003
   311   1      14.319999999999999                   44.75      55.490000000000002
   312   1      16.109999999999999      42.959999999999994      55.490000000000002
   313   1      16.109999999999999                   44.75      53.700000000000003
   314   1      14.319999999999999      42.959999999999994      57.279999999999994
   315   1      14.319999999999999                   44.75      59.069999999999993
   316   1      16.109999999999999      42.959999999999994      59.069999999999993
   317   1      16.109999999999999                   44.75      57.279999999999994
   318   1      14.319999999999999      42.959999999999994      60.859999999999999
   319   1      14.319999999999999                   44.75      62.649999999999999
   320   1      16.109999999999999      42.959999999999994      62.649999999999999
   321   1      16.109999999999999                   44.75      60.859999999999999
   322   1      14.319999999999999                   44.75      66.230000000000004
   323   1      16.109999999999999      42.959999999999994      66.230000000000004
   324   1      16.109999999999999                   44.75      64.439999999999998
   325   1      16.109999999999999                   44.75      68.019999999999982
   326   1      14.319999999999999      48.329999999999998                   44.75
   327   1      16.109999999999999      46.540000000000006                   44.75
   328   1      16.109999999999999      48.329999999999998      42.959999999999994
   329   1      14.319999999999999      46.540000000000006      46.540000000000006
   330   1      14.319999999999999      48.329999999999998      48.329999999999998
   331   1      16.109999999999999      46.540000000000006      48.329999999999998
   332   1      16.109999999999999      48.329999999999998      46.540000000000006
   333   1      14.319999999999999      46.540000000000006      50.120000000000005
   334   1      14.319999999999999      48.329999999999998      51.909999999999997
   335   1      16.109999999999999      46.540000000000006      51.909999999999997
   336   1      16.109999999999999      48.329999999999998      50.120000000000005
   337   1      14.319999999999999      46.540000000000006      53.700000000000003
   338   1      14.319999999999999      48.329999999999998      55.490000000000002
   339   1      16.109999999999999      46.540000000000006      55.490000000000002
   340   1      16.109999999999999      48.329999999999998      53.700000000000003
   341   1      14.319999999999999      46.540000000000006      57.279999999999994
   342   1      14.319999999999999      48.329999999999998      59.069999999999993
   343   1      16.109999999999999      46.540000000000006      59.069999999999993
   344   1      16.109999999999999      48.329999999999998      57.279999999999994
   345   1      14.319999999999999      46.540000000000006      60.859999999999999
   346   1      14.319999999999999      48.329999999999998      62.649999999999999
   347   1      16.109999999999999      46.540000000000006      62.649999999999999
   348   1      16.109999999999999      48.329999999999998      60.859999999999999
   349   1      14.319999999999999      46.540000000000006      64.439999999999998
   350   1      14.319999999999999      48.329999999999998      66.230000000000004
   351   1      16.109999999999999      46.540000000000006      66.230000000000004
   352   1      16.109999999999999      48.329999999999998      64.439999999999998
   353   1      14.319999999999999      46.540000000000006      68.019999999999982
   354   1      14.319999999999999      48.329999999999998      69.810000000000002
   355   1      16.109999999999999      46.540000000000006      69.810000000000002
   356   1      16.109999999999999      48.329999999999998      68.019999999999982
   357   1      16.109999999999999      48.329999999999998      71.600000000000009
   358   1      14.319999999999999      51.909999999999997                   44.75