model_files/NiCoCrFeMn/NiCoCrFeMn_30000/NiCoCrFeMn_542/NiCoCrFeMn_542_fcc_29823_temp.data (written by ASE) 

29823 	 atoms 
5  atom types
0.0                     109  xlo xhi
0.0                     109  ylo yhi
0.0                     109  zlo zhi


Atoms 

     1   1      1.7974999999999997      52.127500000000012      53.925000000000004
     2   1      1.7974999999999997      53.925000000000004      52.127500000000012
     3   1                       0      53.925000000000004      53.925000000000004
     4   1      1.7974999999999997      53.925000000000004      55.722500000000004
     5   1      1.7974999999999997      55.722500000000004      53.925000000000004
     6   1      3.5949999999999993      48.532500000000013      52.127500000000012
     7   1      5.3925000000000054      46.735000000000007      52.127500000000012
     8   1      5.3925000000000054      48.532500000000013      50.330000000000005
     9   1      3.5949999999999993      48.532500000000013      55.722500000000004
    10   1      5.3925000000000054      46.735000000000007      55.722500000000004
    11   1      5.3925000000000054      48.532500000000013      53.925000000000004
    12   1      5.3925000000000054      48.532500000000013       57.52000000000001
    13   1      3.5949999999999993      52.127500000000012      48.532500000000013
    14   1      5.3925000000000054      50.330000000000005      48.532500000000013
    15   1      5.3925000000000054      52.127500000000012      46.735000000000007
    16   1      3.5949999999999993      50.330000000000005      50.330000000000005
    17   1      3.5949999999999993      52.127500000000012      52.127500000000012
    18   1      5.3925000000000054      50.330000000000005      52.127500000000012
    19   1      5.3925000000000054      52.127500000000012      50.330000000000005
    20   1      3.5949999999999993      50.330000000000005      53.925000000000004
    21   1      3.5949999999999993      52.127500000000012      55.722500000000004
    22   1      5.3925000000000054      50.330000000000005      55.722500000000004
    23   1      5.3925000000000054      52.127500000000012      53.925000000000004
    24   1      3.5949999999999993      50.330000000000005       57.52000000000001
    25   1      3.5949999999999993      52.127500000000012       59.31750000000001
    26   1      5.3925000000000054      50.330000000000005       59.31750000000001
    27   1      5.3925000000000054      52.127500000000012       57.52000000000001
    28   1      5.3925000000000054      52.127500000000012      61.115000000000016
    29   1      3.5949999999999993      55.722500000000004      48.532500000000013
    30   1      5.3925000000000054      53.925000000000004      48.532500000000013
    31   1      5.3925000000000054      55.722500000000004      46.735000000000007
    32   1      3.5949999999999993      53.925000000000004      50.330000000000005
    33   1      3.5949999999999993      55.722500000000004      52.127500000000012
    34   1      5.3925000000000054      53.925000000000004      52.127500000000012
    35   1      5.3925000000000054      55.722500000000004      50.330000000000005
    36   1      3.5949999999999993      53.925000000000004      53.925000000000004
    37   1      3.5949999999999993      55.722500000000004      55.722500000000004
    38   1      5.3925000000000054      53.925000000000004      55.722500000000004
    39   1      5.3925000000000054      55.722500000000004      53.925000000000004
    40   1      3.5949999999999993      53.925000000000004       57.52000000000001
    41   1      3.5949999999999993      55.722500000000004       59.31750000000001
    42   1      5.3925000000000054      53.925000000000004       59.31750000000001
    43   1      5.3925000000000054      55.722500000000004       57.52000000000001
    44   1      5.3925000000000054      55.722500000000004      61.115000000000016
    45   1      5.3925000000000054       57.52000000000001      48.532500000000013
    46   1      3.5949999999999993       57.52000000000001      50.330000000000005
    47   1      3.5949999999999993       59.31750000000001      52.127500000000012
    48   1      5.3925000000000054       57.52000000000001      52.127500000000012
    49   1      5.3925000000000054       59.31750000000001      50.330000000000005
    50   1      3.5949999999999993       57.52000000000001      53.925000000000004
    51   1      3.5949999999999993       59.31750000000001      55.722500000000004
    52   1      5.3925000000000054       57.52000000000001      55.722500000000004
    53   1      5.3925000000000054       59.31750000000001      53.925000000000004
    54   1      3.5949999999999993       57.52000000000001       57.52000000000001
    55   1      5.3925000000000054       57.52000000000001       59.31750000000001
    56   1      5.3925000000000054       59.31750000000001       57.52000000000001
    57   1      5.3925000000000054      61.115000000000016      52.127500000000012
    58   1      5.3925000000000054      61.115000000000016      55.722500000000004
    59   1       8.987500000000006      41.342500000000008      53.925000000000004
    60   1       8.987500000000006      44.937500000000007      46.735000000000007
    61   1      7.1900000000000057      44.937500000000007      52.127500000000012
    62   1       8.987500000000006      43.140000000000001      52.127500000000012
    63   1       8.987500000000006      44.937500000000007      50.330000000000005
    64   1      7.1900000000000057      43.140000000000001      53.925000000000004
    65   1      7.1900000000000057      44.937500000000007      55.722500000000004
    66   1       8.987500000000006      43.140000000000001      55.722500000000004
    67   1       8.987500000000006      44.937500000000007      53.925000000000004
    68   1       8.987500000000006      44.937500000000007       57.52000000000001
    69   1       8.987500000000006      44.937500000000007      61.115000000000016
    70   1       8.987500000000006      46.735000000000007      44.937500000000007
    71   1      7.1900000000000057      46.735000000000007      46.735000000000007
    72   1      7.1900000000000057      48.532500000000013      48.532500000000013
    73   1       8.987500000000006      46.735000000000007      48.532500000000013
    74   1       8.987500000000006      48.532500000000013      46.735000000000007
    75   1      7.1900000000000057      46.735000000000007      50.330000000000005
    76   1      7.1900000000000057      48.532500000000013      52.127500000000012
    77   1       8.987500000000006      46.735000000000007      52.127500000000012
    78   1       8.987500000000006      48.532500000000013      50.330000000000005
    79   1      7.1900000000000057      46.735000000000007      53.925000000000004
    80   1      7.1900000000000057      48.532500000000013      55.722500000000004
    81   1       8.987500000000006      46.735000000000007      55.722500000000004
    82   1       8.987500000000006      48.532500000000013      53.925000000000004
    83   1      7.1900000000000057      46.735000000000007       57.52000000000001
    84   1      7.1900000000000057      48.532500000000013       59.31750000000001
    85   1       8.987500000000006      46.735000000000007       59.31750000000001
    86   1       8.987500000000006      48.532500000000013       57.52000000000001
    87   1      7.1900000000000057      46.735000000000007      61.115000000000016
    88   1       8.987500000000006      46.735000000000007      62.912500000000016
    89   1       8.987500000000006      48.532500000000013      61.115000000000016
    90   1      7.1900000000000057      52.127500000000012      44.937500000000007
    91   1       8.987500000000006      50.330000000000005      44.937500000000007
    92   1       8.987500000000006      52.127500000000012      43.140000000000001
    93   1      7.1900000000000057      50.330000000000005      46.735000000000007
    94   1      7.1900000000000057      52.127500000000012      48.532500000000013
    95   1       8.987500000000006      50.330000000000005      48.532500000000013
    96   1       8.987500000000006      52.127500000000012      46.735000000000007
    97   1      7.1900000000000057      50.330000000000005      50.330000000000005
    98   1      7.1900000000000057      52.127500000000012      52.127500000000012
    99   1       8.987500000000006      50.330000000000005      52.127500000000012
   100   1       8.987500000000006      52.127500000000012      50.330000000000005
   101   1      7.1900000000000057      50.330000000000005      53.925000000000004
   102   1      7.1900000000000057      52.127500000000012      55.722500000000004
   103   1       8.987500000000006      50.330000000000005      55.722500000000004
   104   1       8.987500000000006      52.127500000000012      53.925000000000004
   105   1      7.1900000000000057      50.330000000000005       57.52000000000001
   106   1      7.1900000000000057      52.127500000000012       59.31750000000001
   107   1       8.987500000000006      50.330000000000005       59.31750000000001
   108   1       8.987500000000006      52.127500000000012       57.52000000000001
   109   1      7.1900000000000057      50.330000000000005      61.115000000000016
   110   1      7.1900000000000057      52.127500000000012      62.912500000000016
   111   1       8.987500000000006      50.330000000000005      62.912500000000016
   112   1       8.987500000000006      52.127500000000012      61.115000000000016
   113   1       8.987500000000006      52.127500000000012      64.710000000000008
   114   1       8.987500000000006      53.925000000000004      41.342500000000008
   115   1      7.1900000000000057      53.925000000000004      43.140000000000001
   116   1      7.1900000000000057      55.722500000000004      44.937500000000007
   117   1       8.987500000000006      53.925000000000004      44.937500000000007
   118   1       8.987500000000006      55.722500000000004      43.140000000000001
   119   1      7.1900000000000057      53.925000000000004      46.735000000000007
   120   1      7.1900000000000057      55.722500000000004      48.532500000000013
   121   1       8.987500000000006      53.925000000000004      48.532500000000013
   122   1       8.987500000000006      55.722500000000004      46.735000000000007
   123   1      7.1900000000000057      53.925000000000004      50.330000000000005
   124   1      7.1900000000000057      55.722500000000004      52.127500000000012
   125   1       8.987500000000006      53.925000000000004      52.127500000000012
   126   1       8.987500000000006      55.722500000000004      50.330000000000005
   127   1      7.1900000000000057      53.925000000000004      53.925000000000004
   128   1      7.1900000000000057      55.722500000000004      55.722500000000004
   129   1       8.987500000000006      53.925000000000004      55.722500000000004
   130   1       8.987500000000006      55.722500000000004      53.925000000000004
   131   1      7.1900000000000057      53.925000000000004       57.52000000000001
   132   1      7.1900000000000057      55.722500000000004       59.31750000000001
   133   1       8.987500000000006      53.925000000000004       59.31750000000001
   134   1       8.987500000000006      55.722500000000004       57.52000000000001
   135   1      7.1900000000000057      53.925000000000004      61.115000000000016
   136   1      7.1900000000000057      55.722500000000004      62.912500000000016
   137   1       8.987500000000006      53.925000000000004      62.912500000000016
   138   1       8.987500000000006      55.722500000000004      61.115000000000016
   139   1      7.1900000000000057      53.925000000000004      64.710000000000008
   140   1       8.987500000000006      53.925000000000004      66.507500000000007
   141   1       8.987500000000006      55.722500000000004      64.710000000000008
   142   1       8.987500000000006       57.52000000000001      44.937500000000007
   143   1      7.1900000000000057       57.52000000000001      46.735000000000007
   144   1      7.1900000000000057       59.31750000000001      48.532500000000013
   145   1       8.987500000000006       57.52000000000001      48.532500000000013
   146   1       8.987500000000006       59.31750000000001      46.735000000000007
   147   1      7.1900000000000057       57.52000000000001      50.330000000000005
   148   1      7.1900000000000057       59.31750000000001      52.127500000000012
   149   1       8.987500000000006       57.52000000000001      52.127500000000012
   150   1       8.987500000000006       59.31750000000001      50.330000000000005
   151   1      7.1900000000000057       57.52000000000001      53.925000000000004
   152   1      7.1900000000000057       59.31750000000001      55.722500000000004
   153   1       8.987500000000006       57.52000000000001      55.722500000000004
   154   1       8.987500000000006       59.31750000000001      53.925000000000004
   155   1      7.1900000000000057       57.52000000000001       57.52000000000001
   156   1      7.1900000000000057       59.31750000000001       59.31750000000001
   157   1       8.987500000000006       57.52000000000001       59.31750000000001
   158   1       8.987500000000006       59.31750000000001       57.52000000000001
   159   1      7.1900000000000057       57.52000000000001      61.115000000000016
   160   1       8.987500000000006       57.52000000000001      62.912500000000016
   161   1       8.987500000000006       59.31750000000001      61.115000000000016
   162   1       8.987500000000006      61.115000000000016      44.937500000000007
   163   1      7.1900000000000057      61.115000000000016      46.735000000000007
   164   1       8.987500000000006      61.115000000000016      48.532500000000013
   165   1       8.987500000000006      62.912500000000016      46.735000000000007
   166   1      7.1900000000000057      61.115000000000016      50.330000000000005
   167   1      7.1900000000000057      62.912500000000016      52.127500000000012
   168   1       8.987500000000006      61.115000000000016      52.127500000000012
   169   1       8.987500000000006      62.912500000000016      50.330000000000005
   170   1      7.1900000000000057      61.115000000000016      53.925000000000004
   171   1      7.1900000000000057      62.912500000000016      55.722500000000004
   172   1       8.987500000000006      61.115000000000016      55.722500000000004
   173   1       8.987500000000006      62.912500000000016      53.925000000000004
   174   1      7.1900000000000057      61.115000000000016       57.52000000000001
   175   1       8.987500000000006      61.115000000000016       59.31750000000001
   176   1       8.987500000000006      62.912500000000016       57.52000000000001
   177   1      7.1900000000000057      61.115000000000016      61.115000000000016
   178   1       8.987500000000006      61.115000000000016      62.912500000000016
   179   1       8.987500000000006      62.912500000000016      61.115000000000016
   180   1       8.987500000000006      64.710000000000008      52.127500000000012
   181   1      7.1900000000000057      64.710000000000008      53.925000000000004
   182   1       8.987500000000006      64.710000000000008      55.722500000000004
   183   1       8.987500000000006      66.507500000000007      53.925000000000004
   184   1      12.582500000000005      37.747500000000009      53.925000000000004
   185   1      10.785000000000005      41.342500000000008      48.532500000000013
   186   1      12.582500000000005      39.545000000000002      48.532500000000013
   187   1      12.582500000000005      41.342500000000008      46.735000000000007
   188   1      10.785000000000005      41.342500000000008      52.127500000000012
   189   1      12.582500000000005      39.545000000000002      52.127500000000012
   190   1      12.582500000000005      41.342500000000008      50.330000000000005
   191   1      10.785000000000005      39.545000000000002      53.925000000000004
   192   1      10.785000000000005      41.342500000000008      55.722500000000004
   193   1      12.582500000000005      39.545000000000002      55.722500000000004
   194   1      12.582500000000005      41.342500000000008      53.925000000000004
   195   1      10.785000000000005      41.342500000000008       59.31750000000001
   196   1      12.582500000000005      39.545000000000002       59.31750000000001
   197   1      12.582500000000005      41.342500000000008       57.52000000000001
   198   1      12.582500000000005      41.342500000000008      61.115000000000016
   199   1      10.785000000000005      44.937500000000007      44.937500000000007
   200   1      12.582500000000005      43.140000000000001      44.937500000000007
   201   1      12.582500000000005      44.937500000000007      43.140000000000001
   202   1      10.785000000000005      43.140000000000001      46.735000000000007
   203   1      10.785000000000005      44.937500000000007      48.532500000000013
   204   1      12.582500000000005      43.140000000000001      48.532500000000013
   205   1      12.582500000000005      44.937500000000007      46.735000000000007
   206   1      10.785000000000005      43.140000000000001      50.330000000000005
   207   1      10.785000000000005      44.937500000000007      52.127500000000012
   208   1      12.582500000000005      43.140000000000001      52.127500000000012
   209   1      12.582500000000005      44.937500000000007      50.330000000000005
   210   1      10.785000000000005      43.140000000000001      53.925000000000004
   211   1      10.785000000000005      44.937500000000007      55.722500000000004
   212   1      12.582500000000005      43.140000000000001      55.722500000000004
   213   1      12.582500000000005      44.937500000000007      53.925000000000004
   214   1      10.785000000000005      43.140000000000001       57.52000000000001
   215   1      10.785000000000005      44.937500000000007       59.31750000000001
   216   1      12.582500000000005      43.140000000000001       59.31750000000001
   217   1      12.582500000000005      44.937500000000007       57.52000000000001
   218   1      10.785000000000005      43.140000000000001      61.115000000000016
   219   1      10.785000000000005      44.937500000000007      62.912500000000016
   220   1      12.582500000000005      43.140000000000001      62.912500000000016
   221   1      12.582500000000005      44.937500000000007      61.115000000000016
   222   1      12.582500000000005      44.937500000000007      64.710000000000008
   223   1      10.785000000000005      48.532500000000013      41.342500000000008
   224   1      12.582500000000005      46.735000000000007      41.342500000000008
   225   1      12.582500000000005      48.532500000000013      39.545000000000002
   226   1      10.785000000000005      46.735000000000007      43.140000000000001
   227   1      10.785000000000005      48.532500000000013      44.937500000000007
   228   1      12.582500000000005      46.735000000000007      44.937500000000007
   229   1      12.582500000000005      48.532500000000013      43.140000000000001
   230   1      10.785000000000005      46.735000000000007      46.735000000000007
   231   1      10.785000000000005      48.532500000000013      48.532500000000013
   232   1      12.582500000000005      46.735000000000007      48.532500000000013
   233   1      12.582500000000005      48.532500000000013      46.735000000000007
   234   1      10.785000000000005      46.735000000000007      50.330000000000005
   235   1      10.785000000000005      48.532500000000013      52.127500000000012
   236   1      12.582500000000005      46.735000000000007      52.127500000000012
   237   1      12.582500000000005      48.532500000000013      50.330000000000005
   238   1      10.785000000000005      46.735000000000007      53.925000000000004
   239   1      10.785000000000005      48.532500000000013      55.722500000000004
   240   1      12.582500000000005      46.735000000000007      55.722500000000004
   241   1      12.582500000000005      48.532500000000013      53.925000000000004
   242   1      10.785000000000005      46.735000000000007       57.52000000000001
   243   1      10.785000000000005      48.532500000000013       59.31750000000001
   244   1      12.582500000000005      46.735000000000007       59.31750000000001
   245   1      12.582500000000005      48.532500000000013       57.52000000000001
   246   1      10.785000000000005      46.735000000000007      61.115000000000016
   247   1      10.785000000000005      48.532500000000013      62.912500000000016
   248   1      12.582500000000005      46.735000000000007      62.912500000000016
   249   1      12.582500000000005      48.532500000000013      61.115000000000016
   250   1      10.785000000000005      46.735000000000007      64.710000000000008
   251   1      10.785000000000005      48.532500000000013      66.507500000000007
   252   1      12.582500000000005      46.735000000000007      66.507500000000007
   253   1      12.582500000000005      48.532500000000013      64.710000000000008
   254   1      12.582500000000005      48.532500000000013      68.305000000000007
   255   1      10.785000000000005      52.127500000000012      41.342500000000008
   256   1      12.582500000000005      50.330000000000005      41.342500000000008
   257   1      12.582500000000005      52.127500000000012      39.545000000000002
   258   1      10.785000000000005      50.330000000000005      43.140000000000001
   259   1      10.785000000000005      52.127500000000012      44.937500000000007
   260   1      12.582500000000005      50.330000000000005      44.937500000000007
   261   1      12.582500000000005      52.127500000000012      43.140000000000001
   262   1      10.785000000000005      50.330000000000005      46.735000000000007
   263   1      10.785000000000005      52.127500000000012      48.532500000000013
   264   1      12.582500000000005      50.330000000000005      48.532500000000013
   265   1      12.582500000000005      52.127500000000012      46.735000000000007
   266   1      10.785000000000005      50.330000000000005      50.330000000000005
   267   1      10.785000000000005      52.127500000000012      52.127500000000012
   268   1      12.582500000000005      50.330000000000005      52.127500000000012
   269   1      12.582500000000005      52.127500000000012      50.330000000000005
   270   1      10.785000000000005      50.330000000000005      53.925000000000004
   271   1      10.785000000000005      52.127500000000012      55.722500000000004
   272   1      12.582500000000005      50.330000000000005      55.722500000000004
   273   1      12.582500000000005      52.127500000000012      53.925000000000004
   274   1      10.785000000000005      50.330000000000005       57.52000000000001
   275   1      10.785000000000005      52.127500000000012       59.31750000000001
   276   1      12.582500000000005      50.330000000000005       59.31750000000001
   277   1      12.582500000000005      52.127500000000012       57.52000000000001
   278   1      10.785000000000005      50.330000000000005      61.115000000000016
   279   1      10.785000000000005      52.127500000000012      62.912500000000016
   280   1      12.582500000000005      50.330000000000005      62.912500000000016
   281   1      12.582500000000005      52.127500000000012      61.115000000000016
   282   1      10.785000000000005      50.330000000000005      64.710000000000008
   283   1      10.785000000000005      52.127500000000012      66.507500000000007
   284   1      12.582500000000005      50.330000000000005      66.507500000000007
   285   1      12.582500000000005      52.127500000000012      64.710000000000008
   286   1      12.582500000000005      52.127500000000012      68.305000000000007
   287   1      12.582500000000005      53.925000000000004      37.747500000000009
   288   1      10.785000000000005      53.925000000000004      39.545000000000002
   289   1      10.785000000000005      55.722500000000004      41.342500000000008
   290   1      12.582500000000005      53.925000000000004      41.342500000000008
   291   1      12.582500000000005      55.722500000000004      39.545000000000002
   292   1      10.785000000000005      53.925000000000004      43.140000000000001
   293   1      10.785000000000005      55.722500000000004      44.937500000000007
   294   1      12.582500000000005      53.925000000000004      44.937500000000007
   295   1      12.582500000000005      55.722500000000004      43.140000000000001
   296   1      10.785000000000005      53.925000000000004      46.735000000000007
   297   1      10.785000000000005      55.722500000000004      48.532500000000013
   298   1      12.582500000000005      53.925000000000004      48.532500000000013
   299   1      12.582500000000005      55.722500000000004      46.735000000000007
   300   1      10.785000000000005      53.925000000000004      50.330000000000005
   301   1      10.785000000000005      55.722500000000004      52.127500000000012
   302   1      12.582500000000005      53.925000000000004      52.127500000000012
   303   1      12.582500000000005      55.722500000000004      50.330000000000005
   304   1      10.785000000000005      53.925000000000004      53.925000000000004
   305   1      10.785000000000005      55.722500000000004      55.722500000000004
   306   1      12.582500000000005      53.925000000000004      55.722500000000004
   307   1      12.582500000000005      55.722500000000004      53.925000000000004
   308   1      10.785000000000005      53.925000000000004       57.52000000000001
   309   1      10.785000000000005      55.722500000000004       59.31750000000001
   310   1      12.582500000000005      53.925000000000004       59.31750000000001
   311   1      12.582500000000005      55.722500000000004       57.52000000000001
   312   1      10.785000000000005      53.925000000000004      61.115000000000016
   313   1      10.785000000000005      55.722500000000004      62.912500000000016
   314   1      12.582500000000005      53.925000000000004      62.912500000000016
   315   1      12.582500000000005      55.722500000000004      61.115000000000016
   316   1      10.785000000000005      53.925000000000004      64.710000000000008
   317   1      10.785000000000005      55.722500000000004      66.507500000000007
   318   1      12.582500000000005      53.925000000000004      66.507500000000007
   319   1      12.582500000000005      55.722500000000004      64.710000000000008
   320   1      10.785000000000005      53.925000000000004      68.305000000000007
   321   1      12.582500000000005      53.925000000000004      70.102500000000006
   322   1      12.582500000000005      55.722500000000004      68.305000000000007
   323   1      10.785000000000005       59.31750000000001      41.342500000000008
   324   1      12.582500000000005       57.52000000000001      41.342500000000008
   325   1      12.582500000000005       59.31750000000001      39.545000000000002
   326   1      10.785000000000005       57.52000000000001      43.140000000000001
   327   1      10.785000000000005       59.31750000000001      44.937500000000007
   328   1      12.582500000000005       57.52000000000001      44.937500000000007
   329   1      12.582500000000005       59.31750000000001      43.140000000000001
   330   1      10.785000000000005       57.52000000000001      46.735000000000007
   331   1      10.785000000000005       59.31750000000001      48.532500000000013
   332   1      12.582500000000005       57.52000000000001      48.532500000000013
   333   1      12.582500000000005       59.31750000000001      46.735000000000007
   334   1      10.785000000000005       57.52000000000001      50.330000000000005
   335   1      10.785000000000005       59.31750000000001      52.127500000000012
   336   1      12.582500000000005       57.52000000000001      52.127500000000012
   337   1      12.582500000000005       59.31750000000001      50.330000000000005
   338   1      10.785000000000005       57.52000000000001      53.925000000000004
   339   1      10.785000000000005       59.31750000000001      55.722500000000004
   340   1      12.582500000000005       57.52000000000001      55.722500000000004
   341   1      12.582500000000005       59.31750000000001      53.925000000000004
   342   1      10.785000000000005       57.52000000000001       57.52000000000001
   343   1      10.785000000000005       59.31750000000001       59.31750000000001
   344   1      12.582500000000005       57.52000000000001       59.31750000000001
   345   1      12.582500000000005       59.31750000000001       57.52000000000001
   346   1      10.785000000000005       57.52000000000001      61.115000000000016
   347   1      10.785000000000005       59.31750000000001      62.912500000000016
   348   1      12.582500000000005       57.52000000000001      62.912500000000016
   349   1      12.582500000000005       59.31750000000001      61.115000000000016
   350   1      10.785000000000005       57.52000000000001      64.710000000000008
   351   1      10.785000000000005       59.31750000000001      66.507500000000007
   352   1      12.582500000000005       57.52000000000001      66.507500000000007
   353   1      12.582500000000005       59.31750000000001      64.710000000000008
   354   1      12.582500000000005       59.31750000000001      68.305000000000007
   355   1      12.582500000000005      61.115000000000016      41.342500000000008
   356   1      10.785000000000005      61.115000000000016      43.140000000000001
   357   1      10.785000000000005      62.912500000000016      44.937500000000007
   358   1      12.582500000000005      61.115000000000016      44.937500000000007