model_files/NiFeCrCoCu/NiFeCrCoCu_30000/NiFeCrCoCu_321/NiFeCrCoCu_321_fcc_29817_temp.data (written by ASE) 

29817 	 atoms 
5  atom types
0.0                     101  xlo xhi
0.0                     101  ylo yhi
0.0                     101  zlo zhi


Atoms 

     1   1      1.7850000000000037                  44.625      49.980000000000004
     2   1  7.1054273576010019e-15                  48.195                  48.195
     3   1      1.7850000000000037      46.410000000000004                  48.195
     4   1      1.7850000000000037                  48.195      46.410000000000004
     5   1  7.1054273576010019e-15                  48.195      51.765000000000001
     6   1      1.7850000000000037      46.410000000000004      51.765000000000001
     7   1      1.7850000000000037                  48.195      49.980000000000004
     8   1      1.7850000000000037                  48.195      53.550000000000004
     9   1      1.7850000000000037      49.980000000000004                  44.625
    10   1  7.1054273576010019e-15      51.765000000000001                  48.195
    11   1      1.7850000000000037      49.980000000000004                  48.195
    12   1      1.7850000000000037      51.765000000000001      46.410000000000004
    13   1  7.1054273576010019e-15      49.980000000000004      49.980000000000004
    14   1  7.1054273576010019e-15      51.765000000000001      51.765000000000001
    15   1      1.7850000000000037      49.980000000000004      51.765000000000001
    16   1      1.7850000000000037      51.765000000000001      49.980000000000004
    17   1      1.7850000000000037      49.980000000000004      55.335000000000001
    18   1      1.7850000000000037      51.765000000000001      53.550000000000004
    19   1      1.7850000000000037      53.550000000000004                  48.195
    20   1      1.7850000000000037      53.550000000000004      51.765000000000001
    21   1      1.7850000000000037      55.335000000000001      49.980000000000004
    22   1       5.355000000000004                  41.055      46.410000000000004
    23   1       5.355000000000004                  41.055      49.980000000000004
    24   1       5.355000000000004                  41.055      53.550000000000004
    25   1      3.5700000000000074                  44.625                  44.625
    26   1       5.355000000000004      42.840000000000003                  44.625
    27   1       5.355000000000004                  44.625      42.840000000000003
    28   1      3.5700000000000074                  44.625                  48.195
    29   1       5.355000000000004      42.840000000000003                  48.195
    30   1       5.355000000000004                  44.625      46.410000000000004
    31   1      3.5700000000000074      42.840000000000003      49.980000000000004
    32   1      3.5700000000000074                  44.625      51.765000000000001
    33   1       5.355000000000004      42.840000000000003      51.765000000000001
    34   1       5.355000000000004                  44.625      49.980000000000004
    35   1      3.5700000000000074                  44.625      55.335000000000001
    36   1       5.355000000000004      42.840000000000003      55.335000000000001
    37   1       5.355000000000004                  44.625      53.550000000000004
    38   1       5.355000000000004                  44.625      57.120000000000005
    39   1       5.355000000000004      46.410000000000004                  41.055
    40   1      3.5700000000000074                  48.195                  44.625
    41   1       5.355000000000004      46.410000000000004                  44.625
    42   1       5.355000000000004                  48.195      42.840000000000003
    43   1      3.5700000000000074      46.410000000000004      46.410000000000004
    44   1      3.5700000000000074                  48.195                  48.195
    45   1       5.355000000000004      46.410000000000004                  48.195
    46   1       5.355000000000004                  48.195      46.410000000000004
    47   1      3.5700000000000074      46.410000000000004      49.980000000000004
    48   1      3.5700000000000074                  48.195      51.765000000000001
    49   1       5.355000000000004      46.410000000000004      51.765000000000001
    50   1       5.355000000000004                  48.195      49.980000000000004
    51   1      3.5700000000000074      46.410000000000004      53.550000000000004
    52   1      3.5700000000000074                  48.195      55.335000000000001
    53   1       5.355000000000004      46.410000000000004      55.335000000000001
    54   1       5.355000000000004                  48.195      53.550000000000004
    55   1       5.355000000000004      46.410000000000004      58.904999999999994
    56   1       5.355000000000004                  48.195      57.120000000000005
    57   1       5.355000000000004      49.980000000000004                  41.055
    58   1      3.5700000000000074      49.980000000000004      42.840000000000003
    59   1      3.5700000000000074      51.765000000000001                  44.625
    60   1       5.355000000000004      49.980000000000004                  44.625
    61   1       5.355000000000004      51.765000000000001      42.840000000000003
    62   1      3.5700000000000074      49.980000000000004      46.410000000000004
    63   1      3.5700000000000074      51.765000000000001                  48.195
    64   1       5.355000000000004      49.980000000000004                  48.195
    65   1       5.355000000000004      51.765000000000001      46.410000000000004
    66   1      3.5700000000000074      49.980000000000004      49.980000000000004
    67   1      3.5700000000000074      51.765000000000001      51.765000000000001
    68   1       5.355000000000004      49.980000000000004      51.765000000000001
    69   1       5.355000000000004      51.765000000000001      49.980000000000004
    70   1      3.5700000000000074      49.980000000000004      53.550000000000004
    71   1      3.5700000000000074      51.765000000000001      55.335000000000001
    72   1       5.355000000000004      49.980000000000004      55.335000000000001
    73   1       5.355000000000004      51.765000000000001      53.550000000000004
    74   1      3.5700000000000074      49.980000000000004      57.120000000000005
    75   1       5.355000000000004      49.980000000000004      58.904999999999994
    76   1       5.355000000000004      51.765000000000001      57.120000000000005
    77   1       5.355000000000004      53.550000000000004                  41.055
    78   1      3.5700000000000074      55.335000000000001                  44.625
    79   1       5.355000000000004      53.550000000000004                  44.625
    80   1       5.355000000000004      55.335000000000001      42.840000000000003
    81   1      3.5700000000000074      53.550000000000004      46.410000000000004
    82   1      3.5700000000000074      55.335000000000001                  48.195
    83   1       5.355000000000004      53.550000000000004                  48.195
    84   1       5.355000000000004      55.335000000000001      46.410000000000004
    85   1      3.5700000000000074      53.550000000000004      49.980000000000004
    86   1      3.5700000000000074      55.335000000000001      51.765000000000001
    87   1       5.355000000000004      53.550000000000004      51.765000000000001
    88   1       5.355000000000004      55.335000000000001      49.980000000000004
    89   1      3.5700000000000074      53.550000000000004      53.550000000000004
    90   1      3.5700000000000074      55.335000000000001      55.335000000000001
    91   1       5.355000000000004      53.550000000000004      55.335000000000001
    92   1       5.355000000000004      55.335000000000001      53.550000000000004
    93   1       5.355000000000004      53.550000000000004      58.904999999999994
    94   1       5.355000000000004      55.335000000000001      57.120000000000005
    95   1       5.355000000000004      57.120000000000005                  44.625
    96   1       5.355000000000004      57.120000000000005                  48.195
    97   1       5.355000000000004      58.904999999999994      46.410000000000004
    98   1      3.5700000000000074      57.120000000000005      49.980000000000004
    99   1       5.355000000000004      57.120000000000005      51.765000000000001
   100   1       5.355000000000004      58.904999999999994      49.980000000000004
   101   1       5.355000000000004      57.120000000000005      55.335000000000001
   102   1       5.355000000000004      58.904999999999994      53.550000000000004
   103   1      8.9250000000000043      33.914999999999999      49.980000000000004
   104   1      8.9250000000000043      37.484999999999999      42.840000000000003
   105   1      7.1400000000000077      37.484999999999999                  48.195
   106   1      8.9250000000000043      35.700000000000003                  48.195
   107   1      8.9250000000000043      37.484999999999999      46.410000000000004
   108   1      7.1400000000000077      37.484999999999999      51.765000000000001
   109   1      8.9250000000000043      35.700000000000003      51.765000000000001
   110   1      8.9250000000000043      37.484999999999999      49.980000000000004
   111   1      8.9250000000000043      37.484999999999999      53.550000000000004
   112   1      8.9250000000000043      37.484999999999999      57.120000000000005
   113   1      7.1400000000000077                  41.055                  41.055
   114   1      8.9250000000000043      39.270000000000003                  41.055
   115   1      8.9250000000000043                  41.055      39.270000000000003
   116   1      7.1400000000000077                  41.055                  44.625
   117   1      8.9250000000000043      39.270000000000003                  44.625
   118   1      8.9250000000000043                  41.055      42.840000000000003
   119   1      7.1400000000000077      39.270000000000003      46.410000000000004
   120   1      7.1400000000000077                  41.055                  48.195
   121   1      8.9250000000000043      39.270000000000003                  48.195
   122   1      8.9250000000000043                  41.055      46.410000000000004
   123   1      7.1400000000000077      39.270000000000003      49.980000000000004
   124   1      7.1400000000000077                  41.055      51.765000000000001
   125   1      8.9250000000000043      39.270000000000003      51.765000000000001
   126   1      8.9250000000000043                  41.055      49.980000000000004
   127   1      7.1400000000000077      39.270000000000003      53.550000000000004
   128   1      7.1400000000000077                  41.055      55.335000000000001
   129   1      8.9250000000000043      39.270000000000003      55.335000000000001
   130   1      8.9250000000000043                  41.055      53.550000000000004
   131   1      7.1400000000000077                  41.055      58.904999999999994
   132   1      8.9250000000000043      39.270000000000003      58.904999999999994
   133   1      8.9250000000000043                  41.055      57.120000000000005
   134   1      8.9250000000000043                  41.055      60.689999999999998
   135   1      8.9250000000000043      42.840000000000003      37.484999999999999
   136   1      7.1400000000000077                  44.625                  41.055
   137   1      8.9250000000000043      42.840000000000003                  41.055
   138   1      8.9250000000000043                  44.625      39.270000000000003
   139   1      7.1400000000000077      42.840000000000003      42.840000000000003
   140   1      7.1400000000000077                  44.625                  44.625
   141   1      8.9250000000000043      42.840000000000003                  44.625
   142   1      8.9250000000000043                  44.625      42.840000000000003
   143   1      7.1400000000000077      42.840000000000003      46.410000000000004
   144   1      7.1400000000000077                  44.625                  48.195
   145   1      8.9250000000000043      42.840000000000003                  48.195
   146   1      8.9250000000000043                  44.625      46.410000000000004
   147   1      7.1400000000000077      42.840000000000003      49.980000000000004
   148   1      7.1400000000000077                  44.625      51.765000000000001
   149   1      8.9250000000000043      42.840000000000003      51.765000000000001
   150   1      8.9250000000000043                  44.625      49.980000000000004
   151   1      7.1400000000000077      42.840000000000003      53.550000000000004
   152   1      7.1400000000000077                  44.625      55.335000000000001
   153   1      8.9250000000000043      42.840000000000003      55.335000000000001
   154   1      8.9250000000000043                  44.625      53.550000000000004
   155   1      7.1400000000000077      42.840000000000003      57.120000000000005
   156   1      7.1400000000000077                  44.625      58.904999999999994
   157   1      8.9250000000000043      42.840000000000003      58.904999999999994
   158   1      8.9250000000000043                  44.625      57.120000000000005
   159   1      8.9250000000000043      42.840000000000003      62.475000000000001
   160   1      8.9250000000000043                  44.625      60.689999999999998
   161   1      7.1400000000000077                  48.195      37.484999999999999
   162   1      8.9250000000000043      46.410000000000004      37.484999999999999
   163   1      8.9250000000000043                  48.195      35.700000000000003
   164   1      7.1400000000000077      46.410000000000004      39.270000000000003
   165   1      7.1400000000000077                  48.195                  41.055
   166   1      8.9250000000000043      46.410000000000004                  41.055
   167   1      8.9250000000000043                  48.195      39.270000000000003
   168   1      7.1400000000000077      46.410000000000004      42.840000000000003
   169   1      7.1400000000000077                  48.195                  44.625
   170   1      8.9250000000000043      46.410000000000004                  44.625
   171   1      8.9250000000000043                  48.195      42.840000000000003
   172   1      7.1400000000000077      46.410000000000004      46.410000000000004
   173   1      7.1400000000000077                  48.195                  48.195
   174   1      8.9250000000000043      46.410000000000004                  48.195
   175   1      8.9250000000000043                  48.195      46.410000000000004
   176   1      7.1400000000000077      46.410000000000004      49.980000000000004
   177   1      7.1400000000000077                  48.195      51.765000000000001
   178   1      8.9250000000000043      46.410000000000004      51.765000000000001
   179   1      8.9250000000000043                  48.195      49.980000000000004
   180   1      7.1400000000000077      46.410000000000004      53.550000000000004
   181   1      7.1400000000000077                  48.195      55.335000000000001
   182   1      8.9250000000000043      46.410000000000004      55.335000000000001
   183   1      8.9250000000000043                  48.195      53.550000000000004
   184   1      7.1400000000000077      46.410000000000004      57.120000000000005
   185   1      7.1400000000000077                  48.195      58.904999999999994
   186   1      8.9250000000000043      46.410000000000004      58.904999999999994
   187   1      8.9250000000000043                  48.195      57.120000000000005
   188   1      7.1400000000000077      46.410000000000004      60.689999999999998
   189   1      7.1400000000000077                  48.195      62.475000000000001
   190   1      8.9250000000000043      46.410000000000004      62.475000000000001
   191   1      8.9250000000000043                  48.195      60.689999999999998
   192   1      8.9250000000000043                  48.195      64.260000000000005
   193   1      8.9250000000000043      49.980000000000004      33.914999999999999
   194   1      7.1400000000000077      51.765000000000001      37.484999999999999
   195   1      8.9250000000000043      49.980000000000004      37.484999999999999
   196   1      8.9250000000000043      51.765000000000001      35.700000000000003
   197   1      7.1400000000000077      49.980000000000004      39.270000000000003
   198   1      7.1400000000000077      51.765000000000001                  41.055
   199   1      8.9250000000000043      49.980000000000004                  41.055
   200   1      8.9250000000000043      51.765000000000001      39.270000000000003
   201   1      7.1400000000000077      49.980000000000004      42.840000000000003
   202   1      7.1400000000000077      51.765000000000001                  44.625
   203   1      8.9250000000000043      49.980000000000004                  44.625
   204   1      8.9250000000000043      51.765000000000001      42.840000000000003
   205   1      7.1400000000000077      49.980000000000004      46.410000000000004
   206   1      7.1400000000000077      51.765000000000001                  48.195
   207   1      8.9250000000000043      49.980000000000004                  48.195
   208   1      8.9250000000000043      51.765000000000001      46.410000000000004
   209   1      7.1400000000000077      49.980000000000004      49.980000000000004
   210   1      7.1400000000000077      51.765000000000001      51.765000000000001
   211   1      8.9250000000000043      49.980000000000004      51.765000000000001
   212   1      8.9250000000000043      51.765000000000001      49.980000000000004
   213   1      7.1400000000000077      49.980000000000004      53.550000000000004
   214   1      7.1400000000000077      51.765000000000001      55.335000000000001
   215   1      8.9250000000000043      49.980000000000004      55.335000000000001
   216   1      8.9250000000000043      51.765000000000001      53.550000000000004
   217   1      7.1400000000000077      49.980000000000004      57.120000000000005
   218   1      7.1400000000000077      51.765000000000001      58.904999999999994
   219   1      8.9250000000000043      49.980000000000004      58.904999999999994
   220   1      8.9250000000000043      51.765000000000001      57.120000000000005
   221   1      7.1400000000000077      49.980000000000004      60.689999999999998
   222   1      7.1400000000000077      51.765000000000001      62.475000000000001
   223   1      8.9250000000000043      49.980000000000004      62.475000000000001
   224   1      8.9250000000000043      51.765000000000001      60.689999999999998
   225   1      8.9250000000000043      49.980000000000004      66.045000000000002
   226   1      8.9250000000000043      51.765000000000001      64.260000000000005
   227   1      8.9250000000000043      53.550000000000004      37.484999999999999
   228   1      7.1400000000000077      53.550000000000004      39.270000000000003
   229   1      7.1400000000000077      55.335000000000001                  41.055
   230   1      8.9250000000000043      53.550000000000004                  41.055
   231   1      8.9250000000000043      55.335000000000001      39.270000000000003
   232   1      7.1400000000000077      53.550000000000004      42.840000000000003
   233   1      7.1400000000000077      55.335000000000001                  44.625
   234   1      8.9250000000000043      53.550000000000004                  44.625
   235   1      8.9250000000000043      55.335000000000001      42.840000000000003
   236   1      7.1400000000000077      53.550000000000004      46.410000000000004
   237   1      7.1400000000000077      55.335000000000001                  48.195
   238   1      8.9250000000000043      53.550000000000004                  48.195
   239   1      8.9250000000000043      55.335000000000001      46.410000000000004
   240   1      7.1400000000000077      53.550000000000004      49.980000000000004
   241   1      7.1400000000000077      55.335000000000001      51.765000000000001
   242   1      8.9250000000000043      53.550000000000004      51.765000000000001
   243   1      8.9250000000000043      55.335000000000001      49.980000000000004
   244   1      7.1400000000000077      53.550000000000004      53.550000000000004
   245   1      7.1400000000000077      55.335000000000001      55.335000000000001
   246   1      8.9250000000000043      53.550000000000004      55.335000000000001
   247   1      8.9250000000000043      55.335000000000001      53.550000000000004
   248   1      7.1400000000000077      53.550000000000004      57.120000000000005
   249   1      7.1400000000000077      55.335000000000001      58.904999999999994
   250   1      8.9250000000000043      53.550000000000004      58.904999999999994
   251   1      8.9250000000000043      55.335000000000001      57.120000000000005
   252   1      7.1400000000000077      53.550000000000004      60.689999999999998
   253   1      8.9250000000000043      53.550000000000004      62.475000000000001
   254   1      8.9250000000000043      55.335000000000001      60.689999999999998
   255   1      8.9250000000000043      57.120000000000005      37.484999999999999
   256   1      7.1400000000000077      58.904999999999994                  41.055
   257   1      8.9250000000000043      57.120000000000005                  41.055
   258   1      8.9250000000000043      58.904999999999994      39.270000000000003
   259   1      7.1400000000000077      57.120000000000005      42.840000000000003
   260   1      7.1400000000000077      58.904999999999994                  44.625
   261   1      8.9250000000000043      57.120000000000005                  44.625
   262   1      8.9250000000000043      58.904999999999994      42.840000000000003
   263   1      7.1400000000000077      57.120000000000005      46.410000000000004
   264   1      7.1400000000000077      58.904999999999994                  48.195
   265   1      8.9250000000000043      57.120000000000005                  48.195
   266   1      8.9250000000000043      58.904999999999994      46.410000000000004
   267   1      7.1400000000000077      57.120000000000005      49.980000000000004
   268   1      7.1400000000000077      58.904999999999994      51.765000000000001
   269   1      8.9250000000000043      57.120000000000005      51.765000000000001
   270   1      8.9250000000000043      58.904999999999994      49.980000000000004
   271   1      7.1400000000000077      57.120000000000005      53.550000000000004
   272   1      7.1400000000000077      58.904999999999994      55.335000000000001
   273   1      8.9250000000000043      57.120000000000005      55.335000000000001
   274   1      8.9250000000000043      58.904999999999994      53.550000000000004
   275   1      7.1400000000000077      57.120000000000005      57.120000000000005
   276   1      7.1400000000000077      58.904999999999994      58.904999999999994
   277   1      8.9250000000000043      57.120000000000005      58.904999999999994
   278   1      8.9250000000000043      58.904999999999994      57.120000000000005
   279   1      8.9250000000000043      57.120000000000005      62.475000000000001
   280   1      8.9250000000000043      58.904999999999994      60.689999999999998
   281   1      8.9250000000000043      60.689999999999998                  41.055
   282   1      8.9250000000000043      60.689999999999998                  44.625
   283   1      8.9250000000000043      62.475000000000001      42.840000000000003
   284   1      7.1400000000000077      60.689999999999998      46.410000000000004
   285   1      7.1400000000000077      62.475000000000001                  48.195
   286   1      8.9250000000000043      60.689999999999998                  48.195
   287   1      8.9250000000000043      62.475000000000001      46.410000000000004
   288   1      7.1400000000000077      60.689999999999998      49.980000000000004
   289   1      7.1400000000000077      62.475000000000001      51.765000000000001
   290   1      8.9250000000000043      60.689999999999998      51.765000000000001
   291   1      8.9250000000000043      62.475000000000001      49.980000000000004
   292   1      7.1400000000000077      60.689999999999998      53.550000000000004
   293   1      8.9250000000000043      60.689999999999998      55.335000000000001
   294   1      8.9250000000000043      62.475000000000001      53.550000000000004
   295   1      8.9250000000000043      60.689999999999998      58.904999999999994
   296   1      8.9250000000000043      62.475000000000001      57.120000000000005
   297   1      8.9250000000000043      64.260000000000005                  48.195
   298   1      8.9250000000000043      64.260000000000005      51.765000000000001
   299   1      8.9250000000000043      66.045000000000002      49.980000000000004
   300   1      12.495000000000005      30.344999999999999      46.410000000000004
   301   1      12.495000000000005      30.344999999999999      49.980000000000004
   302   1      12.495000000000005      30.344999999999999      53.550000000000004
   303   1      12.495000000000005      33.914999999999999      39.270000000000003
   304   1      10.710000000000008      33.914999999999999                  44.625
   305   1      12.495000000000005      32.130000000000003                  44.625
   306   1      12.495000000000005      33.914999999999999      42.840000000000003
   307   1      10.710000000000008      33.914999999999999                  48.195
   308   1      12.495000000000005      32.130000000000003                  48.195
   309   1      12.495000000000005      33.914999999999999      46.410000000000004
   310   1      10.710000000000008      32.130000000000003      49.980000000000004
   311   1      10.710000000000008      33.914999999999999      51.765000000000001
   312   1      12.495000000000005      32.130000000000003      51.765000000000001
   313   1      12.495000000000005      33.914999999999999      49.980000000000004
   314   1      10.710000000000008      33.914999999999999      55.335000000000001
   315   1      12.495000000000005      32.130000000000003      55.335000000000001
   316   1      12.495000000000005      33.914999999999999      53.550000000000004
   317   1      12.495000000000005      33.914999999999999      57.120000000000005
   318   1      12.495000000000005      33.914999999999999      60.689999999999998
   319   1      10.710000000000008      37.484999999999999      37.484999999999999
   320   1      12.495000000000005      35.700000000000003      37.484999999999999
   321   1      12.495000000000005      37.484999999999999      35.700000000000003
   322   1      10.710000000000008      37.484999999999999                  41.055
   323   1      12.495000000000005      35.700000000000003                  41.055
   324   1      12.495000000000005      37.484999999999999      39.270000000000003
   325   1      10.710000000000008      35.700000000000003      42.840000000000003
   326   1      10.710000000000008      37.484999999999999                  44.625
   327   1      12.495000000000005      35.700000000000003                  44.625
   328   1      12.495000000000005      37.484999999999999      42.840000000000003
   329   1      10.710000000000008      35.700000000000003      46.410000000000004
   330   1      10.710000000000008      37.484999999999999                  48.195
   331   1      12.495000000000005      35.700000000000003                  48.195
   332   1      12.495000000000005      37.484999999999999      46.410000000000004
   333   1      10.710000000000008      35.700000000000003      49.980000000000004
   334   1      10.710000000000008      37.484999999999999      51.765000000000001
   335   1      12.495000000000005      35.700000000000003      51.765000000000001
   336   1      12.495000000000005      37.484999999999999      49.980000000000004
   337   1      10.710000000000008      35.700000000000003      53.550000000000004
   338   1      10.710000000000008      37.484999999999999      55.335000000000001
   339   1      12.495000000000005      35.700000000000003      55.335000000000001
   340   1      12.495000000000005      37.484999999999999      53.550000000000004
   341   1      10.710000000000008      35.700000000000003      57.120000000000005
   342   1      10.710000000000008      37.484999999999999      58.904999999999994
   343   1      12.495000000000005      35.700000000000003      58.904999999999994
   344   1      12.495000000000005      37.484999999999999      57.120000000000005
   345   1      10.710000000000008      37.484999999999999      62.475000000000001
   346   1      12.495000000000005      35.700000000000003      62.475000000000001
   347   1      12.495000000000005      37.484999999999999      60.689999999999998
   348   1      12.495000000000005      37.484999999999999      64.260000000000005
   349   1      12.495000000000005      39.270000000000003      33.914999999999999
   350   1      10.710000000000008                  41.055      37.484999999999999
   351   1      12.495000000000005      39.270000000000003      37.484999999999999
   352   1      12.495000000000005                  41.055      35.700000000000003
   353   1      10.710000000000008      39.270000000000003      39.270000000000003
   354   1      10.710000000000008                  41.055                  41.055
   355   1      12.495000000000005      39.270000000000003                  41.055
   356   1      12.495000000000005                  41.055      39.270000000000003
   357   1      10.710000000000008      39.270000000000003      42.840000000000003
   358   1      10.710000000000008                  41.055                  44.625