model_files/Co/Co_30000/Co_211/data.Co_211_hcp_30069 (written by ASE) 

30069 	 atoms 
1  atom types
0.0                      70  xlo xhi
0.0                      70  ylo yhi
0.0                      70  zlo zhi


Atoms 

     1   1      1.2549999999999955      33.884999999999998      35.139999999999993
     2   1      1.2549999999999955      35.139999999999993      33.884999999999998
     3   1      69.999999999999986      35.139999999999993      35.139999999999993
     4   1      1.2549999999999955      35.139999999999993      36.394999999999996
     5   1      1.2549999999999955      36.394999999999996      35.139999999999993
     6   1      3.7649999999999935      28.864999999999988      35.139999999999993
     7   1       2.509999999999998      31.374999999999993      33.884999999999998
     8   1      3.7649999999999935       30.11999999999999      33.884999999999998
     9   1      3.7649999999999935      31.374999999999993      32.629999999999995
    10   1       2.509999999999998       30.11999999999999      35.139999999999993
    11   1       2.509999999999998      31.374999999999993      36.394999999999996
    12   1      3.7649999999999935       30.11999999999999      36.394999999999996
    13   1      3.7649999999999935      31.374999999999993      35.139999999999993
    14   1      3.7649999999999935      31.374999999999993      37.649999999999991
    15   1       2.509999999999998      33.884999999999998      31.374999999999993
    16   1      3.7649999999999935      32.629999999999995      31.374999999999993
    17   1      3.7649999999999935      33.884999999999998       30.11999999999999
    18   1       2.509999999999998      32.629999999999995      32.629999999999995
    19   1       2.509999999999998      33.884999999999998      33.884999999999998
    20   1      3.7649999999999935      32.629999999999995      33.884999999999998
    21   1      3.7649999999999935      33.884999999999998      32.629999999999995
    22   1       2.509999999999998      32.629999999999995      35.139999999999993
    23   1       2.509999999999998      33.884999999999998      36.394999999999996
    24   1      3.7649999999999935      32.629999999999995      36.394999999999996
    25   1      3.7649999999999935      33.884999999999998      35.139999999999993
    26   1       2.509999999999998      32.629999999999995      37.649999999999991
    27   1       2.509999999999998      33.884999999999998      38.904999999999994
    28   1      3.7649999999999935      32.629999999999995      38.904999999999994
    29   1      3.7649999999999935      33.884999999999998      37.649999999999991
    30   1      3.7649999999999935      33.884999999999998      40.159999999999982
    31   1      3.7649999999999935      35.139999999999993      28.864999999999988
    32   1       2.509999999999998      35.139999999999993       30.11999999999999
    33   1       2.509999999999998      36.394999999999996      31.374999999999993
    34   1      3.7649999999999935      35.139999999999993      31.374999999999993
    35   1      3.7649999999999935      36.394999999999996       30.11999999999999
    36   1       2.509999999999998      35.139999999999993      32.629999999999995
    37   1       2.509999999999998      36.394999999999996      33.884999999999998
    38   1      3.7649999999999935      35.139999999999993      33.884999999999998
    39   1      3.7649999999999935      36.394999999999996      32.629999999999995
    40   1       2.509999999999998      35.139999999999993      35.139999999999993
    41   1       2.509999999999998      36.394999999999996      36.394999999999996
    42   1      3.7649999999999935      35.139999999999993      36.394999999999996
    43   1      3.7649999999999935      36.394999999999996      35.139999999999993
    44   1       2.509999999999998      35.139999999999993      37.649999999999991
    45   1       2.509999999999998      36.394999999999996      38.904999999999994
    46   1      3.7649999999999935      35.139999999999993      38.904999999999994
    47   1      3.7649999999999935      36.394999999999996      37.649999999999991
    48   1       2.509999999999998      35.139999999999993      40.159999999999982
    49   1      3.7649999999999935      35.139999999999993      41.414999999999992
    50   1      3.7649999999999935      36.394999999999996      40.159999999999982
    51   1      3.7649999999999935      37.649999999999991      31.374999999999993
    52   1       2.509999999999998      37.649999999999991      32.629999999999995
    53   1       2.509999999999998      38.904999999999994      33.884999999999998
    54   1      3.7649999999999935      37.649999999999991      33.884999999999998
    55   1      3.7649999999999935      38.904999999999994      32.629999999999995
    56   1       2.509999999999998      37.649999999999991      35.139999999999993
    57   1       2.509999999999998      38.904999999999994      36.394999999999996
    58   1      3.7649999999999935      37.649999999999991      36.394999999999996
    59   1      3.7649999999999935      38.904999999999994      35.139999999999993
    60   1       2.509999999999998      37.649999999999991      37.649999999999991
    61   1      3.7649999999999935      37.649999999999991      38.904999999999994
    62   1      3.7649999999999935      38.904999999999994      37.649999999999991
    63   1      3.7649999999999935      40.159999999999982      33.884999999999998
    64   1       2.509999999999998      40.159999999999982      35.139999999999993
    65   1      3.7649999999999935      40.159999999999982      36.394999999999996
    66   1      3.7649999999999935      41.414999999999992      35.139999999999993
    67   1       6.274999999999995      23.844999999999992      35.139999999999993
    68   1       5.019999999999996      26.354999999999993      33.884999999999998
    69   1       6.274999999999995      25.099999999999994      33.884999999999998
    70   1       6.274999999999995      26.354999999999993      32.629999999999995
    71   1       5.019999999999996      25.099999999999994      35.139999999999993
    72   1       5.019999999999996      26.354999999999993      36.394999999999996
    73   1       6.274999999999995      25.099999999999994      36.394999999999996
    74   1       6.274999999999995      26.354999999999993      35.139999999999993
    75   1       6.274999999999995      26.354999999999993      37.649999999999991
    76   1       5.019999999999996      28.864999999999988      31.374999999999993
    77   1       6.274999999999995      27.609999999999992      31.374999999999993
    78   1       6.274999999999995      28.864999999999988       30.11999999999999
    79   1       5.019999999999996      27.609999999999992      32.629999999999995
    80   1       5.019999999999996      28.864999999999988      33.884999999999998
    81   1       6.274999999999995      27.609999999999992      33.884999999999998
    82   1       6.274999999999995      28.864999999999988      32.629999999999995
    83   1       5.019999999999996      27.609999999999992      35.139999999999993
    84   1       5.019999999999996      28.864999999999988      36.394999999999996
    85   1       6.274999999999995      27.609999999999992      36.394999999999996
    86   1       6.274999999999995      28.864999999999988      35.139999999999993
    87   1       5.019999999999996      27.609999999999992      37.649999999999991
    88   1       5.019999999999996      28.864999999999988      38.904999999999994
    89   1       6.274999999999995      27.609999999999992      38.904999999999994
    90   1       6.274999999999995      28.864999999999988      37.649999999999991
    91   1       6.274999999999995      28.864999999999988      40.159999999999982
    92   1       5.019999999999996      31.374999999999993      28.864999999999988
    93   1       6.274999999999995       30.11999999999999      28.864999999999988
    94   1       6.274999999999995      31.374999999999993      27.609999999999992
    95   1       5.019999999999996       30.11999999999999       30.11999999999999
    96   1       5.019999999999996      31.374999999999993      31.374999999999993
    97   1       6.274999999999995       30.11999999999999      31.374999999999993
    98   1       6.274999999999995      31.374999999999993       30.11999999999999
    99   1       5.019999999999996       30.11999999999999      32.629999999999995
   100   1       5.019999999999996      31.374999999999993      33.884999999999998
   101   1       6.274999999999995       30.11999999999999      33.884999999999998
   102   1       6.274999999999995      31.374999999999993      32.629999999999995
   103   1       5.019999999999996       30.11999999999999      35.139999999999993
   104   1       5.019999999999996      31.374999999999993      36.394999999999996
   105   1       6.274999999999995       30.11999999999999      36.394999999999996
   106   1       6.274999999999995      31.374999999999993      35.139999999999993
   107   1       5.019999999999996       30.11999999999999      37.649999999999991
   108   1       5.019999999999996      31.374999999999993      38.904999999999994
   109   1       6.274999999999995       30.11999999999999      38.904999999999994
   110   1       6.274999999999995      31.374999999999993      37.649999999999991
   111   1       5.019999999999996       30.11999999999999      40.159999999999982
   112   1       5.019999999999996      31.374999999999993      41.414999999999992
   113   1       6.274999999999995       30.11999999999999      41.414999999999992
   114   1       6.274999999999995      31.374999999999993      40.159999999999982
   115   1       6.274999999999995      31.374999999999993       42.66999999999998
   116   1       5.019999999999996      33.884999999999998      26.354999999999993
   117   1       6.274999999999995      32.629999999999995      26.354999999999993
   118   1       6.274999999999995      33.884999999999998      25.099999999999994
   119   1       5.019999999999996      32.629999999999995      27.609999999999992
   120   1       5.019999999999996      33.884999999999998      28.864999999999988
   121   1       6.274999999999995      32.629999999999995      28.864999999999988
   122   1       6.274999999999995      33.884999999999998      27.609999999999992
   123   1       5.019999999999996      32.629999999999995       30.11999999999999
   124   1       5.019999999999996      33.884999999999998      31.374999999999993
   125   1       6.274999999999995      32.629999999999995      31.374999999999993
   126   1       6.274999999999995      33.884999999999998       30.11999999999999
   127   1       5.019999999999996      32.629999999999995      32.629999999999995
   128   1       5.019999999999996      33.884999999999998      33.884999999999998
   129   1       6.274999999999995      32.629999999999995      33.884999999999998
   130   1       6.274999999999995      33.884999999999998      32.629999999999995
   131   1       5.019999999999996      32.629999999999995      35.139999999999993
   132   1       5.019999999999996      33.884999999999998      36.394999999999996
   133   1       6.274999999999995      32.629999999999995      36.394999999999996
   134   1       6.274999999999995      33.884999999999998      35.139999999999993
   135   1       5.019999999999996      32.629999999999995      37.649999999999991
   136   1       5.019999999999996      33.884999999999998      38.904999999999994
   137   1       6.274999999999995      32.629999999999995      38.904999999999994
   138   1       6.274999999999995      33.884999999999998      37.649999999999991
   139   1       5.019999999999996      32.629999999999995      40.159999999999982
   140   1       5.019999999999996      33.884999999999998      41.414999999999992
   141   1       6.274999999999995      32.629999999999995      41.414999999999992
   142   1       6.274999999999995      33.884999999999998      40.159999999999982
   143   1       5.019999999999996      32.629999999999995       42.66999999999998
   144   1       5.019999999999996      33.884999999999998       43.92499999999999
   145   1       6.274999999999995      32.629999999999995       43.92499999999999
   146   1       6.274999999999995      33.884999999999998       42.66999999999998
   147   1       6.274999999999995      33.884999999999998      45.179999999999993
   148   1       6.274999999999995      35.139999999999993      23.844999999999992
   149   1       5.019999999999996      35.139999999999993      25.099999999999994
   150   1       5.019999999999996      36.394999999999996      26.354999999999993
   151   1       6.274999999999995      35.139999999999993      26.354999999999993
   152   1       6.274999999999995      36.394999999999996      25.099999999999994
   153   1       5.019999999999996      35.139999999999993      27.609999999999992
   154   1       5.019999999999996      36.394999999999996      28.864999999999988
   155   1       6.274999999999995      35.139999999999993      28.864999999999988
   156   1       6.274999999999995      36.394999999999996      27.609999999999992
   157   1       5.019999999999996      35.139999999999993       30.11999999999999
   158   1       5.019999999999996      36.394999999999996      31.374999999999993
   159   1       6.274999999999995      35.139999999999993      31.374999999999993
   160   1       6.274999999999995      36.394999999999996       30.11999999999999
   161   1       5.019999999999996      35.139999999999993      32.629999999999995
   162   1       5.019999999999996      36.394999999999996      33.884999999999998
   163   1       6.274999999999995      35.139999999999993      33.884999999999998
   164   1       6.274999999999995      36.394999999999996      32.629999999999995
   165   1       5.019999999999996      35.139999999999993      35.139999999999993
   166   1       5.019999999999996      36.394999999999996      36.394999999999996
   167   1       6.274999999999995      35.139999999999993      36.394999999999996
   168   1       6.274999999999995      36.394999999999996      35.139999999999993
   169   1       5.019999999999996      35.139999999999993      37.649999999999991
   170   1       5.019999999999996      36.394999999999996      38.904999999999994
   171   1       6.274999999999995      35.139999999999993      38.904999999999994
   172   1       6.274999999999995      36.394999999999996      37.649999999999991
   173   1       5.019999999999996      35.139999999999993      40.159999999999982
   174   1       5.019999999999996      36.394999999999996      41.414999999999992
   175   1       6.274999999999995      35.139999999999993      41.414999999999992
   176   1       6.274999999999995      36.394999999999996      40.159999999999982
   177   1       5.019999999999996      35.139999999999993       42.66999999999998
   178   1       5.019999999999996      36.394999999999996       43.92499999999999
   179   1       6.274999999999995      35.139999999999993       43.92499999999999
   180   1       6.274999999999995      36.394999999999996       42.66999999999998
   181   1       5.019999999999996      35.139999999999993      45.179999999999993
   182   1       6.274999999999995      35.139999999999993      46.434999999999995
   183   1       6.274999999999995      36.394999999999996      45.179999999999993
   184   1       6.274999999999995      37.649999999999991      26.354999999999993
   185   1       5.019999999999996      37.649999999999991      27.609999999999992
   186   1       5.019999999999996      38.904999999999994      28.864999999999988
   187   1       6.274999999999995      37.649999999999991      28.864999999999988
   188   1       6.274999999999995      38.904999999999994      27.609999999999992
   189   1       5.019999999999996      37.649999999999991       30.11999999999999
   190   1       5.019999999999996      38.904999999999994      31.374999999999993
   191   1       6.274999999999995      37.649999999999991      31.374999999999993
   192   1       6.274999999999995      38.904999999999994       30.11999999999999
   193   1       5.019999999999996      37.649999999999991      32.629999999999995
   194   1       5.019999999999996      38.904999999999994      33.884999999999998
   195   1       6.274999999999995      37.649999999999991      33.884999999999998
   196   1       6.274999999999995      38.904999999999994      32.629999999999995
   197   1       5.019999999999996      37.649999999999991      35.139999999999993
   198   1       5.019999999999996      38.904999999999994      36.394999999999996
   199   1       6.274999999999995      37.649999999999991      36.394999999999996
   200   1       6.274999999999995      38.904999999999994      35.139999999999993
   201   1       5.019999999999996      37.649999999999991      37.649999999999991
   202   1       5.019999999999996      38.904999999999994      38.904999999999994
   203   1       6.274999999999995      37.649999999999991      38.904999999999994
   204   1       6.274999999999995      38.904999999999994      37.649999999999991
   205   1       5.019999999999996      37.649999999999991      40.159999999999982
   206   1       5.019999999999996      38.904999999999994      41.414999999999992
   207   1       6.274999999999995      37.649999999999991      41.414999999999992
   208   1       6.274999999999995      38.904999999999994      40.159999999999982
   209   1       5.019999999999996      37.649999999999991       42.66999999999998
   210   1       6.274999999999995      37.649999999999991       43.92499999999999
   211   1       6.274999999999995      38.904999999999994       42.66999999999998
   212   1       6.274999999999995      40.159999999999982      28.864999999999988
   213   1       5.019999999999996      40.159999999999982       30.11999999999999
   214   1       5.019999999999996      41.414999999999992      31.374999999999993
   215   1       6.274999999999995      40.159999999999982      31.374999999999993
   216   1       6.274999999999995      41.414999999999992       30.11999999999999
   217   1       5.019999999999996      40.159999999999982      32.629999999999995
   218   1       5.019999999999996      41.414999999999992      33.884999999999998
   219   1       6.274999999999995      40.159999999999982      33.884999999999998
   220   1       6.274999999999995      41.414999999999992      32.629999999999995
   221   1       5.019999999999996      40.159999999999982      35.139999999999993
   222   1       5.019999999999996      41.414999999999992      36.394999999999996
   223   1       6.274999999999995      40.159999999999982      36.394999999999996
   224   1       6.274999999999995      41.414999999999992      35.139999999999993
   225   1       5.019999999999996      40.159999999999982      37.649999999999991
   226   1       5.019999999999996      41.414999999999992      38.904999999999994
   227   1       6.274999999999995      40.159999999999982      38.904999999999994
   228   1       6.274999999999995      41.414999999999992      37.649999999999991
   229   1       5.019999999999996      40.159999999999982      40.159999999999982
   230   1       6.274999999999995      40.159999999999982      41.414999999999992
   231   1       6.274999999999995      41.414999999999992      40.159999999999982
   232   1       6.274999999999995       42.66999999999998      31.374999999999993
   233   1       5.019999999999996       42.66999999999998      32.629999999999995
   234   1       5.019999999999996       43.92499999999999      33.884999999999998
   235   1       6.274999999999995       42.66999999999998      33.884999999999998
   236   1       6.274999999999995       43.92499999999999      32.629999999999995
   237   1       5.019999999999996       42.66999999999998      35.139999999999993
   238   1       5.019999999999996       43.92499999999999      36.394999999999996
   239   1       6.274999999999995       42.66999999999998      36.394999999999996
   240   1       6.274999999999995       43.92499999999999      35.139999999999993
   241   1       5.019999999999996       42.66999999999998      37.649999999999991
   242   1       6.274999999999995       42.66999999999998      38.904999999999994
   243   1       6.274999999999995       43.92499999999999      37.649999999999991
   244   1       6.274999999999995      45.179999999999993      33.884999999999998
   245   1       5.019999999999996      45.179999999999993      35.139999999999993
   246   1       6.274999999999995      45.179999999999993      36.394999999999996
   247   1       6.274999999999995      46.434999999999995      35.139999999999993
   248   1       8.784999999999993      18.824999999999992      35.139999999999993
   249   1       7.529999999999994       21.33499999999999      33.884999999999998
   250   1       8.784999999999993      20.079999999999988      33.884999999999998
   251   1       8.784999999999993       21.33499999999999      32.629999999999995
   252   1       7.529999999999994      20.079999999999988      35.139999999999993
   253   1       7.529999999999994       21.33499999999999      36.394999999999996
   254   1       8.784999999999993      20.079999999999988      36.394999999999996
   255   1       8.784999999999993       21.33499999999999      35.139999999999993
   256   1       8.784999999999993       21.33499999999999      37.649999999999991
   257   1       7.529999999999994      23.844999999999992      31.374999999999993
   258   1       8.784999999999993      22.589999999999993      31.374999999999993
   259   1       8.784999999999993      23.844999999999992       30.11999999999999
   260   1       7.529999999999994      22.589999999999993      32.629999999999995
   261   1       7.529999999999994      23.844999999999992      33.884999999999998
   262   1       8.784999999999993      22.589999999999993      33.884999999999998
   263   1       8.784999999999993      23.844999999999992      32.629999999999995
   264   1       7.529999999999994      22.589999999999993      35.139999999999993
   265   1       7.529999999999994      23.844999999999992      36.394999999999996
   266   1       8.784999999999993      22.589999999999993      36.394999999999996
   267   1       8.784999999999993      23.844999999999992      35.139999999999993
   268   1       7.529999999999994      22.589999999999993      37.649999999999991
   269   1       7.529999999999994      23.844999999999992      38.904999999999994
   270   1       8.784999999999993      22.589999999999993      38.904999999999994
   271   1       8.784999999999993      23.844999999999992      37.649999999999991
   272   1       8.784999999999993      23.844999999999992      40.159999999999982
   273   1       7.529999999999994      26.354999999999993      28.864999999999988
   274   1       8.784999999999993      25.099999999999994      28.864999999999988
   275   1       8.784999999999993      26.354999999999993      27.609999999999992
   276   1       7.529999999999994      25.099999999999994       30.11999999999999
   277   1       7.529999999999994      26.354999999999993      31.374999999999993
   278   1       8.784999999999993      25.099999999999994      31.374999999999993
   279   1       8.784999999999993      26.354999999999993       30.11999999999999
   280   1       7.529999999999994      25.099999999999994      32.629999999999995
   281   1       7.529999999999994      26.354999999999993      33.884999999999998
   282   1       8.784999999999993      25.099999999999994      33.884999999999998
   283   1       8.784999999999993      26.354999999999993      32.629999999999995
   284   1       7.529999999999994      25.099999999999994      35.139999999999993
   285   1       7.529999999999994      26.354999999999993      36.394999999999996
   286   1       8.784999999999993      25.099999999999994      36.394999999999996
   287   1       8.784999999999993      26.354999999999993      35.139999999999993
   288   1       7.529999999999994      25.099999999999994      37.649999999999991
   289   1       7.529999999999994      26.354999999999993      38.904999999999994
   290   1       8.784999999999993      25.099999999999994      38.904999999999994
   291   1       8.784999999999993      26.354999999999993      37.649999999999991
   292   1       7.529999999999994      25.099999999999994      40.159999999999982
   293   1       7.529999999999994      26.354999999999993      41.414999999999992
   294   1       8.784999999999993      25.099999999999994      41.414999999999992
   295   1       8.784999999999993      26.354999999999993      40.159999999999982
   296   1       8.784999999999993      26.354999999999993       42.66999999999998
   297   1       7.529999999999994      28.864999999999988      26.354999999999993
   298   1       8.784999999999993      27.609999999999992      26.354999999999993
   299   1       8.784999999999993      28.864999999999988      25.099999999999994
   300   1       7.529999999999994      27.609999999999992      27.609999999999992
   301   1       7.529999999999994      28.864999999999988      28.864999999999988
   302   1       8.784999999999993      27.609999999999992      28.864999999999988
   303   1       8.784999999999993      28.864999999999988      27.609999999999992
   304   1       7.529999999999994      27.609999999999992       30.11999999999999
   305   1       7.529999999999994      28.864999999999988      31.374999999999993
   306   1       8.784999999999993      27.609999999999992      31.374999999999993
   307   1       8.784999999999993      28.864999999999988       30.11999999999999
   308   1       7.529999999999994      27.609999999999992      32.629999999999995
   309   1       7.529999999999994      28.864999999999988      33.884999999999998
   310   1       8.784999999999993      27.609999999999992      33.884999999999998
   311   1       8.784999999999993      28.864999999999988      32.629999999999995
   312   1       7.529999999999994      27.609999999999992      35.139999999999993
   313   1       7.529999999999994      28.864999999999988      36.394999999999996
   314   1       8.784999999999993      27.609999999999992      36.394999999999996
   315   1       8.784999999999993      28.864999999999988      35.139999999999993
   316   1       7.529999999999994      27.609999999999992      37.649999999999991
   317   1       7.529999999999994      28.864999999999988      38.904999999999994
   318   1       8.784999999999993      27.609999999999992      38.904999999999994
   319   1       8.784999999999993      28.864999999999988      37.649999999999991
   320   1       7.529999999999994      27.609999999999992      40.159999999999982
   321   1       7.529999999999994      28.864999999999988      41.414999999999992
   322   1       8.784999999999993      27.609999999999992      41.414999999999992
   323   1       8.784999999999993      28.864999999999988      40.159999999999982
   324   1       7.529999999999994      27.609999999999992       42.66999999999998
   325   1       7.529999999999994      28.864999999999988       43.92499999999999
   326   1       8.784999999999993      27.609999999999992       43.92499999999999
   327   1       8.784999999999993      28.864999999999988       42.66999999999998
   328   1       8.784999999999993      28.864999999999988      45.179999999999993
   329   1       7.529999999999994      31.374999999999993      23.844999999999992
   330   1       8.784999999999993       30.11999999999999      23.844999999999992
   331   1       8.784999999999993      31.374999999999993      22.589999999999993
   332   1       7.529999999999994       30.11999999999999      25.099999999999994
   333   1       7.529999999999994      31.374999999999993      26.354999999999993
   334   1       8.784999999999993       30.11999999999999      26.354999999999993
   335   1       8.784999999999993      31.374999999999993      25.099999999999994
   336   1       7.529999999999994       30.11999999999999      27.609999999999992
   337   1       7.529999999999994      31.374999999999993      28.864999999999988
   338   1       8.784999999999993       30.11999999999999      28.864999999999988
   339   1       8.784999999999993      31.374999999999993      27.609999999999992
   340   1       7.529999999999994       30.11999999999999       30.11999999999999
   341   1       7.529999999999994      31.374999999999993      31.374999999999993
   342   1       8.784999999999993       30.11999999999999      31.374999999999993
   343   1       8.784999999999993      31.374999999999993       30.11999999999999
   344   1       7.529999999999994       30.11999999999999      32.629999999999995
   345   1       7.529999999999994      31.374999999999993      33.884999999999998
   346   1       8.784999999999993       30.11999999999999      33.884999999999998
   347   1       8.784999999999993      31.374999999999993      32.629999999999995
   348   1       7.529999999999994       30.11999999999999      35.139999999999993
   349   1       7.529999999999994      31.374999999999993      36.394999999999996
   350   1       8.784999999999993       30.11999999999999      36.394999999999996
   351   1       8.784999999999993      31.374999999999993      35.139999999999993
   352   1       7.529999999999994       30.11999999999999      37.649999999999991
   353   1       7.529999999999994      31.374999999999993      38.904999999999994
   354   1       8.784999999999993       30.11999999999999      38.904999999999994
   355   1       8.784999999999993      31.374999999999993      37.649999999999991
   356   1       7.529999999999994       30.11999999999999      40.159999999999982
   357   1       7.529999999999994      31.374999999999993      41.414999999999992
   358   1       8.784999999999993       30.11999999999999      41.414999999999992