model_files/PtFe/PtFe_30000/PtFe_110/PtFe_110_fcc_31263_temp.data (written by ASE) 

31263 	 atoms 
2  atom types
0.0                     112  xlo xhi
0.0                     112  ylo yhi
0.0                     112  zlo zhi


Atoms 

     1   1      111.99999999999999      54.519999999999989      54.519999999999989
     2   1      1.8799999999999955      52.639999999999993      54.519999999999989
     3   1      1.8799999999999955      54.519999999999989      52.639999999999993
     4   1      111.99999999999999      54.519999999999989      58.279999999999987
     5   1      1.8799999999999955      52.639999999999993      58.279999999999987
     6   1      1.8799999999999955      54.519999999999989      56.399999999999984
     7   1      1.8799999999999955      54.519999999999989      60.159999999999989
     8   1      111.99999999999999      58.279999999999987      54.519999999999989
     9   1      1.8799999999999955      56.399999999999984      54.519999999999989
    10   1      1.8799999999999955      58.279999999999987      52.639999999999993
    11   1      111.99999999999999      56.399999999999984      56.399999999999984
    12   1      111.99999999999999      58.279999999999987      58.279999999999987
    13   1      1.8799999999999955      56.399999999999984      58.279999999999987
    14   1      1.8799999999999955      58.279999999999987      56.399999999999984
    15   1      1.8799999999999955      58.279999999999987      60.159999999999989
    16   1      1.8799999999999955      60.159999999999989      54.519999999999989
    17   1      1.8799999999999955      60.159999999999989      58.279999999999987
    18   1      3.7599999999999909      50.759999999999998      50.759999999999998
    19   1      5.6399999999999935      48.879999999999995      50.759999999999998
    20   1      5.6399999999999935      50.759999999999998      48.879999999999995
    21   1      3.7599999999999909      50.759999999999998      54.519999999999989
    22   1      5.6399999999999935      48.879999999999995      54.519999999999989
    23   1      5.6399999999999935      50.759999999999998      52.639999999999993
    24   1      3.7599999999999909      50.759999999999998      58.279999999999987
    25   1      5.6399999999999935      48.879999999999995      58.279999999999987
    26   1      5.6399999999999935      50.759999999999998      56.399999999999984
    27   1      3.7599999999999909      50.759999999999998      62.039999999999992
    28   1      5.6399999999999935      48.879999999999995      62.039999999999992
    29   1      5.6399999999999935      50.759999999999998      60.159999999999989
    30   1      5.6399999999999935      50.759999999999998      63.919999999999987
    31   1      3.7599999999999909      54.519999999999989      50.759999999999998
    32   1      5.6399999999999935      52.639999999999993      50.759999999999998
    33   1      5.6399999999999935      54.519999999999989      48.879999999999995
    34   1      3.7599999999999909      52.639999999999993      52.639999999999993
    35   1      3.7599999999999909      54.519999999999989      54.519999999999989
    36   1      5.6399999999999935      52.639999999999993      54.519999999999989
    37   1      5.6399999999999935      54.519999999999989      52.639999999999993
    38   1      3.7599999999999909      52.639999999999993      56.399999999999984
    39   1      3.7599999999999909      54.519999999999989      58.279999999999987
    40   1      5.6399999999999935      52.639999999999993      58.279999999999987
    41   1      5.6399999999999935      54.519999999999989      56.399999999999984
    42   1      3.7599999999999909      52.639999999999993      60.159999999999989
    43   1      3.7599999999999909      54.519999999999989      62.039999999999992
    44   1      5.6399999999999935      52.639999999999993      62.039999999999992
    45   1      5.6399999999999935      54.519999999999989      60.159999999999989
    46   1      5.6399999999999935      54.519999999999989      63.919999999999987
    47   1      3.7599999999999909      58.279999999999987      50.759999999999998
    48   1      5.6399999999999935      56.399999999999984      50.759999999999998
    49   1      5.6399999999999935      58.279999999999987      48.879999999999995
    50   1      3.7599999999999909      56.399999999999984      52.639999999999993
    51   1      3.7599999999999909      58.279999999999987      54.519999999999989
    52   1      5.6399999999999935      56.399999999999984      54.519999999999989
    53   1      5.6399999999999935      58.279999999999987      52.639999999999993
    54   1      3.7599999999999909      56.399999999999984      56.399999999999984
    55   1      3.7599999999999909      58.279999999999987      58.279999999999987
    56   1      5.6399999999999935      56.399999999999984      58.279999999999987
    57   1      5.6399999999999935      58.279999999999987      56.399999999999984
    58   1      3.7599999999999909      56.399999999999984      60.159999999999989
    59   1      3.7599999999999909      58.279999999999987      62.039999999999992
    60   1      5.6399999999999935      56.399999999999984      62.039999999999992
    61   1      5.6399999999999935      58.279999999999987      60.159999999999989
    62   1      5.6399999999999935      58.279999999999987      63.919999999999987
    63   1      3.7599999999999909      62.039999999999992      50.759999999999998
    64   1      5.6399999999999935      60.159999999999989      50.759999999999998
    65   1      5.6399999999999935      62.039999999999992      48.879999999999995
    66   1      3.7599999999999909      60.159999999999989      52.639999999999993
    67   1      3.7599999999999909      62.039999999999992      54.519999999999989
    68   1      5.6399999999999935      60.159999999999989      54.519999999999989
    69   1      5.6399999999999935      62.039999999999992      52.639999999999993
    70   1      3.7599999999999909      60.159999999999989      56.399999999999984
    71   1      3.7599999999999909      62.039999999999992      58.279999999999987
    72   1      5.6399999999999935      60.159999999999989      58.279999999999987
    73   1      5.6399999999999935      62.039999999999992      56.399999999999984
    74   1      3.7599999999999909      60.159999999999989      60.159999999999989
    75   1      3.7599999999999909      62.039999999999992      62.039999999999992
    76   1      5.6399999999999935      60.159999999999989      62.039999999999992
    77   1      5.6399999999999935      62.039999999999992      60.159999999999989
    78   1      5.6399999999999935      62.039999999999992      63.919999999999987
    79   1      5.6399999999999935      63.919999999999987      50.759999999999998
    80   1      5.6399999999999935      63.919999999999987      54.519999999999989
    81   1      5.6399999999999935      63.919999999999987      58.279999999999987
    82   1      5.6399999999999935      63.919999999999987      62.039999999999992
    83   1      7.5199999999999951      46.999999999999986      46.999999999999986
    84   1      9.3999999999999915       45.11999999999999      46.999999999999986
    85   1      9.3999999999999915      46.999999999999986       45.11999999999999
    86   1      7.5199999999999951      46.999999999999986      50.759999999999998
    87   1      9.3999999999999915       45.11999999999999      50.759999999999998
    88   1      9.3999999999999915      46.999999999999986      48.879999999999995
    89   1      7.5199999999999951      46.999999999999986      54.519999999999989
    90   1      9.3999999999999915       45.11999999999999      54.519999999999989
    91   1      9.3999999999999915      46.999999999999986      52.639999999999993
    92   1      7.5199999999999951      46.999999999999986      58.279999999999987
    93   1      9.3999999999999915       45.11999999999999      58.279999999999987
    94   1      9.3999999999999915      46.999999999999986      56.399999999999984
    95   1      7.5199999999999951      46.999999999999986      62.039999999999992
    96   1      9.3999999999999915       45.11999999999999      62.039999999999992
    97   1      9.3999999999999915      46.999999999999986      60.159999999999989
    98   1      7.5199999999999951      46.999999999999986      65.799999999999983
    99   1      9.3999999999999915       45.11999999999999      65.799999999999983
   100   1      9.3999999999999915      46.999999999999986      63.919999999999987
   101   1      9.3999999999999915      46.999999999999986      67.679999999999993
   102   1      7.5199999999999951      50.759999999999998      46.999999999999986
   103   1      9.3999999999999915      48.879999999999995      46.999999999999986
   104   1      9.3999999999999915      50.759999999999998       45.11999999999999
   105   1      7.5199999999999951      48.879999999999995      48.879999999999995
   106   1      7.5199999999999951      50.759999999999998      50.759999999999998
   107   1      9.3999999999999915      48.879999999999995      50.759999999999998
   108   1      9.3999999999999915      50.759999999999998      48.879999999999995
   109   1      7.5199999999999951      48.879999999999995      52.639999999999993
   110   1      7.5199999999999951      50.759999999999998      54.519999999999989
   111   1      9.3999999999999915      48.879999999999995      54.519999999999989
   112   1      9.3999999999999915      50.759999999999998      52.639999999999993
   113   1      7.5199999999999951      48.879999999999995      56.399999999999984
   114   1      7.5199999999999951      50.759999999999998      58.279999999999987
   115   1      9.3999999999999915      48.879999999999995      58.279999999999987
   116   1      9.3999999999999915      50.759999999999998      56.399999999999984
   117   1      7.5199999999999951      48.879999999999995      60.159999999999989
   118   1      7.5199999999999951      50.759999999999998      62.039999999999992
   119   1      9.3999999999999915      48.879999999999995      62.039999999999992
   120   1      9.3999999999999915      50.759999999999998      60.159999999999989
   121   1      7.5199999999999951      48.879999999999995      63.919999999999987
   122   1      7.5199999999999951      50.759999999999998      65.799999999999983
   123   1      9.3999999999999915      48.879999999999995      65.799999999999983
   124   1      9.3999999999999915      50.759999999999998      63.919999999999987
   125   1      9.3999999999999915      50.759999999999998      67.679999999999993
   126   1      7.5199999999999951      54.519999999999989      46.999999999999986
   127   1      9.3999999999999915      52.639999999999993      46.999999999999986
   128   1      9.3999999999999915      54.519999999999989       45.11999999999999
   129   1      7.5199999999999951      52.639999999999993      48.879999999999995
   130   1      7.5199999999999951      54.519999999999989      50.759999999999998
   131   1      9.3999999999999915      52.639999999999993      50.759999999999998
   132   1      9.3999999999999915      54.519999999999989      48.879999999999995
   133   1      7.5199999999999951      52.639999999999993      52.639999999999993
   134   1      7.5199999999999951      54.519999999999989      54.519999999999989
   135   1      9.3999999999999915      52.639999999999993      54.519999999999989
   136   1      9.3999999999999915      54.519999999999989      52.639999999999993
   137   1      7.5199999999999951      52.639999999999993      56.399999999999984
   138   1      7.5199999999999951      54.519999999999989      58.279999999999987
   139   1      9.3999999999999915      52.639999999999993      58.279999999999987
   140   1      9.3999999999999915      54.519999999999989      56.399999999999984
   141   1      7.5199999999999951      52.639999999999993      60.159999999999989
   142   1      7.5199999999999951      54.519999999999989      62.039999999999992
   143   1      9.3999999999999915      52.639999999999993      62.039999999999992
   144   1      9.3999999999999915      54.519999999999989      60.159999999999989
   145   1      7.5199999999999951      52.639999999999993      63.919999999999987
   146   1      7.5199999999999951      54.519999999999989      65.799999999999983
   147   1      9.3999999999999915      52.639999999999993      65.799999999999983
   148   1      9.3999999999999915      54.519999999999989      63.919999999999987
   149   1      9.3999999999999915      54.519999999999989      67.679999999999993
   150   1      7.5199999999999951      58.279999999999987      46.999999999999986
   151   1      9.3999999999999915      56.399999999999984      46.999999999999986
   152   1      9.3999999999999915      58.279999999999987       45.11999999999999
   153   1      7.5199999999999951      56.399999999999984      48.879999999999995
   154   1      7.5199999999999951      58.279999999999987      50.759999999999998
   155   1      9.3999999999999915      56.399999999999984      50.759999999999998
   156   1      9.3999999999999915      58.279999999999987      48.879999999999995
   157   1      7.5199999999999951      56.399999999999984      52.639999999999993
   158   1      7.5199999999999951      58.279999999999987      54.519999999999989
   159   1      9.3999999999999915      56.399999999999984      54.519999999999989
   160   1      9.3999999999999915      58.279999999999987      52.639999999999993
   161   1      7.5199999999999951      56.399999999999984      56.399999999999984
   162   1      7.5199999999999951      58.279999999999987      58.279999999999987
   163   1      9.3999999999999915      56.399999999999984      58.279999999999987
   164   1      9.3999999999999915      58.279999999999987      56.399999999999984
   165   1      7.5199999999999951      56.399999999999984      60.159999999999989
   166   1      7.5199999999999951      58.279999999999987      62.039999999999992
   167   1      9.3999999999999915      56.399999999999984      62.039999999999992
   168   1      9.3999999999999915      58.279999999999987      60.159999999999989
   169   1      7.5199999999999951      56.399999999999984      63.919999999999987
   170   1      7.5199999999999951      58.279999999999987      65.799999999999983
   171   1      9.3999999999999915      56.399999999999984      65.799999999999983
   172   1      9.3999999999999915      58.279999999999987      63.919999999999987
   173   1      9.3999999999999915      58.279999999999987      67.679999999999993
   174   1      7.5199999999999951      62.039999999999992      46.999999999999986
   175   1      9.3999999999999915      60.159999999999989      46.999999999999986
   176   1      9.3999999999999915      62.039999999999992       45.11999999999999
   177   1      7.5199999999999951      60.159999999999989      48.879999999999995
   178   1      7.5199999999999951      62.039999999999992      50.759999999999998
   179   1      9.3999999999999915      60.159999999999989      50.759999999999998
   180   1      9.3999999999999915      62.039999999999992      48.879999999999995
   181   1      7.5199999999999951      60.159999999999989      52.639999999999993
   182   1      7.5199999999999951      62.039999999999992      54.519999999999989
   183   1      9.3999999999999915      60.159999999999989      54.519999999999989
   184   1      9.3999999999999915      62.039999999999992      52.639999999999993
   185   1      7.5199999999999951      60.159999999999989      56.399999999999984
   186   1      7.5199999999999951      62.039999999999992      58.279999999999987
   187   1      9.3999999999999915      60.159999999999989      58.279999999999987
   188   1      9.3999999999999915      62.039999999999992      56.399999999999984
   189   1      7.5199999999999951      60.159999999999989      60.159999999999989
   190   1      7.5199999999999951      62.039999999999992      62.039999999999992
   191   1      9.3999999999999915      60.159999999999989      62.039999999999992
   192   1      9.3999999999999915      62.039999999999992      60.159999999999989
   193   1      7.5199999999999951      60.159999999999989      63.919999999999987
   194   1      7.5199999999999951      62.039999999999992      65.799999999999983
   195   1      9.3999999999999915      60.159999999999989      65.799999999999983
   196   1      9.3999999999999915      62.039999999999992      63.919999999999987
   197   1      9.3999999999999915      62.039999999999992      67.679999999999993
   198   1      7.5199999999999951      65.799999999999983      46.999999999999986
   199   1      9.3999999999999915      63.919999999999987      46.999999999999986
   200   1      9.3999999999999915      65.799999999999983       45.11999999999999
   201   1      7.5199999999999951      63.919999999999987      48.879999999999995
   202   1      7.5199999999999951      65.799999999999983      50.759999999999998
   203   1      9.3999999999999915      63.919999999999987      50.759999999999998
   204   1      9.3999999999999915      65.799999999999983      48.879999999999995
   205   1      7.5199999999999951      63.919999999999987      52.639999999999993
   206   1      7.5199999999999951      65.799999999999983      54.519999999999989
   207   1      9.3999999999999915      63.919999999999987      54.519999999999989
   208   1      9.3999999999999915      65.799999999999983      52.639999999999993
   209   1      7.5199999999999951      63.919999999999987      56.399999999999984
   210   1      7.5199999999999951      65.799999999999983      58.279999999999987
   211   1      9.3999999999999915      63.919999999999987      58.279999999999987
   212   1      9.3999999999999915      65.799999999999983      56.399999999999984
   213   1      7.5199999999999951      63.919999999999987      60.159999999999989
   214   1      7.5199999999999951      65.799999999999983      62.039999999999992
   215   1      9.3999999999999915      63.919999999999987      62.039999999999992
   216   1      9.3999999999999915      65.799999999999983      60.159999999999989
   217   1      7.5199999999999951      63.919999999999987      63.919999999999987
   218   1      7.5199999999999951      65.799999999999983      65.799999999999983
   219   1      9.3999999999999915      63.919999999999987      65.799999999999983
   220   1      9.3999999999999915      65.799999999999983      63.919999999999987
   221   1      9.3999999999999915      65.799999999999983      67.679999999999993
   222   1      9.3999999999999915      67.679999999999993      46.999999999999986
   223   1      9.3999999999999915      67.679999999999993      50.759999999999998
   224   1      9.3999999999999915      67.679999999999993      54.519999999999989
   225   1      9.3999999999999915      67.679999999999993      58.279999999999987
   226   1      9.3999999999999915      67.679999999999993      62.039999999999992
   227   1      9.3999999999999915      67.679999999999993      65.799999999999983
   228   1      11.279999999999994      43.239999999999995      43.239999999999995
   229   1      13.159999999999997      41.359999999999992      43.239999999999995
   230   1      13.159999999999997      43.239999999999995      41.359999999999992
   231   1      11.279999999999994      43.239999999999995      46.999999999999986
   232   1      13.159999999999997      41.359999999999992      46.999999999999986
   233   1      13.159999999999997      43.239999999999995       45.11999999999999
   234   1      11.279999999999994      43.239999999999995      50.759999999999998
   235   1      13.159999999999997      41.359999999999992      50.759999999999998
   236   1      13.159999999999997      43.239999999999995      48.879999999999995
   237   1      11.279999999999994      43.239999999999995      54.519999999999989
   238   1      13.159999999999997      41.359999999999992      54.519999999999989
   239   1      13.159999999999997      43.239999999999995      52.639999999999993
   240   1      11.279999999999994      43.239999999999995      58.279999999999987
   241   1      13.159999999999997      41.359999999999992      58.279999999999987
   242   1      13.159999999999997      43.239999999999995      56.399999999999984
   243   1      11.279999999999994      43.239999999999995      62.039999999999992
   244   1      13.159999999999997      41.359999999999992      62.039999999999992
   245   1      13.159999999999997      43.239999999999995      60.159999999999989
   246   1      11.279999999999994      43.239999999999995      65.799999999999983
   247   1      13.159999999999997      41.359999999999992      65.799999999999983
   248   1      13.159999999999997      43.239999999999995      63.919999999999987
   249   1      11.279999999999994      43.239999999999995      69.559999999999974
   250   1      13.159999999999997      41.359999999999992      69.559999999999974
   251   1      13.159999999999997      43.239999999999995      67.679999999999993
   252   1      13.159999999999997      43.239999999999995      71.439999999999984
   253   1      11.279999999999994      46.999999999999986      43.239999999999995
   254   1      13.159999999999997       45.11999999999999      43.239999999999995
   255   1      13.159999999999997      46.999999999999986      41.359999999999992
   256   1      11.279999999999994       45.11999999999999       45.11999999999999
   257   1      11.279999999999994      46.999999999999986      46.999999999999986
   258   1      13.159999999999997       45.11999999999999      46.999999999999986
   259   1      13.159999999999997      46.999999999999986       45.11999999999999
   260   1      11.279999999999994       45.11999999999999      48.879999999999995
   261   1      11.279999999999994      46.999999999999986      50.759999999999998
   262   1      13.159999999999997       45.11999999999999      50.759999999999998
   263   1      13.159999999999997      46.999999999999986      48.879999999999995
   264   1      11.279999999999994       45.11999999999999      52.639999999999993
   265   1      11.279999999999994      46.999999999999986      54.519999999999989
   266   1      13.159999999999997       45.11999999999999      54.519999999999989
   267   1      13.159999999999997      46.999999999999986      52.639999999999993
   268   1      11.279999999999994       45.11999999999999      56.399999999999984
   269   1      11.279999999999994      46.999999999999986      58.279999999999987
   270   1      13.159999999999997       45.11999999999999      58.279999999999987
   271   1      13.159999999999997      46.999999999999986      56.399999999999984
   272   1      11.279999999999994       45.11999999999999      60.159999999999989
   273   1      11.279999999999994      46.999999999999986      62.039999999999992
   274   1      13.159999999999997       45.11999999999999      62.039999999999992
   275   1      13.159999999999997      46.999999999999986      60.159999999999989
   276   1      11.279999999999994       45.11999999999999      63.919999999999987
   277   1      11.279999999999994      46.999999999999986      65.799999999999983
   278   1      13.159999999999997       45.11999999999999      65.799999999999983
   279   1      13.159999999999997      46.999999999999986      63.919999999999987
   280   1      11.279999999999994       45.11999999999999      67.679999999999993
   281   1      11.279999999999994      46.999999999999986      69.559999999999974
   282   1      13.159999999999997       45.11999999999999      69.559999999999974
   283   1      13.159999999999997      46.999999999999986      67.679999999999993
   284   1      13.159999999999997      46.999999999999986      71.439999999999984
   285   1      11.279999999999994      50.759999999999998      43.239999999999995
   286   1      13.159999999999997      48.879999999999995      43.239999999999995
   287   1      13.159999999999997      50.759999999999998      41.359999999999992
   288   1      11.279999999999994      48.879999999999995       45.11999999999999
   289   1      11.279999999999994      50.759999999999998      46.999999999999986
   290   1      13.159999999999997      48.879999999999995      46.999999999999986
   291   1      13.159999999999997      50.759999999999998       45.11999999999999
   292   1      11.279999999999994      48.879999999999995      48.879999999999995
   293   1      11.279999999999994      50.759999999999998      50.759999999999998
   294   1      13.159999999999997      48.879999999999995      50.759999999999998
   295   1      13.159999999999997      50.759999999999998      48.879999999999995
   296   1      11.279999999999994      48.879999999999995      52.639999999999993
   297   1      11.279999999999994      50.759999999999998      54.519999999999989
   298   1      13.159999999999997      48.879999999999995      54.519999999999989
   299   1      13.159999999999997      50.759999999999998      52.639999999999993
   300   1      11.279999999999994      48.879999999999995      56.399999999999984
   301   1      11.279999999999994      50.759999999999998      58.279999999999987
   302   1      13.159999999999997      48.879999999999995      58.279999999999987
   303   1      13.159999999999997      50.759999999999998      56.399999999999984
   304   1      11.279999999999994      48.879999999999995      60.159999999999989
   305   1      11.279999999999994      50.759999999999998      62.039999999999992
   306   1      13.159999999999997      48.879999999999995      62.039999999999992
   307   1      13.159999999999997      50.759999999999998      60.159999999999989
   308   1      11.279999999999994      48.879999999999995      63.919999999999987
   309   1      11.279999999999994      50.759999999999998      65.799999999999983
   310   1      13.159999999999997      48.879999999999995      65.799999999999983
   311   1      13.159999999999997      50.759999999999998      63.919999999999987
   312   1      11.279999999999994      48.879999999999995      67.679999999999993
   313   1      11.279999999999994      50.759999999999998      69.559999999999974
   314   1      13.159999999999997      48.879999999999995      69.559999999999974
   315   1      13.159999999999997      50.759999999999998      67.679999999999993
   316   1      13.159999999999997      50.759999999999998      71.439999999999984
   317   1      11.279999999999994      54.519999999999989      43.239999999999995
   318   1      13.159999999999997      52.639999999999993      43.239999999999995
   319   1      13.159999999999997      54.519999999999989      41.359999999999992
   320   1      11.279999999999994      52.639999999999993       45.11999999999999
   321   1      11.279999999999994      54.519999999999989      46.999999999999986
   322   1      13.159999999999997      52.639999999999993      46.999999999999986
   323   1      13.159999999999997      54.519999999999989       45.11999999999999
   324   1      11.279999999999994      52.639999999999993      48.879999999999995
   325   1      11.279999999999994      54.519999999999989      50.759999999999998
   326   1      13.159999999999997      52.639999999999993      50.759999999999998
   327   1      13.159999999999997      54.519999999999989      48.879999999999995
   328   1      11.279999999999994      52.639999999999993      52.639999999999993
   329   1      11.279999999999994      54.519999999999989      54.519999999999989
   330   1      13.159999999999997      52.639999999999993      54.519999999999989
   331   1      13.159999999999997      54.519999999999989      52.639999999999993
   332   1      11.279999999999994      52.639999999999993      56.399999999999984
   333   1      11.279999999999994      54.519999999999989      58.279999999999987
   334   1      13.159999999999997      52.639999999999993      58.279999999999987
   335   1      13.159999999999997      54.519999999999989      56.399999999999984
   336   1      11.279999999999994      52.639999999999993      60.159999999999989
   337   1      11.279999999999994      54.519999999999989      62.039999999999992
   338   1      13.159999999999997      52.639999999999993      62.039999999999992
   339   1      13.159999999999997      54.519999999999989      60.159999999999989
   340   1      11.279999999999994      52.639999999999993      63.919999999999987
   341   1      11.279999999999994      54.519999999999989      65.799999999999983
   342   1      13.159999999999997      52.639999999999993      65.799999999999983
   343   1      13.159999999999997      54.519999999999989      63.919999999999987
   344   1      11.279999999999994      52.639999999999993      67.679999999999993
   345   1      11.279999999999994      54.519999999999989      69.559999999999974
   346   1      13.159999999999997      52.639999999999993      69.559999999999974
   347   1      13.159999999999997      54.519999999999989      67.679999999999993
   348   1      13.159999999999997      54.519999999999989      71.439999999999984
   349   1      11.279999999999994      58.279999999999987      43.239999999999995
   350   1      13.159999999999997      56.399999999999984      43.239999999999995
   351   1      13.159999999999997      58.279999999999987      41.359999999999992
   352   1      11.279999999999994      56.399999999999984       45.11999999999999
   353   1      11.279999999999994      58.279999999999987      46.999999999999986
   354   1      13.159999999999997      56.399999999999984      46.999999999999986
   355   1      13.159999999999997      58.279999999999987       45.11999999999999
   356   1      11.279999999999994      56.399999999999984      48.879999999999995
   357   1      11.279999999999994      58.279999999999987      50.759999999999998
   358   1      13.159999999999997      56.399999999999984      50.759999999999998