model_files/NiCoCrFeMn/NiCoCrFeMn_30000/NiCoCrFeMn_110/NiCoCrFeMn_110_fcc_31263_temp.data (written by ASE) 

31263 	 atoms 
5  atom types
0.0                     109  xlo xhi
0.0                     109  ylo yhi
0.0                     109  zlo zhi


Atoms 

     1   1                       0      52.127500000000012      52.127500000000012
     2   1      1.7974999999999997      50.330000000000005      52.127500000000012
     3   1      1.7974999999999997      52.127500000000012      50.330000000000005
     4   1                       0      52.127500000000012      55.722500000000004
     5   1      1.7974999999999997      50.330000000000005      55.722500000000004
     6   1      1.7974999999999997      52.127500000000012      53.925000000000004
     7   1      1.7974999999999997      52.127500000000012       57.52000000000001
     8   1                       0      55.722500000000004      52.127500000000012
     9   1      1.7974999999999997      53.925000000000004      52.127500000000012
    10   1      1.7974999999999997      55.722500000000004      50.330000000000005
    11   1                       0      53.925000000000004      53.925000000000004
    12   1                       0      55.722500000000004      55.722500000000004
    13   1      1.7974999999999997      53.925000000000004      55.722500000000004
    14   1      1.7974999999999997      55.722500000000004      53.925000000000004
    15   1      1.7974999999999997      55.722500000000004       57.52000000000001
    16   1      1.7974999999999997       57.52000000000001      52.127500000000012
    17   1      1.7974999999999997       57.52000000000001      55.722500000000004
    18   1      3.5949999999999993      48.532500000000013      48.532500000000013
    19   1      5.3925000000000054      46.735000000000007      48.532500000000013
    20   1      5.3925000000000054      48.532500000000013      46.735000000000007
    21   1      3.5949999999999993      48.532500000000013      52.127500000000012
    22   1      5.3925000000000054      46.735000000000007      52.127500000000012
    23   1      5.3925000000000054      48.532500000000013      50.330000000000005
    24   1      3.5949999999999993      48.532500000000013      55.722500000000004
    25   1      5.3925000000000054      46.735000000000007      55.722500000000004
    26   1      5.3925000000000054      48.532500000000013      53.925000000000004
    27   1      3.5949999999999993      48.532500000000013       59.31750000000001
    28   1      5.3925000000000054      46.735000000000007       59.31750000000001
    29   1      5.3925000000000054      48.532500000000013       57.52000000000001
    30   1      5.3925000000000054      48.532500000000013      61.115000000000016
    31   1      3.5949999999999993      52.127500000000012      48.532500000000013
    32   1      5.3925000000000054      50.330000000000005      48.532500000000013
    33   1      5.3925000000000054      52.127500000000012      46.735000000000007
    34   1      3.5949999999999993      50.330000000000005      50.330000000000005
    35   1      3.5949999999999993      52.127500000000012      52.127500000000012
    36   1      5.3925000000000054      50.330000000000005      52.127500000000012
    37   1      5.3925000000000054      52.127500000000012      50.330000000000005
    38   1      3.5949999999999993      50.330000000000005      53.925000000000004
    39   1      3.5949999999999993      52.127500000000012      55.722500000000004
    40   1      5.3925000000000054      50.330000000000005      55.722500000000004
    41   1      5.3925000000000054      52.127500000000012      53.925000000000004
    42   1      3.5949999999999993      50.330000000000005       57.52000000000001
    43   1      3.5949999999999993      52.127500000000012       59.31750000000001
    44   1      5.3925000000000054      50.330000000000005       59.31750000000001
    45   1      5.3925000000000054      52.127500000000012       57.52000000000001
    46   1      5.3925000000000054      52.127500000000012      61.115000000000016
    47   1      3.5949999999999993      55.722500000000004      48.532500000000013
    48   1      5.3925000000000054      53.925000000000004      48.532500000000013
    49   1      5.3925000000000054      55.722500000000004      46.735000000000007
    50   1      3.5949999999999993      53.925000000000004      50.330000000000005
    51   1      3.5949999999999993      55.722500000000004      52.127500000000012
    52   1      5.3925000000000054      53.925000000000004      52.127500000000012
    53   1      5.3925000000000054      55.722500000000004      50.330000000000005
    54   1      3.5949999999999993      53.925000000000004      53.925000000000004
    55   1      3.5949999999999993      55.722500000000004      55.722500000000004
    56   1      5.3925000000000054      53.925000000000004      55.722500000000004
    57   1      5.3925000000000054      55.722500000000004      53.925000000000004
    58   1      3.5949999999999993      53.925000000000004       57.52000000000001
    59   1      3.5949999999999993      55.722500000000004       59.31750000000001
    60   1      5.3925000000000054      53.925000000000004       59.31750000000001
    61   1      5.3925000000000054      55.722500000000004       57.52000000000001
    62   1      5.3925000000000054      55.722500000000004      61.115000000000016
    63   1      3.5949999999999993       59.31750000000001      48.532500000000013
    64   1      5.3925000000000054       57.52000000000001      48.532500000000013
    65   1      5.3925000000000054       59.31750000000001      46.735000000000007
    66   1      3.5949999999999993       57.52000000000001      50.330000000000005
    67   1      3.5949999999999993       59.31750000000001      52.127500000000012
    68   1      5.3925000000000054       57.52000000000001      52.127500000000012
    69   1      5.3925000000000054       59.31750000000001      50.330000000000005
    70   1      3.5949999999999993       57.52000000000001      53.925000000000004
    71   1      3.5949999999999993       59.31750000000001      55.722500000000004
    72   1      5.3925000000000054       57.52000000000001      55.722500000000004
    73   1      5.3925000000000054       59.31750000000001      53.925000000000004
    74   1      3.5949999999999993       57.52000000000001       57.52000000000001
    75   1      3.5949999999999993       59.31750000000001       59.31750000000001
    76   1      5.3925000000000054       57.52000000000001       59.31750000000001
    77   1      5.3925000000000054       59.31750000000001       57.52000000000001
    78   1      5.3925000000000054       59.31750000000001      61.115000000000016
    79   1      5.3925000000000054      61.115000000000016      48.532500000000013
    80   1      5.3925000000000054      61.115000000000016      52.127500000000012
    81   1      5.3925000000000054      61.115000000000016      55.722500000000004
    82   1      5.3925000000000054      61.115000000000016       59.31750000000001
    83   1      7.1900000000000057      44.937500000000007      44.937500000000007
    84   1       8.987500000000006      43.140000000000001      44.937500000000007
    85   1       8.987500000000006      44.937500000000007      43.140000000000001
    86   1      7.1900000000000057      44.937500000000007      48.532500000000013
    87   1       8.987500000000006      43.140000000000001      48.532500000000013
    88   1       8.987500000000006      44.937500000000007      46.735000000000007
    89   1      7.1900000000000057      44.937500000000007      52.127500000000012
    90   1       8.987500000000006      43.140000000000001      52.127500000000012
    91   1       8.987500000000006      44.937500000000007      50.330000000000005
    92   1      7.1900000000000057      44.937500000000007      55.722500000000004
    93   1       8.987500000000006      43.140000000000001      55.722500000000004
    94   1       8.987500000000006      44.937500000000007      53.925000000000004
    95   1      7.1900000000000057      44.937500000000007       59.31750000000001
    96   1       8.987500000000006      43.140000000000001       59.31750000000001
    97   1       8.987500000000006      44.937500000000007       57.52000000000001
    98   1      7.1900000000000057      44.937500000000007      62.912500000000016
    99   1       8.987500000000006      43.140000000000001      62.912500000000016
   100   1       8.987500000000006      44.937500000000007      61.115000000000016
   101   1       8.987500000000006      44.937500000000007      64.710000000000008
   102   1      7.1900000000000057      48.532500000000013      44.937500000000007
   103   1       8.987500000000006      46.735000000000007      44.937500000000007
   104   1       8.987500000000006      48.532500000000013      43.140000000000001
   105   1      7.1900000000000057      46.735000000000007      46.735000000000007
   106   1      7.1900000000000057      48.532500000000013      48.532500000000013
   107   1       8.987500000000006      46.735000000000007      48.532500000000013
   108   1       8.987500000000006      48.532500000000013      46.735000000000007
   109   1      7.1900000000000057      46.735000000000007      50.330000000000005
   110   1      7.1900000000000057      48.532500000000013      52.127500000000012
   111   1       8.987500000000006      46.735000000000007      52.127500000000012
   112   1       8.987500000000006      48.532500000000013      50.330000000000005
   113   1      7.1900000000000057      46.735000000000007      53.925000000000004
   114   1      7.1900000000000057      48.532500000000013      55.722500000000004
   115   1       8.987500000000006      46.735000000000007      55.722500000000004
   116   1       8.987500000000006      48.532500000000013      53.925000000000004
   117   1      7.1900000000000057      46.735000000000007       57.52000000000001
   118   1      7.1900000000000057      48.532500000000013       59.31750000000001
   119   1       8.987500000000006      46.735000000000007       59.31750000000001
   120   1       8.987500000000006      48.532500000000013       57.52000000000001
   121   1      7.1900000000000057      46.735000000000007      61.115000000000016
   122   1      7.1900000000000057      48.532500000000013      62.912500000000016
   123   1       8.987500000000006      46.735000000000007      62.912500000000016
   124   1       8.987500000000006      48.532500000000013      61.115000000000016
   125   1       8.987500000000006      48.532500000000013      64.710000000000008
   126   1      7.1900000000000057      52.127500000000012      44.937500000000007
   127   1       8.987500000000006      50.330000000000005      44.937500000000007
   128   1       8.987500000000006      52.127500000000012      43.140000000000001
   129   1      7.1900000000000057      50.330000000000005      46.735000000000007
   130   1      7.1900000000000057      52.127500000000012      48.532500000000013
   131   1       8.987500000000006      50.330000000000005      48.532500000000013
   132   1       8.987500000000006      52.127500000000012      46.735000000000007
   133   1      7.1900000000000057      50.330000000000005      50.330000000000005
   134   1      7.1900000000000057      52.127500000000012      52.127500000000012
   135   1       8.987500000000006      50.330000000000005      52.127500000000012
   136   1       8.987500000000006      52.127500000000012      50.330000000000005
   137   1      7.1900000000000057      50.330000000000005      53.925000000000004
   138   1      7.1900000000000057      52.127500000000012      55.722500000000004
   139   1       8.987500000000006      50.330000000000005      55.722500000000004
   140   1       8.987500000000006      52.127500000000012      53.925000000000004
   141   1      7.1900000000000057      50.330000000000005       57.52000000000001
   142   1      7.1900000000000057      52.127500000000012       59.31750000000001
   143   1       8.987500000000006      50.330000000000005       59.31750000000001
   144   1       8.987500000000006      52.127500000000012       57.52000000000001
   145   1      7.1900000000000057      50.330000000000005      61.115000000000016
   146   1      7.1900000000000057      52.127500000000012      62.912500000000016
   147   1       8.987500000000006      50.330000000000005      62.912500000000016
   148   1       8.987500000000006      52.127500000000012      61.115000000000016
   149   1       8.987500000000006      52.127500000000012      64.710000000000008
   150   1      7.1900000000000057      55.722500000000004      44.937500000000007
   151   1       8.987500000000006      53.925000000000004      44.937500000000007
   152   1       8.987500000000006      55.722500000000004      43.140000000000001
   153   1      7.1900000000000057      53.925000000000004      46.735000000000007
   154   1      7.1900000000000057      55.722500000000004      48.532500000000013
   155   1       8.987500000000006      53.925000000000004      48.532500000000013
   156   1       8.987500000000006      55.722500000000004      46.735000000000007
   157   1      7.1900000000000057      53.925000000000004      50.330000000000005
   158   1      7.1900000000000057      55.722500000000004      52.127500000000012
   159   1       8.987500000000006      53.925000000000004      52.127500000000012
   160   1       8.987500000000006      55.722500000000004      50.330000000000005
   161   1      7.1900000000000057      53.925000000000004      53.925000000000004
   162   1      7.1900000000000057      55.722500000000004      55.722500000000004
   163   1       8.987500000000006      53.925000000000004      55.722500000000004
   164   1       8.987500000000006      55.722500000000004      53.925000000000004
   165   1      7.1900000000000057      53.925000000000004       57.52000000000001
   166   1      7.1900000000000057      55.722500000000004       59.31750000000001
   167   1       8.987500000000006      53.925000000000004       59.31750000000001
   168   1       8.987500000000006      55.722500000000004       57.52000000000001
   169   1      7.1900000000000057      53.925000000000004      61.115000000000016
   170   1      7.1900000000000057      55.722500000000004      62.912500000000016
   171   1       8.987500000000006      53.925000000000004      62.912500000000016
   172   1       8.987500000000006      55.722500000000004      61.115000000000016
   173   1       8.987500000000006      55.722500000000004      64.710000000000008
   174   1      7.1900000000000057       59.31750000000001      44.937500000000007
   175   1       8.987500000000006       57.52000000000001      44.937500000000007
   176   1       8.987500000000006       59.31750000000001      43.140000000000001
   177   1      7.1900000000000057       57.52000000000001      46.735000000000007
   178   1      7.1900000000000057       59.31750000000001      48.532500000000013
   179   1       8.987500000000006       57.52000000000001      48.532500000000013
   180   1       8.987500000000006       59.31750000000001      46.735000000000007
   181   1      7.1900000000000057       57.52000000000001      50.330000000000005
   182   1      7.1900000000000057       59.31750000000001      52.127500000000012
   183   1       8.987500000000006       57.52000000000001      52.127500000000012
   184   1       8.987500000000006       59.31750000000001      50.330000000000005
   185   1      7.1900000000000057       57.52000000000001      53.925000000000004
   186   1      7.1900000000000057       59.31750000000001      55.722500000000004
   187   1       8.987500000000006       57.52000000000001      55.722500000000004
   188   1       8.987500000000006       59.31750000000001      53.925000000000004
   189   1      7.1900000000000057       57.52000000000001       57.52000000000001
   190   1      7.1900000000000057       59.31750000000001       59.31750000000001
   191   1       8.987500000000006       57.52000000000001       59.31750000000001
   192   1       8.987500000000006       59.31750000000001       57.52000000000001
   193   1      7.1900000000000057       57.52000000000001      61.115000000000016
   194   1      7.1900000000000057       59.31750000000001      62.912500000000016
   195   1       8.987500000000006       57.52000000000001      62.912500000000016
   196   1       8.987500000000006       59.31750000000001      61.115000000000016
   197   1       8.987500000000006       59.31750000000001      64.710000000000008
   198   1      7.1900000000000057      62.912500000000016      44.937500000000007
   199   1       8.987500000000006      61.115000000000016      44.937500000000007
   200   1       8.987500000000006      62.912500000000016      43.140000000000001
   201   1      7.1900000000000057      61.115000000000016      46.735000000000007
   202   1      7.1900000000000057      62.912500000000016      48.532500000000013
   203   1       8.987500000000006      61.115000000000016      48.532500000000013
   204   1       8.987500000000006      62.912500000000016      46.735000000000007
   205   1      7.1900000000000057      61.115000000000016      50.330000000000005
   206   1      7.1900000000000057      62.912500000000016      52.127500000000012
   207   1       8.987500000000006      61.115000000000016      52.127500000000012
   208   1       8.987500000000006      62.912500000000016      50.330000000000005
   209   1      7.1900000000000057      61.115000000000016      53.925000000000004
   210   1      7.1900000000000057      62.912500000000016      55.722500000000004
   211   1       8.987500000000006      61.115000000000016      55.722500000000004
   212   1       8.987500000000006      62.912500000000016      53.925000000000004
   213   1      7.1900000000000057      61.115000000000016       57.52000000000001
   214   1      7.1900000000000057      62.912500000000016       59.31750000000001
   215   1       8.987500000000006      61.115000000000016       59.31750000000001
   216   1       8.987500000000006      62.912500000000016       57.52000000000001
   217   1      7.1900000000000057      61.115000000000016      61.115000000000016
   218   1      7.1900000000000057      62.912500000000016      62.912500000000016
   219   1       8.987500000000006      61.115000000000016      62.912500000000016
   220   1       8.987500000000006      62.912500000000016      61.115000000000016
   221   1       8.987500000000006      62.912500000000016      64.710000000000008
   222   1       8.987500000000006      64.710000000000008      44.937500000000007
   223   1       8.987500000000006      64.710000000000008      48.532500000000013
   224   1       8.987500000000006      64.710000000000008      52.127500000000012
   225   1       8.987500000000006      64.710000000000008      55.722500000000004
   226   1       8.987500000000006      64.710000000000008       59.31750000000001
   227   1       8.987500000000006      64.710000000000008      62.912500000000016
   228   1      10.785000000000005      41.342500000000008      41.342500000000008
   229   1      12.582500000000005      39.545000000000002      41.342500000000008
   230   1      12.582500000000005      41.342500000000008      39.545000000000002
   231   1      10.785000000000005      41.342500000000008      44.937500000000007
   232   1      12.582500000000005      39.545000000000002      44.937500000000007
   233   1      12.582500000000005      41.342500000000008      43.140000000000001
   234   1      10.785000000000005      41.342500000000008      48.532500000000013
   235   1      12.582500000000005      39.545000000000002      48.532500000000013
   236   1      12.582500000000005      41.342500000000008      46.735000000000007
   237   1      10.785000000000005      41.342500000000008      52.127500000000012
   238   1      12.582500000000005      39.545000000000002      52.127500000000012
   239   1      12.582500000000005      41.342500000000008      50.330000000000005
   240   1      10.785000000000005      41.342500000000008      55.722500000000004
   241   1      12.582500000000005      39.545000000000002      55.722500000000004
   242   1      12.582500000000005      41.342500000000008      53.925000000000004
   243   1      10.785000000000005      41.342500000000008       59.31750000000001
   244   1      12.582500000000005      39.545000000000002       59.31750000000001
   245   1      12.582500000000005      41.342500000000008       57.52000000000001
   246   1      10.785000000000005      41.342500000000008      62.912500000000016
   247   1      12.582500000000005      39.545000000000002      62.912500000000016
   248   1      12.582500000000005      41.342500000000008      61.115000000000016
   249   1      10.785000000000005      41.342500000000008      66.507500000000007
   250   1      12.582500000000005      39.545000000000002      66.507500000000007
   251   1      12.582500000000005      41.342500000000008      64.710000000000008
   252   1      12.582500000000005      41.342500000000008      68.305000000000007
   253   1      10.785000000000005      44.937500000000007      41.342500000000008
   254   1      12.582500000000005      43.140000000000001      41.342500000000008
   255   1      12.582500000000005      44.937500000000007      39.545000000000002
   256   1      10.785000000000005      43.140000000000001      43.140000000000001
   257   1      10.785000000000005      44.937500000000007      44.937500000000007
   258   1      12.582500000000005      43.140000000000001      44.937500000000007
   259   1      12.582500000000005      44.937500000000007      43.140000000000001
   260   1      10.785000000000005      43.140000000000001      46.735000000000007
   261   1      10.785000000000005      44.937500000000007      48.532500000000013
   262   1      12.582500000000005      43.140000000000001      48.532500000000013
   263   1      12.582500000000005      44.937500000000007      46.735000000000007
   264   1      10.785000000000005      43.140000000000001      50.330000000000005
   265   1      10.785000000000005      44.937500000000007      52.127500000000012
   266   1      12.582500000000005      43.140000000000001      52.127500000000012
   267   1      12.582500000000005      44.937500000000007      50.330000000000005
   268   1      10.785000000000005      43.140000000000001      53.925000000000004
   269   1      10.785000000000005      44.937500000000007      55.722500000000004
   270   1      12.582500000000005      43.140000000000001      55.722500000000004
   271   1      12.582500000000005      44.937500000000007      53.925000000000004
   272   1      10.785000000000005      43.140000000000001       57.52000000000001
   273   1      10.785000000000005      44.937500000000007       59.31750000000001
   274   1      12.582500000000005      43.140000000000001       59.31750000000001
   275   1      12.582500000000005      44.937500000000007       57.52000000000001
   276   1      10.785000000000005      43.140000000000001      61.115000000000016
   277   1      10.785000000000005      44.937500000000007      62.912500000000016
   278   1      12.582500000000005      43.140000000000001      62.912500000000016
   279   1      12.582500000000005      44.937500000000007      61.115000000000016
   280   1      10.785000000000005      43.140000000000001      64.710000000000008
   281   1      10.785000000000005      44.937500000000007      66.507500000000007
   282   1      12.582500000000005      43.140000000000001      66.507500000000007
   283   1      12.582500000000005      44.937500000000007      64.710000000000008
   284   1      12.582500000000005      44.937500000000007      68.305000000000007
   285   1      10.785000000000005      48.532500000000013      41.342500000000008
   286   1      12.582500000000005      46.735000000000007      41.342500000000008
   287   1      12.582500000000005      48.532500000000013      39.545000000000002
   288   1      10.785000000000005      46.735000000000007      43.140000000000001
   289   1      10.785000000000005      48.532500000000013      44.937500000000007
   290   1      12.582500000000005      46.735000000000007      44.937500000000007
   291   1      12.582500000000005      48.532500000000013      43.140000000000001
   292   1      10.785000000000005      46.735000000000007      46.735000000000007
   293   1      10.785000000000005      48.532500000000013      48.532500000000013
   294   1      12.582500000000005      46.735000000000007      48.532500000000013
   295   1      12.582500000000005      48.532500000000013      46.735000000000007
   296   1      10.785000000000005      46.735000000000007      50.330000000000005
   297   1      10.785000000000005      48.532500000000013      52.127500000000012
   298   1      12.582500000000005      46.735000000000007      52.127500000000012
   299   1      12.582500000000005      48.532500000000013      50.330000000000005
   300   1      10.785000000000005      46.735000000000007      53.925000000000004
   301   1      10.785000000000005      48.532500000000013      55.722500000000004
   302   1      12.582500000000005      46.735000000000007      55.722500000000004
   303   1      12.582500000000005      48.532500000000013      53.925000000000004
   304   1      10.785000000000005      46.735000000000007       57.52000000000001
   305   1      10.785000000000005      48.532500000000013       59.31750000000001
   306   1      12.582500000000005      46.735000000000007       59.31750000000001
   307   1      12.582500000000005      48.532500000000013       57.52000000000001
   308   1      10.785000000000005      46.735000000000007      61.115000000000016
   309   1      10.785000000000005      48.532500000000013      62.912500000000016
   310   1      12.582500000000005      46.735000000000007      62.912500000000016
   311   1      12.582500000000005      48.532500000000013      61.115000000000016
   312   1      10.785000000000005      46.735000000000007      64.710000000000008
   313   1      10.785000000000005      48.532500000000013      66.507500000000007
   314   1      12.582500000000005      46.735000000000007      66.507500000000007
   315   1      12.582500000000005      48.532500000000013      64.710000000000008
   316   1      12.582500000000005      48.532500000000013      68.305000000000007
   317   1      10.785000000000005      52.127500000000012      41.342500000000008
   318   1      12.582500000000005      50.330000000000005      41.342500000000008
   319   1      12.582500000000005      52.127500000000012      39.545000000000002
   320   1      10.785000000000005      50.330000000000005      43.140000000000001
   321   1      10.785000000000005      52.127500000000012      44.937500000000007
   322   1      12.582500000000005      50.330000000000005      44.937500000000007
   323   1      12.582500000000005      52.127500000000012      43.140000000000001
   324   1      10.785000000000005      50.330000000000005      46.735000000000007
   325   1      10.785000000000005      52.127500000000012      48.532500000000013
   326   1      12.582500000000005      50.330000000000005      48.532500000000013
   327   1      12.582500000000005      52.127500000000012      46.735000000000007
   328   1      10.785000000000005      50.330000000000005      50.330000000000005
   329   1      10.785000000000005      52.127500000000012      52.127500000000012
   330   1      12.582500000000005      50.330000000000005      52.127500000000012
   331   1      12.582500000000005      52.127500000000012      50.330000000000005
   332   1      10.785000000000005      50.330000000000005      53.925000000000004
   333   1      10.785000000000005      52.127500000000012      55.722500000000004
   334   1      12.582500000000005      50.330000000000005      55.722500000000004
   335   1      12.582500000000005      52.127500000000012      53.925000000000004
   336   1      10.785000000000005      50.330000000000005       57.52000000000001
   337   1      10.785000000000005      52.127500000000012       59.31750000000001
   338   1      12.582500000000005      50.330000000000005       59.31750000000001
   339   1      12.582500000000005      52.127500000000012       57.52000000000001
   340   1      10.785000000000005      50.330000000000005      61.115000000000016
   341   1      10.785000000000005      52.127500000000012      62.912500000000016
   342   1      12.582500000000005      50.330000000000005      62.912500000000016
   343   1      12.582500000000005      52.127500000000012      61.115000000000016
   344   1      10.785000000000005      50.330000000000005      64.710000000000008
   345   1      10.785000000000005      52.127500000000012      66.507500000000007
   346   1      12.582500000000005      50.330000000000005      66.507500000000007
   347   1      12.582500000000005      52.127500000000012      64.710000000000008
   348   1      12.582500000000005      52.127500000000012      68.305000000000007
   349   1      10.785000000000005      55.722500000000004      41.342500000000008
   350   1      12.582500000000005      53.925000000000004      41.342500000000008
   351   1      12.582500000000005      55.722500000000004      39.545000000000002
   352   1      10.785000000000005      53.925000000000004      43.140000000000001
   353   1      10.785000000000005      55.722500000000004      44.937500000000007
   354   1      12.582500000000005      53.925000000000004      44.937500000000007
   355   1      12.582500000000005      55.722500000000004      43.140000000000001
   356   1      10.785000000000005      53.925000000000004      46.735000000000007
   357   1      10.785000000000005      55.722500000000004      48.532500000000013
   358   1      12.582500000000005      53.925000000000004      48.532500000000013