model_files/Pt/Pt_30000/Pt_532/data.Pt_532_fcc_30213 (written by ASE) 

30213 	 atoms 
1  atom types
0.0                     111  xlo xhi
0.0                     111  ylo yhi
0.0                     111  zlo zhi


Atoms 

     1   1      1.9600000000000009                      49      54.879999999999995
     2   1      1.9600000000000009      50.959999999999994      52.919999999999995
     3   1      1.9600000000000009      52.919999999999995      50.959999999999994
     4   1      1.9600000000000009      50.959999999999994      56.839999999999996
     5   1      1.9600000000000009      52.919999999999995      54.879999999999995
     6   1      1.9600000000000009      52.919999999999995       58.79999999999999
     7   1      1.9600000000000009      54.879999999999995                      49
     8   1      1.9600000000000009      54.879999999999995      52.919999999999995
     9   1      1.9600000000000009      56.839999999999996      50.959999999999994
    10   1                       0      54.879999999999995      54.879999999999995
    11   1      1.9600000000000009      54.879999999999995      56.839999999999996
    12   1      1.9600000000000009      56.839999999999996      54.879999999999995
    13   1      1.9600000000000009      54.879999999999995      60.759999999999998
    14   1      1.9600000000000009      56.839999999999996       58.79999999999999
    15   1      1.9600000000000009       58.79999999999999      52.919999999999995
    16   1      1.9600000000000009       58.79999999999999      56.839999999999996
    17   1      1.9600000000000009      60.759999999999998      54.879999999999995
    18   1      5.8799999999999955      45.079999999999998      50.959999999999994
    19   1      5.8799999999999955      45.079999999999998      54.879999999999995
    20   1      5.8799999999999955      45.079999999999998       58.79999999999999
    21   1      5.8799999999999955      47.039999999999999                      49
    22   1      5.8799999999999955                      49      47.039999999999999
    23   1      3.9200000000000017                      49      52.919999999999995
    24   1      5.8799999999999955      47.039999999999999      52.919999999999995
    25   1      5.8799999999999955                      49      50.959999999999994
    26   1      3.9200000000000017      47.039999999999999      54.879999999999995
    27   1      3.9200000000000017                      49      56.839999999999996
    28   1      5.8799999999999955      47.039999999999999      56.839999999999996
    29   1      5.8799999999999955                      49      54.879999999999995
    30   1      5.8799999999999955      47.039999999999999      60.759999999999998
    31   1      5.8799999999999955                      49       58.79999999999999
    32   1      5.8799999999999955                      49      62.719999999999999
    33   1      5.8799999999999955      50.959999999999994      45.079999999999998
    34   1      3.9200000000000017      52.919999999999995                      49
    35   1      5.8799999999999955      50.959999999999994                      49
    36   1      5.8799999999999955      52.919999999999995      47.039999999999999
    37   1      3.9200000000000017      50.959999999999994      50.959999999999994
    38   1      3.9200000000000017      52.919999999999995      52.919999999999995
    39   1      5.8799999999999955      50.959999999999994      52.919999999999995
    40   1      5.8799999999999955      52.919999999999995      50.959999999999994
    41   1      3.9200000000000017      50.959999999999994      54.879999999999995
    42   1      3.9200000000000017      52.919999999999995      56.839999999999996
    43   1      5.8799999999999955      50.959999999999994      56.839999999999996
    44   1      5.8799999999999955      52.919999999999995      54.879999999999995
    45   1      3.9200000000000017      50.959999999999994       58.79999999999999
    46   1      3.9200000000000017      52.919999999999995      60.759999999999998
    47   1      5.8799999999999955      50.959999999999994      60.759999999999998
    48   1      5.8799999999999955      52.919999999999995       58.79999999999999
    49   1      5.8799999999999955      50.959999999999994      64.679999999999993
    50   1      5.8799999999999955      52.919999999999995      62.719999999999999
    51   1      5.8799999999999955      54.879999999999995      45.079999999999998
    52   1      3.9200000000000017      54.879999999999995      47.039999999999999
    53   1      3.9200000000000017      56.839999999999996                      49
    54   1      5.8799999999999955      54.879999999999995                      49
    55   1      5.8799999999999955      56.839999999999996      47.039999999999999
    56   1      3.9200000000000017      54.879999999999995      50.959999999999994
    57   1      3.9200000000000017      56.839999999999996      52.919999999999995
    58   1      5.8799999999999955      54.879999999999995      52.919999999999995
    59   1      5.8799999999999955      56.839999999999996      50.959999999999994
    60   1      3.9200000000000017      54.879999999999995      54.879999999999995
    61   1      3.9200000000000017      56.839999999999996      56.839999999999996
    62   1      5.8799999999999955      54.879999999999995      56.839999999999996
    63   1      5.8799999999999955      56.839999999999996      54.879999999999995
    64   1      3.9200000000000017      54.879999999999995       58.79999999999999
    65   1      3.9200000000000017      56.839999999999996      60.759999999999998
    66   1      5.8799999999999955      54.879999999999995      60.759999999999998
    67   1      5.8799999999999955      56.839999999999996       58.79999999999999
    68   1      3.9200000000000017      54.879999999999995      62.719999999999999
    69   1      5.8799999999999955      54.879999999999995      64.679999999999993
    70   1      5.8799999999999955      56.839999999999996      62.719999999999999
    71   1      5.8799999999999955       58.79999999999999      45.079999999999998
    72   1      5.8799999999999955       58.79999999999999                      49
    73   1      5.8799999999999955      60.759999999999998      47.039999999999999
    74   1      3.9200000000000017       58.79999999999999      50.959999999999994
    75   1      3.9200000000000017      60.759999999999998      52.919999999999995
    76   1      5.8799999999999955       58.79999999999999      52.919999999999995
    77   1      5.8799999999999955      60.759999999999998      50.959999999999994
    78   1      3.9200000000000017       58.79999999999999      54.879999999999995
    79   1      3.9200000000000017      60.759999999999998      56.839999999999996
    80   1      5.8799999999999955       58.79999999999999      56.839999999999996
    81   1      5.8799999999999955      60.759999999999998      54.879999999999995
    82   1      3.9200000000000017       58.79999999999999       58.79999999999999
    83   1      5.8799999999999955       58.79999999999999      60.759999999999998
    84   1      5.8799999999999955      60.759999999999998       58.79999999999999
    85   1      5.8799999999999955       58.79999999999999      64.679999999999993
    86   1      5.8799999999999955      60.759999999999998      62.719999999999999
    87   1      5.8799999999999955      62.719999999999999                      49
    88   1      5.8799999999999955      62.719999999999999      52.919999999999995
    89   1      5.8799999999999955      64.679999999999993      50.959999999999994
    90   1      3.9200000000000017      62.719999999999999      54.879999999999995
    91   1      5.8799999999999955      62.719999999999999      56.839999999999996
    92   1      5.8799999999999955      64.679999999999993      54.879999999999995
    93   1      5.8799999999999955      62.719999999999999      60.759999999999998
    94   1      5.8799999999999955      64.679999999999993       58.79999999999999
    95   1      9.7999999999999972      37.240000000000002      54.879999999999995
    96   1      9.7999999999999972      41.159999999999997      47.039999999999999
    97   1      7.8399999999999972      41.159999999999997      52.919999999999995
    98   1      9.7999999999999972      39.199999999999996      52.919999999999995
    99   1      9.7999999999999972      41.159999999999997      50.959999999999994
   100   1      7.8399999999999972      39.199999999999996      54.879999999999995
   101   1      7.8399999999999972      41.159999999999997      56.839999999999996
   102   1      9.7999999999999972      39.199999999999996      56.839999999999996
   103   1      9.7999999999999972      41.159999999999997      54.879999999999995
   104   1      9.7999999999999972      41.159999999999997       58.79999999999999
   105   1      9.7999999999999972      41.159999999999997      62.719999999999999
   106   1      9.7999999999999972      43.119999999999997      45.079999999999998
   107   1      9.7999999999999972      45.079999999999998      43.119999999999997
   108   1      7.8399999999999972      45.079999999999998                      49
   109   1      9.7999999999999972      43.119999999999997                      49
   110   1      9.7999999999999972      45.079999999999998      47.039999999999999
   111   1      7.8399999999999972      43.119999999999997      50.959999999999994
   112   1      7.8399999999999972      45.079999999999998      52.919999999999995
   113   1      9.7999999999999972      43.119999999999997      52.919999999999995
   114   1      9.7999999999999972      45.079999999999998      50.959999999999994
   115   1      7.8399999999999972      43.119999999999997      54.879999999999995
   116   1      7.8399999999999972      45.079999999999998      56.839999999999996
   117   1      9.7999999999999972      43.119999999999997      56.839999999999996
   118   1      9.7999999999999972      45.079999999999998      54.879999999999995
   119   1      7.8399999999999972      43.119999999999997       58.79999999999999
   120   1      7.8399999999999972      45.079999999999998      60.759999999999998
   121   1      9.7999999999999972      43.119999999999997      60.759999999999998
   122   1      9.7999999999999972      45.079999999999998       58.79999999999999
   123   1      9.7999999999999972      43.119999999999997      64.679999999999993
   124   1      9.7999999999999972      45.079999999999998      62.719999999999999
   125   1      9.7999999999999972      45.079999999999998      66.640000000000001
   126   1      9.7999999999999972      47.039999999999999      41.159999999999997
   127   1      7.8399999999999972                      49      45.079999999999998
   128   1      9.7999999999999972      47.039999999999999      45.079999999999998
   129   1      9.7999999999999972                      49      43.119999999999997
   130   1      7.8399999999999972      47.039999999999999      47.039999999999999
   131   1      7.8399999999999972                      49                      49
   132   1      9.7999999999999972      47.039999999999999                      49
   133   1      9.7999999999999972                      49      47.039999999999999
   134   1      7.8399999999999972      47.039999999999999      50.959999999999994
   135   1      7.8399999999999972                      49      52.919999999999995
   136   1      9.7999999999999972      47.039999999999999      52.919999999999995
   137   1      9.7999999999999972                      49      50.959999999999994
   138   1      7.8399999999999972      47.039999999999999      54.879999999999995
   139   1      7.8399999999999972                      49      56.839999999999996
   140   1      9.7999999999999972      47.039999999999999      56.839999999999996
   141   1      9.7999999999999972                      49      54.879999999999995
   142   1      7.8399999999999972      47.039999999999999       58.79999999999999
   143   1      7.8399999999999972                      49      60.759999999999998
   144   1      9.7999999999999972      47.039999999999999      60.759999999999998
   145   1      9.7999999999999972                      49       58.79999999999999
   146   1      7.8399999999999972      47.039999999999999      62.719999999999999
   147   1      7.8399999999999972                      49      64.679999999999993
   148   1      9.7999999999999972      47.039999999999999      64.679999999999993
   149   1      9.7999999999999972                      49      62.719999999999999
   150   1      9.7999999999999972      47.039999999999999      68.599999999999994
   151   1      9.7999999999999972                      49      66.640000000000001
   152   1      7.8399999999999972      52.919999999999995      41.159999999999997
   153   1      9.7999999999999972      50.959999999999994      41.159999999999997
   154   1      9.7999999999999972      52.919999999999995      39.199999999999996
   155   1      7.8399999999999972      50.959999999999994      43.119999999999997
   156   1      7.8399999999999972      52.919999999999995      45.079999999999998
   157   1      9.7999999999999972      50.959999999999994      45.079999999999998
   158   1      9.7999999999999972      52.919999999999995      43.119999999999997
   159   1      7.8399999999999972      50.959999999999994      47.039999999999999
   160   1      7.8399999999999972      52.919999999999995                      49
   161   1      9.7999999999999972      50.959999999999994                      49
   162   1      9.7999999999999972      52.919999999999995      47.039999999999999
   163   1      7.8399999999999972      50.959999999999994      50.959999999999994
   164   1      7.8399999999999972      52.919999999999995      52.919999999999995
   165   1      9.7999999999999972      50.959999999999994      52.919999999999995
   166   1      9.7999999999999972      52.919999999999995      50.959999999999994
   167   1      7.8399999999999972      50.959999999999994      54.879999999999995
   168   1      7.8399999999999972      52.919999999999995      56.839999999999996
   169   1      9.7999999999999972      50.959999999999994      56.839999999999996
   170   1      9.7999999999999972      52.919999999999995      54.879999999999995
   171   1      7.8399999999999972      50.959999999999994       58.79999999999999
   172   1      7.8399999999999972      52.919999999999995      60.759999999999998
   173   1      9.7999999999999972      50.959999999999994      60.759999999999998
   174   1      9.7999999999999972      52.919999999999995       58.79999999999999
   175   1      7.8399999999999972      50.959999999999994      62.719999999999999
   176   1      7.8399999999999972      52.919999999999995      64.679999999999993
   177   1      9.7999999999999972      50.959999999999994      64.679999999999993
   178   1      9.7999999999999972      52.919999999999995      62.719999999999999
   179   1      7.8399999999999972      50.959999999999994      66.640000000000001
   180   1      7.8399999999999972      52.919999999999995      68.599999999999994
   181   1      9.7999999999999972      50.959999999999994      68.599999999999994
   182   1      9.7999999999999972      52.919999999999995      66.640000000000001
   183   1      9.7999999999999972      52.919999999999995      70.560000000000002
   184   1      9.7999999999999972      54.879999999999995      37.240000000000002
   185   1      7.8399999999999972      54.879999999999995      39.199999999999996
   186   1      7.8399999999999972      56.839999999999996      41.159999999999997
   187   1      9.7999999999999972      54.879999999999995      41.159999999999997
   188   1      9.7999999999999972      56.839999999999996      39.199999999999996
   189   1      7.8399999999999972      54.879999999999995      43.119999999999997
   190   1      7.8399999999999972      56.839999999999996      45.079999999999998
   191   1      9.7999999999999972      54.879999999999995      45.079999999999998
   192   1      9.7999999999999972      56.839999999999996      43.119999999999997
   193   1      7.8399999999999972      54.879999999999995      47.039999999999999
   194   1      7.8399999999999972      56.839999999999996                      49
   195   1      9.7999999999999972      54.879999999999995                      49
   196   1      9.7999999999999972      56.839999999999996      47.039999999999999
   197   1      7.8399999999999972      54.879999999999995      50.959999999999994
   198   1      7.8399999999999972      56.839999999999996      52.919999999999995
   199   1      9.7999999999999972      54.879999999999995      52.919999999999995
   200   1      9.7999999999999972      56.839999999999996      50.959999999999994
   201   1      7.8399999999999972      54.879999999999995      54.879999999999995
   202   1      7.8399999999999972      56.839999999999996      56.839999999999996
   203   1      9.7999999999999972      54.879999999999995      56.839999999999996
   204   1      9.7999999999999972      56.839999999999996      54.879999999999995
   205   1      7.8399999999999972      54.879999999999995       58.79999999999999
   206   1      7.8399999999999972      56.839999999999996      60.759999999999998
   207   1      9.7999999999999972      54.879999999999995      60.759999999999998
   208   1      9.7999999999999972      56.839999999999996       58.79999999999999
   209   1      7.8399999999999972      54.879999999999995      62.719999999999999
   210   1      7.8399999999999972      56.839999999999996      64.679999999999993
   211   1      9.7999999999999972      54.879999999999995      64.679999999999993
   212   1      9.7999999999999972      56.839999999999996      62.719999999999999
   213   1      7.8399999999999972      54.879999999999995      66.640000000000001
   214   1      7.8399999999999972      56.839999999999996      68.599999999999994
   215   1      9.7999999999999972      54.879999999999995      68.599999999999994
   216   1      9.7999999999999972      56.839999999999996      66.640000000000001
   217   1      7.8399999999999972      54.879999999999995      70.560000000000002
   218   1      9.7999999999999972      54.879999999999995      72.519999999999996
   219   1      9.7999999999999972      56.839999999999996      70.560000000000002
   220   1      9.7999999999999972       58.79999999999999      41.159999999999997
   221   1      7.8399999999999972       58.79999999999999      43.119999999999997
   222   1      7.8399999999999972      60.759999999999998      45.079999999999998
   223   1      9.7999999999999972       58.79999999999999      45.079999999999998
   224   1      9.7999999999999972      60.759999999999998      43.119999999999997
   225   1      7.8399999999999972       58.79999999999999      47.039999999999999
   226   1      7.8399999999999972      60.759999999999998                      49
   227   1      9.7999999999999972       58.79999999999999                      49
   228   1      9.7999999999999972      60.759999999999998      47.039999999999999
   229   1      7.8399999999999972       58.79999999999999      50.959999999999994
   230   1      7.8399999999999972      60.759999999999998      52.919999999999995
   231   1      9.7999999999999972       58.79999999999999      52.919999999999995
   232   1      9.7999999999999972      60.759999999999998      50.959999999999994
   233   1      7.8399999999999972       58.79999999999999      54.879999999999995
   234   1      7.8399999999999972      60.759999999999998      56.839999999999996
   235   1      9.7999999999999972       58.79999999999999      56.839999999999996
   236   1      9.7999999999999972      60.759999999999998      54.879999999999995
   237   1      7.8399999999999972       58.79999999999999       58.79999999999999
   238   1      7.8399999999999972      60.759999999999998      60.759999999999998
   239   1      9.7999999999999972       58.79999999999999      60.759999999999998
   240   1      9.7999999999999972      60.759999999999998       58.79999999999999
   241   1      7.8399999999999972       58.79999999999999      62.719999999999999
   242   1      7.8399999999999972      60.759999999999998      64.679999999999993
   243   1      9.7999999999999972       58.79999999999999      64.679999999999993
   244   1      9.7999999999999972      60.759999999999998      62.719999999999999
   245   1      7.8399999999999972       58.79999999999999      66.640000000000001
   246   1      9.7999999999999972       58.79999999999999      68.599999999999994
   247   1      9.7999999999999972      60.759999999999998      66.640000000000001
   248   1      9.7999999999999972      62.719999999999999      41.159999999999997
   249   1      9.7999999999999972      62.719999999999999      45.079999999999998
   250   1      9.7999999999999972      64.679999999999993      43.119999999999997
   251   1      7.8399999999999972      62.719999999999999      47.039999999999999
   252   1      7.8399999999999972      64.679999999999993                      49
   253   1      9.7999999999999972      62.719999999999999                      49
   254   1      9.7999999999999972      64.679999999999993      47.039999999999999
   255   1      7.8399999999999972      62.719999999999999      50.959999999999994
   256   1      7.8399999999999972      64.679999999999993      52.919999999999995
   257   1      9.7999999999999972      62.719999999999999      52.919999999999995
   258   1      9.7999999999999972      64.679999999999993      50.959999999999994
   259   1      7.8399999999999972      62.719999999999999      54.879999999999995
   260   1      7.8399999999999972      64.679999999999993      56.839999999999996
   261   1      9.7999999999999972      62.719999999999999      56.839999999999996
   262   1      9.7999999999999972      64.679999999999993      54.879999999999995
   263   1      7.8399999999999972      62.719999999999999       58.79999999999999
   264   1      7.8399999999999972      64.679999999999993      60.759999999999998
   265   1      9.7999999999999972      62.719999999999999      60.759999999999998
   266   1      9.7999999999999972      64.679999999999993       58.79999999999999
   267   1      7.8399999999999972      62.719999999999999      62.719999999999999
   268   1      9.7999999999999972      62.719999999999999      64.679999999999993
   269   1      9.7999999999999972      64.679999999999993      62.719999999999999
   270   1      9.7999999999999972      62.719999999999999      68.599999999999994
   271   1      9.7999999999999972      64.679999999999993      66.640000000000001
   272   1      9.7999999999999972      66.640000000000001      45.079999999999998
   273   1      9.7999999999999972      66.640000000000001                      49
   274   1      9.7999999999999972      68.599999999999994      47.039999999999999
   275   1      7.8399999999999972      66.640000000000001      50.959999999999994
   276   1      7.8399999999999972      68.599999999999994      52.919999999999995
   277   1      9.7999999999999972      66.640000000000001      52.919999999999995
   278   1      9.7999999999999972      68.599999999999994      50.959999999999994
   279   1      7.8399999999999972      66.640000000000001      54.879999999999995
   280   1      7.8399999999999972      68.599999999999994      56.839999999999996
   281   1      9.7999999999999972      66.640000000000001      56.839999999999996
   282   1      9.7999999999999972      68.599999999999994      54.879999999999995
   283   1      7.8399999999999972      66.640000000000001       58.79999999999999
   284   1      9.7999999999999972      66.640000000000001      60.759999999999998
   285   1      9.7999999999999972      68.599999999999994       58.79999999999999
   286   1      9.7999999999999972      66.640000000000001      64.679999999999993
   287   1      9.7999999999999972      68.599999999999994      62.719999999999999
   288   1      9.7999999999999972      70.560000000000002      52.919999999999995
   289   1      7.8399999999999972      70.560000000000002      54.879999999999995
   290   1      9.7999999999999972      70.560000000000002      56.839999999999996
   291   1      9.7999999999999972      72.519999999999996      54.879999999999995
   292   1      13.719999999999999      29.399999999999995      54.879999999999995
   293   1      13.719999999999999      31.359999999999999      52.919999999999995
   294   1      13.719999999999999                   33.32      50.959999999999994
   295   1      13.719999999999999      31.359999999999999      56.839999999999996
   296   1      13.719999999999999                   33.32      54.879999999999995
   297   1      13.719999999999999                   33.32       58.79999999999999
   298   1      13.719999999999999      37.240000000000002      43.119999999999997
   299   1      11.759999999999998      37.240000000000002                      49
   300   1      13.719999999999999      35.280000000000001                      49
   301   1      13.719999999999999      37.240000000000002      47.039999999999999
   302   1      11.759999999999998      35.280000000000001      50.959999999999994
   303   1      11.759999999999998      37.240000000000002      52.919999999999995
   304   1      13.719999999999999      35.280000000000001      52.919999999999995
   305   1      13.719999999999999      37.240000000000002      50.959999999999994
   306   1      11.759999999999998      35.280000000000001      54.879999999999995
   307   1      11.759999999999998      37.240000000000002      56.839999999999996
   308   1      13.719999999999999      35.280000000000001      56.839999999999996
   309   1      13.719999999999999      37.240000000000002      54.879999999999995
   310   1      11.759999999999998      35.280000000000001       58.79999999999999
   311   1      11.759999999999998      37.240000000000002      60.759999999999998
   312   1      13.719999999999999      35.280000000000001      60.759999999999998
   313   1      13.719999999999999      37.240000000000002       58.79999999999999
   314   1      13.719999999999999      37.240000000000002      62.719999999999999
   315   1      13.719999999999999      37.240000000000002      66.640000000000001
   316   1      13.719999999999999      39.199999999999996      41.159999999999997
   317   1      13.719999999999999      41.159999999999997      39.199999999999996
   318   1      11.759999999999998      41.159999999999997      45.079999999999998
   319   1      13.719999999999999      39.199999999999996      45.079999999999998
   320   1      13.719999999999999      41.159999999999997      43.119999999999997
   321   1      11.759999999999998      39.199999999999996      47.039999999999999
   322   1      11.759999999999998      41.159999999999997                      49
   323   1      13.719999999999999      39.199999999999996                      49
   324   1      13.719999999999999      41.159999999999997      47.039999999999999
   325   1      11.759999999999998      39.199999999999996      50.959999999999994
   326   1      11.759999999999998      41.159999999999997      52.919999999999995
   327   1      13.719999999999999      39.199999999999996      52.919999999999995
   328   1      13.719999999999999      41.159999999999997      50.959999999999994
   329   1      11.759999999999998      39.199999999999996      54.879999999999995
   330   1      11.759999999999998      41.159999999999997      56.839999999999996
   331   1      13.719999999999999      39.199999999999996      56.839999999999996
   332   1      13.719999999999999      41.159999999999997      54.879999999999995
   333   1      11.759999999999998      39.199999999999996       58.79999999999999
   334   1      11.759999999999998      41.159999999999997      60.759999999999998
   335   1      13.719999999999999      39.199999999999996      60.759999999999998
   336   1      13.719999999999999      41.159999999999997       58.79999999999999
   337   1      11.759999999999998      39.199999999999996      62.719999999999999
   338   1      11.759999999999998      41.159999999999997      64.679999999999993
   339   1      13.719999999999999      39.199999999999996      64.679999999999993
   340   1      13.719999999999999      41.159999999999997      62.719999999999999
   341   1      13.719999999999999      39.199999999999996      68.599999999999994
   342   1      13.719999999999999      41.159999999999997      66.640000000000001
   343   1      13.719999999999999      41.159999999999997      70.560000000000002
   344   1      13.719999999999999      43.119999999999997      37.240000000000002
   345   1      11.759999999999998      45.079999999999998      41.159999999999997
   346   1      13.719999999999999      43.119999999999997      41.159999999999997
   347   1      13.719999999999999      45.079999999999998      39.199999999999996
   348   1      11.759999999999998      43.119999999999997      43.119999999999997
   349   1      11.759999999999998      45.079999999999998      45.079999999999998
   350   1      13.719999999999999      43.119999999999997      45.079999999999998
   351   1      13.719999999999999      45.079999999999998      43.119999999999997
   352   1      11.759999999999998      43.119999999999997      47.039999999999999
   353   1      11.759999999999998      45.079999999999998                      49
   354   1      13.719999999999999      43.119999999999997                      49
   355   1      13.719999999999999      45.079999999999998      47.039999999999999
   356   1      11.759999999999998      43.119999999999997      50.959999999999994
   357   1      11.759999999999998      45.079999999999998      52.919999999999995
   358   1      13.719999999999999      43.119999999999997      52.919999999999995