LAMMPS data file via write_data, version 30 Nov 2020, timestep = 0

30187 atoms
5 atom types

0 108 xlo xhi
0 108 ylo yhi
0 108 zlo zhi

Masses

1 58.7
2 55.8
3 52
4 59
5 26

Atoms # atomic

7 5 3.6099999999999994 48.735 52.345 0 0 0
8 2 5.414999999999999 46.92999999999999 52.345 0 0 0
9 5 5.414999999999999 48.735 50.53999999999999 0 0 0
15 2 3.6099999999999994 52.345 48.735 0 0 0
16 1 5.414999999999999 50.53999999999999 48.735 0 0 0
17 3 5.414999999999999 52.345 46.92999999999999 0 0 0
18 1 3.6099999999999994 50.53999999999999 50.53999999999999 0 0 0
19 2 3.6099999999999994 52.345 52.345 0 0 0
20 2 5.414999999999999 50.53999999999999 52.345 0 0 0
21 2 5.414999999999999 52.345 50.53999999999999 0 0 0
68 2 7.219999999999999 45.125 52.345 0 0 0
69 4 9.024999999999999 43.32 52.345 0 0 0
70 3 9.024999999999999 45.125 50.53999999999999 0 0 0
76 2 7.219999999999999 48.735 48.735 0 0 0
77 5 9.024999999999999 46.92999999999999 48.735 0 0 0
78 1 9.024999999999999 48.735 46.92999999999999 0 0 0
79 4 7.219999999999999 46.92999999999999 50.53999999999999 0 0 0
80 2 7.219999999999999 48.735 52.345 0 0 0
81 5 9.024999999999999 46.92999999999999 52.345 0 0 0
82 5 9.024999999999999 48.735 50.53999999999999 0 0 0
92 1 7.219999999999999 52.345 45.125 0 0 0
93 4 9.024999999999999 50.53999999999999 45.125 0 0 0
94 4 9.024999999999999 52.345 43.32 0 0 0
95 3 7.219999999999999 50.53999999999999 46.92999999999999 0 0 0
96 1 7.219999999999999 52.345 48.735 0 0 0
97 3 9.024999999999999 50.53999999999999 48.735 0 0 0
98 1 9.024999999999999 52.345 46.92999999999999 0 0 0
99 4 7.219999999999999 50.53999999999999 50.53999999999999 0 0 0
100 3 7.219999999999999 52.345 52.345 0 0 0
101 2 9.024999999999999 50.53999999999999 52.345 0 0 0
102 5 9.024999999999999 52.345 50.53999999999999 0 0 0
181 4 10.829999999999998 37.905 52.345 0 0 0
182 3 12.634999999999998 36.1 52.345 0 0 0
183 3 12.634999999999998 37.905 50.53999999999999 0 0 0
189 5 10.829999999999998 41.515 48.735 0 0 0
190 2 12.634999999999998 39.71 48.735 0 0 0
191 2 12.634999999999998 41.515 46.92999999999999 0 0 0
192 4 10.829999999999998 39.71 50.53999999999999 0 0 0
193 1 10.829999999999998 41.515 52.345 0 0 0
194 4 12.634999999999998 39.71 52.345 0 0 0
195 2 12.634999999999998 41.515 50.53999999999999 0 0 0
205 3 10.829999999999998 45.125 45.125 0 0 0
206 5 12.634999999999998 43.32 45.125 0 0 0
207 1 12.634999999999998 45.125 43.32 0 0 0
208 2 10.829999999999998 43.32 46.92999999999999 0 0 0
209 4 10.829999999999998 45.125 48.735 0 0 0
210 1 12.634999999999998 43.32 48.735 0 0 0
211 4 12.634999999999998 45.125 46.92999999999999 0 0 0
212 3 10.829999999999998 43.32 50.53999999999999 0 0 0
213 5 10.829999999999998 45.125 52.345 0 0 0
214 1 12.634999999999998 43.32 52.345 0 0 0
215 1 12.634999999999998 45.125 50.53999999999999 0 0 0
229 2 10.829999999999998 48.735 41.515 0 0 0
230 1 12.634999999999998 46.92999999999999 41.515 0 0 0
231 1 12.634999999999998 48.735 39.71 0 0 0
232 4 10.829999999999998 46.92999999999999 43.32 0 0 0
233 3 10.829999999999998 48.735 45.125 0 0 0
234 4 12.634999999999998 46.92999999999999 45.125 0 0 0
235 4 12.634999999999998 48.735 43.32 0 0 0
236 4 10.829999999999998 46.92999999999999 46.92999999999999 0 0 0
237 2 10.829999999999998 48.735 48.735 0 0 0
238 5 12.634999999999998 46.92999999999999 48.735 0 0 0
239 2 12.634999999999998 48.735 46.92999999999999 0 0 0
240 4 10.829999999999998 46.92999999999999 50.53999999999999 0 0 0
241 5 10.829999999999998 48.735 52.345 0 0 0
242 2 12.634999999999998 46.92999999999999 52.345 0 0 0
243 4 12.634999999999998 48.735 50.53999999999999 0 0 0
261 2 10.829999999999998 52.345 37.905 0 0 0
262 3 12.634999999999998 50.53999999999999 37.905 0 0 0
263 4 12.634999999999998 52.345 36.1 0 0 0
264 1 10.829999999999998 50.53999999999999 39.71 0 0 0
265 5 10.829999999999998 52.345 41.515 0 0 0
266 5 12.634999999999998 50.53999999999999 41.515 0 0 0
267 2 12.634999999999998 52.345 39.71 0 0 0
268 1 10.829999999999998 50.53999999999999 43.32 0 0 0
269 2 10.829999999999998 52.345 45.125 0 0 0
270 5 12.634999999999998 50.53999999999999 45.125 0 0 0
271 2 12.634999999999998 52.345 43.32 0 0 0
272 5 10.829999999999998 50.53999999999999 46.92999999999999 0 0 0
273 3 10.829999999999998 52.345 48.735 0 0 0
274 3 12.634999999999998 50.53999999999999 48.735 0 0 0
275 1 12.634999999999998 52.345 46.92999999999999 0 0 0
276 1 10.829999999999998 50.53999999999999 50.53999999999999 0 0 0
277 5 10.829999999999998 52.345 52.345 0 0 0
278 2 12.634999999999998 50.53999999999999 52.345 0 0 0
279 1 12.634999999999998 52.345 50.53999999999999 0 0 0
446 4 14.440000000000005 34.294999999999995 52.345 0 0 0
447 3 16.244999999999997 32.49 52.345 0 0 0
448 2 16.244999999999997 34.294999999999995 50.53999999999999 0 0 0
454 3 14.440000000000005 37.905 48.735 0 0 0
455 3 16.244999999999997 36.1 48.735 0 0 0
456 4 16.244999999999997 37.905 46.92999999999999 0 0 0
457 4 14.440000000000005 36.1 50.53999999999999 0 0 0
458 2 14.440000000000005 37.905 52.345 0 0 0
459 4 16.244999999999997 36.1 52.345 0 0 0
460 2 16.244999999999997 37.905 50.53999999999999 0 0 0
470 1 14.440000000000005 41.515 45.125 0 0 0
471 3 16.244999999999997 39.71 45.125 0 0 0
472 5 16.244999999999997 41.515 43.32 0 0 0
473 2 14.440000000000005 39.71 46.92999999999999 0 0 0
474 2 14.440000000000005 41.515 48.735 0 0 0
475 5 16.244999999999997 39.71 48.735 0 0 0
476 1 16.244999999999997 41.515 46.92999999999999 0 0 0
477 5 14.440000000000005 39.71 50.53999999999999 0 0 0
478 5 14.440000000000005 41.515 52.345 0 0 0
479 2 16.244999999999997 39.71 52.345 0 0 0
480 4 16.244999999999997 41.515 50.53999999999999 0 0 0
494 5 14.440000000000005 45.125 41.515 0 0 0
495 1 16.244999999999997 43.32 41.515 0 0 0
496 4 16.244999999999997 45.125 39.71 0 0 0
497 1 14.440000000000005 43.32 43.32 0 0 0
498 2 14.440000000000005 45.125 45.125 0 0 0
499 3 16.244999999999997 43.32 45.125 0 0 0
500 3 16.244999999999997 45.125 43.32 0 0 0
501 5 14.440000000000005 43.32 46.92999999999999 0 0 0
502 1 14.440000000000005 45.125 48.735 0 0 0
503 5 16.244999999999997 43.32 48.735 0 0 0
504 3 16.244999999999997 45.125 46.92999999999999 0 0 0
505 1 14.440000000000005 43.32 50.53999999999999 0 0 0
506 3 14.440000000000005 45.125 52.345 0 0 0
507 2 16.244999999999997 43.32 52.345 0 0 0
508 5 16.244999999999997 45.125 50.53999999999999 0 0 0
526 3 14.440000000000005 48.735 37.905 0 0 0
527 5 16.244999999999997 46.92999999999999 37.905 0 0 0
528 5 16.244999999999997 48.735 36.1 0 0 0
529 1 14.440000000000005 46.92999999999999 39.71 0 0 0
530 2 14.440000000000005 48.735 41.515 0 0 0
531 2 16.244999999999997 46.92999999999999 41.515 0 0 0
532 3 16.244999999999997 48.735 39.71 0 0 0
533 4 14.440000000000005 46.92999999999999 43.32 0 0 0
534 4 14.440000000000005 48.735 45.125 0 0 0
535 3 16.244999999999997 46.92999999999999 45.125 0 0 0
536 5 16.244999999999997 48.735 43.32 0 0 0
537 3 14.440000000000005 46.92999999999999 46.92999999999999 0 0 0
538 4 14.440000000000005 48.735 48.735 0 0 0
539 3 16.244999999999997 46.92999999999999 48.735 0 0 0
540 2 16.244999999999997 48.735 46.92999999999999 0 0 0
541 2 14.440000000000005 46.92999999999999 50.53999999999999 0 0 0
542 2 14.440000000000005 48.735 52.345 0 0 0
543 1 16.244999999999997 46.92999999999999 52.345 0 0 0
544 1 16.244999999999997 48.735 50.53999999999999 0 0 0
566 2 14.440000000000005 52.345 34.294999999999995 0 0 0
567 5 16.244999999999997 50.53999999999999 34.294999999999995 0 0 0
568 3 16.244999999999997 52.345 32.49 0 0 0
569 1 14.440000000000005 50.53999999999999 36.1 0 0 0
570 3 14.440000000000005 52.345 37.905 0 0 0
571 4 16.244999999999997 50.53999999999999 37.905 0 0 0
572 4 16.244999999999997 52.345 36.1 0 0 0
573 2 14.440000000000005 50.53999999999999 39.71 0 0 0
574 2 14.440000000000005 52.345 41.515 0 0 0
575 4 16.244999999999997 50.53999999999999 41.515 0 0 0
576 4 16.244999999999997 52.345 39.71 0 0 0
577 2 14.440000000000005 50.53999999999999 43.32 0 0 0
578 4 14.440000000000005 52.345 45.125 0 0 0
579 3 16.244999999999997 50.53999999999999 45.125 0 0 0
580 3 16.244999999999997 52.345 43.32 0 0 0
581 1 14.440000000000005 50.53999999999999 46.92999999999999 0 0 0
582 2 14.440000000000005 52.345 48.735 0 0 0
583 1 16.244999999999997 50.53999999999999 48.735 0 0 0
584 5 16.244999999999997 52.345 46.92999999999999 0 0 0
585 4 14.440000000000005 50.53999999999999 50.53999999999999 0 0 0
586 4 14.440000000000005 52.345 52.345 0 0 0
587 5 16.244999999999997 50.53999999999999 52.345 0 0 0
588 4 16.244999999999997 52.345 50.53999999999999 0 0 0
811 1 18.050000000000004 27.075 52.345 0 0 0
812 1 19.854999999999997 25.269999999999996 52.345 0 0 0
813 4 19.854999999999997 27.075 50.53999999999999 0 0 0
819 1 18.050000000000004 30.685 48.735 0 0 0
820 1 19.854999999999997 28.880000000000003 48.735 0 0 0
821 2 19.854999999999997 30.685 46.92999999999999 0 0 0
822 2 18.050000000000004 28.880000000000003 50.53999999999999 0 0 0
823 2 18.050000000000004 30.685 52.345 0 0 0
824 1 19.854999999999997 28.880000000000003 52.345 0 0 0
825 3 19.854999999999997 30.685 50.53999999999999 0 0 0
835 4 18.050000000000004 34.294999999999995 45.125 0 0 0
836 3 19.854999999999997 32.49 45.125 0 0 0
837 4 19.854999999999997 34.294999999999995 43.32 0 0 0
838 1 18.050000000000004 32.49 46.92999999999999 0 0 0
839 3 18.050000000000004 34.294999999999995 48.735 0 0 0
840 5 19.854999999999997 32.49 48.735 0 0 0
841 4 19.854999999999997 34.294999999999995 46.92999999999999 0 0 0
842 2 18.050000000000004 32.49 50.53999999999999 0 0 0
843 2 18.050000000000004 34.294999999999995 52.345 0 0 0
844 2 19.854999999999997 32.49 52.345 0 0 0
845 2 19.854999999999997 34.294999999999995 50.53999999999999 0 0 0
859 4 18.050000000000004 37.905 41.515 0 0 0
860 1 19.854999999999997 36.1 41.515 0 0 0
861 2 19.854999999999997 37.905 39.71 0 0 0
862 2 18.050000000000004 36.1 43.32 0 0 0
863 4 18.050000000000004 37.905 45.125 0 0 0
864 1 19.854999999999997 36.1 45.125 0 0 0
865 4 19.854999999999997 37.905 43.32 0 0 0
866 3 18.050000000000004 36.1 46.92999999999999 0 0 0
867 5 18.050000000000004 37.905 48.735 0 0 0
868 4 19.854999999999997 36.1 48.735 0 0 0
869 4 19.854999999999997 37.905 46.92999999999999 0 0 0
870 3 18.050000000000004 36.1 50.53999999999999 0 0 0
871 4 18.050000000000004 37.905 52.345 0 0 0
872 4 19.854999999999997 36.1 52.345 0 0 0
873 2 19.854999999999997 37.905 50.53999999999999 0 0 0
891 5 18.050000000000004 41.515 37.905 0 0 0
892 1 19.854999999999997 39.71 37.905 0 0 0
893 2 19.854999999999997 41.515 36.1 0 0 0
894 4 18.050000000000004 39.71 39.71 0 0 0
895 5 18.050000000000004 41.515 41.515 0 0 0
896 3 19.854999999999997 39.71 41.515 0 0 0
897 3 19.854999999999997 41.515 39.71 0 0 0
898 2 18.050000000000004 39.71 43.32 0 0 0
899 2 18.050000000000004 41.515 45.125 0 0 0
900 1 19.854999999999997 39.71 45.125 0 0 0
901 2 19.854999999999997 41.515 43.32 0 0 0
902 5 18.050000000000004 39.71 46.92999999999999 0 0 0
903 4 18.050000000000004 41.515 48.735 0 0 0
904 5 19.854999999999997 39.71 48.735 0 0 0
905 4 19.854999999999997 41.515 46.92999999999999 0 0 0
906 2 18.050000000000004 39.71 50.53999999999999 0 0 0
907 4 18.050000000000004 41.515 52.345 0 0 0
908 1 19.854999999999997 39.71 52.345 0 0 0
909 1 19.854999999999997 41.515 50.53999999999999 0 0 0
931 5 18.050000000000004 45.125 34.294999999999995 0 0 0
932 3 19.854999999999997 43.32 34.294999999999995 0 0 0
933 2 19.854999999999997 45.125 32.49 0 0 0
934 3 18.050000000000004 43.32 36.1 0 0 0
935 1 18.050000000000004 45.125 37.905 0 0 0
936 4 19.854999999999997 43.32 37.905 0 0 0
937 2 19.854999999999997 45.125 36.1 0 0 0
938 4 18.050000000000004 43.32 39.71 0 0 0
939 2 18.050000000000004 45.125 41.515 0 0 0
940 2 19.854999999999997 43.32 41.515 0 0 0
941 5 19.854999999999997 45.125 39.71 0 0 0
942 4 18.050000000000004 43.32 43.32 0 0 0
943 5 18.050000000000004 45.125 45.125 0 0 0
944 2 19.854999999999997 43.32 45.125 0 0 0
945 1 19.854999999999997 45.125 43.32 0 0 0
946 4 18.050000000000004 43.32 46.92999999999999 0 0 0
947 4 18.050000000000004 45.125 48.735 0 0 0
948 4 19.854999999999997 43.32 48.735 0 0 0
949 3 19.854999999999997 45.125 46.92999999999999 0 0 0
950 4 18.050000000000004 43.32 50.53999999999999 0 0 0
951 5 18.050000000000004 45.125 52.345 0 0 0
952 4 19.854999999999997 43.32 52.345 0 0 0
953 5 19.854999999999997 45.125 50.53999999999999 0 0 0
979 5 18.050000000000004 48.735 30.685 0 0 0
980 1 19.854999999999997 46.92999999999999 30.685 0 0 0
981 3 19.854999999999997 48.735 28.880000000000003 0 0 0
982 5 18.050000000000004 46.92999999999999 32.49 0 0 0
983 2 18.050000000000004 48.735 34.294999999999995 0 0 0
984 3 19.854999999999997 46.92999999999999 34.294999999999995 0 0 0
985 5 19.854999999999997 48.735 32.49 0 0 0
986 1 18.050000000000004 46.92999999999999 36.1 0 0 0
987 2 18.050000000000004 48.735 37.905 0 0 0
988 5 19.854999999999997 46.92999999999999 37.905 0 0 0
989 5 19.854999999999997 48.735 36.1 0 0 0
990 5 18.050000000000004 46.92999999999999 39.71 0 0 0
991 2 18.050000000000004 48.735 41.515 0 0 0
992 5 19.854999999999997 46.92999999999999 41.515 0 0 0
993 3 19.854999999999997 48.735 39.71 0 0 0
994 1 18.050000000000004 46.92999999999999 43.32 0 0 0
995 1 18.050000000000004 48.735 45.125 0 0 0
996 1 19.854999999999997 46.92999999999999 45.125 0 0 0
997 5 19.854999999999997 48.735 43.32 0 0 0
998 3 18.050000000000004 46.92999999999999 46.92999999999999 0 0 0
999 3 18.050000000000004 48.735 48.735 0 0 0
1000 5 19.854999999999997 46.92999999999999 48.735 0 0 0
1001 1 19.854999999999997 48.735 46.92999999999999 0 0 0
1002 1 18.050000000000004 46.92999999999999 50.53999999999999 0 0 0
1003 3 18.050000000000004 48.735 52.345 0 0 0
1004 4 19.854999999999997 46.92999999999999 52.345 0 0 0
1005 5 19.854999999999997 48.735 50.53999999999999 0 0 0
1035 1 18.050000000000004 52.345 27.075 0 0 0
1036 1 19.854999999999997 50.53999999999999 27.075 0 0 0
1037 3 19.854999999999997 52.345 25.269999999999996 0 0 0
1038 3 18.050000000000004 50.53999999999999 28.880000000000003 0 0 0
1039 3 18.050000000000004 52.345 30.685 0 0 0
1040 5 19.854999999999997 50.53999999999999 30.685 0 0 0
1041 5 19.854999999999997 52.345 28.880000000000003 0 0 0
1042 3 18.050000000000004 50.53999999999999 32.49 0 0 0
1043 4 18.050000000000004 52.345 34.294999999999995 0 0 0
1044 2 19.854999999999997 50.53999999999999 34.294999999999995 0 0 0
1045 5 19.854999999999997 52.345 32.49 0 0 0
1046 2 18.050000000000004 50.53999999999999 36.1 0 0 0
1047 4 18.050000000000004 52.345 37.905 0 0 0
1048 2 19.854999999999997 50.53999999999999 37.905 0 0 0
1049 5 19.854999999999997 52.345 36.1 0 0 0
1050 1 18.050000000000004 50.53999999999999 39.71 0 0 0
1051 3 18.050000000000004 52.345 41.515 0 0 0
1052 2 19.854999999999997 50.53999999999999 41.515 0 0 0
1053 2 19.854999999999997 52.345 39.71 0 0 0
1054 4 18.050000000000004 50.53999999999999 43.32 0 0 0
1055 3 18.050000000000004 52.345 45.125 0 0 0
1056 5 19.854999999999997 50.53999999999999 45.125 0 0 0
1057 5 19.854999999999997 52.345 43.32 0 0 0
1058 3 18.050000000000004 50.53999999999999 46.92999999999999 0 0 0
1059 1 18.050000000000004 52.345 48.735 0 0 0
1060 5 19.854999999999997 50.53999999999999 48.735 0 0 0
1061 2 19.854999999999997 52.345 46.92999999999999 0 0 0
1062 3 18.050000000000004 50.53999999999999 50.53999999999999 0 0 0
1063 3 18.050000000000004 52.345 52.345 0 0 0
1064 4 19.854999999999997 50.53999999999999 52.345 0 0 0
1065 1 19.854999999999997 52.345 50.53999999999999 0 0 0
1424 3 21.66 23.464999999999996 52.345 0 0 0
1425 1 23.464999999999996 21.66 52.345 0 0 0
1426 5 23.464999999999996 23.464999999999996 50.53999999999999 0 0 0
1432 5 21.66 27.075 48.735 0 0 0
1433 1 23.464999999999996 25.269999999999996 48.735 0 0 0
1434 3 23.464999999999996 27.075 46.92999999999999 0 0 0
1435 5 21.66 25.269999999999996 50.53999999999999 0 0 0
1436 3 21.66 27.075 52.345 0 0 0
1437 4 23.464999999999996 25.269999999999996 52.345 0 0 0
1438 4 23.464999999999996 27.075 50.53999999999999 0 0 0
1448 4 21.66 30.685 45.125 0 0 0
1449 3 23.464999999999996 28.880000000000003 45.125 0 0 0
1450 4 23.464999999999996 30.685 43.32 0 0 0
1451 1 21.66 28.880000000000003 46.92999999999999 0 0 0
1452 5 21.66 30.685 48.735 0 0 0
1453 4 23.464999999999996 28.880000000000003 48.735 0 0 0
1454 5 23.464999999999996 30.685 46.92999999999999 0 0 0
1455 3 21.66 28.880000000000003 50.53999999999999 0 0 0
1456 5 21.66 30.685 52.345 0 0 0
1457 3 23.464999999999996 28.880000000000003 52.345 0 0 0
1458 4 23.464999999999996 30.685 50.53999999999999 0 0 0
1472 3 21.66 34.294999999999995 41.515 0 0 0
1473 5 23.464999999999996 32.49 41.515 0 0 0
1474 3 23.464999999999996 34.294999999999995 39.71 0 0 0
1475 1 21.66 32.49 43.32 0 0 0
1476 4 21.66 34.294999999999995 45.125 0 0 0
1477 2 23.464999999999996 32.49 45.125 0 0 0
1478 5 23.464999999999996 34.294999999999995 43.32 0 0 0
1479 4 21.66 32.49 46.92999999999999 0 0 0
1480 5 21.66 34.294999999999995 48.735 0 0 0
1481 2 23.464999999999996 32.49 48.735 0 0 0
1482 3 23.464999999999996 34.294999999999995 46.92999999999999 0 0 0
1483 3 21.66 32.49 50.53999999999999 0 0 0
1484 1 21.66 34.294999999999995 52.345 0 0 0
1485 2 23.464999999999996 32.49 52.345 0 0 0
1486 5 23.464999999999996 34.294999999999995 50.53999999999999 0 0 0
1504 4 21.66 37.905 37.905 0 0 0
1505 3 23.464999999999996 36.1 37.905 0 0 0
1506 1 23.464999999999996 37.905 36.1 0 0 0
1507 2 21.66 36.1 39.71 0 0 0
1508 4 21.66 37.905 41.515 0 0 0
1509 4 23.464999999999996 36.1 41.515 0 0 0
1510 1 23.464999999999996 37.905 39.71 0 0 0
1511 5 21.66 36.1 43.32 0 0 0
1512 4 21.66 37.905 45.125 0 0 0
1513 2 23.464999999999996 36.1 45.125 0 0 0
1514 5 23.464999999999996 37.905 43.32 0 0 0
1515 3 21.66 36.1 46.92999999999999 0 0 0
1516 5 21.66 37.905 48.735 0 0 0
1517 5 23.464999999999996 36.1 48.735 0 0 0
1518 4 23.464999999999996 37.905 46.92999999999999 0 0 0
1519 2 21.66 36.1 50.53999999999999 0 0 0
1520 1 21.66 37.905 52.345 0 0 0
1521 2 23.464999999999996 36.1 52.345 0 0 0
1522 4 23.464999999999996 37.905 50.53999999999999 0 0 0
1544 2 21.66 41.515 34.294999999999995 0 0 0
1545 4 23.464999999999996 39.71 34.294999999999995 0 0 0
1546 4 23.464999999999996 41.515 32.49 0 0 0
1547 5 21.66 39.71 36.1 0 0 0
1548 4 21.66 41.515 37.905 0 0 0
1549 1 23.464999999999996 39.71 37.905 0 0 0
1550 1 23.464999999999996 41.515 36.1 0 0 0
1551 4 21.66 39.71 39.71 0 0 0
1552 1 21.66 41.515 41.515 0 0 0
1553 5 23.464999999999996 39.71 41.515 0 0 0
1554 2 23.464999999999996 41.515 39.71 0 0 0
1555 1 21.66 39.71 43.32 0 0 0
1556 3 21.66 41.515 45.125 0 0 0
1557 4 23.464999999999996 39.71 45.125 0 0 0
1558 5 23.464999999999996 41.515 43.32 0 0 0
1559 5 21.66 39.71 46.92999999999999 0 0 0
1560 1 21.66 41.515 48.735 0 0 0
1561 3 23.464999999999996 39.71 48.735 0 0 0
1562 3 23.464999999999996 41.515 46.92999999999999 0 0 0
1563 4 21.66 39.71 50.53999999999999 0 0 0
1564 1 21.66 41.515 52.345 0 0 0
1565 5 23.464999999999996 39.71 52.345 0 0 0
1566 1 23.464999999999996 41.515 50.53999999999999 0 0 0
1592 5 21.66 45.125 30.685 0 0 0
1593 5 23.464999999999996 43.32 30.685 0 0 0
1594 1 23.464999999999996 45.125 28.880000000000003 0 0 0
1595 1 21.66 43.32 32.49 0 0 0
1596 4 21.66 45.125 34.294999999999995 0 0 0
1597 4 23.464999999999996 43.32 34.294999999999995 0 0 0
1598 4 23.464999999999996 45.125 32.49 0 0 0
1599 1 21.66 43.32 36.1 0 0 0
1600 4 21.66 45.125 37.905 0 0 0
1601 3 23.464999999999996 43.32 37.905 0 0 0
1602 3 23.464999999999996 45.125 36.1 0 0 0
1603 3 21.66 43.32 39.71 0 0 0
1604 5 21.66 45.125 41.515 0 0 0
1605 2 23.464999999999996 43.32 41.515 0 0 0
1606 2 23.464999999999996 45.125 39.71 0 0 0
1607 4 21.66 43.32 43.32 0 0 0
1608 4 21.66 45.125 45.125 0 0 0
1609 5 23.464999999999996 43.32 45.125 0 0 0
1610 3 23.464999999999996 45.125 43.32 0 0 0
1611 2 21.66 43.32 46.92999999999999 0 0 0
1612 4 21.66 45.125 48.735 0 0 0
1613 3 23.464999999999996 43.32 48.735 0 0 0
1614 3 23.464999999999996 45.125 46.92999999999999 0 0 0
1615 4 21.66 43.32 50.53999999999999 0 0 0
1616 3 21.66 45.125 52.345 0 0 0
1617 1 23.464999999999996 43.32 52.345 0 0 0
1618 1 23.464999999999996 45.125 50.53999999999999 0 0 0
1648 1 21.66 48.735 27.075 0 0 0
1649 5 23.464999999999996 46.92999999999999 27.075 0 0 0
1650 4 23.464999999999996 48.735 25.269999999999996 0 0 0
1651 4 21.66 46.92999999999999 28.880000000000003 0 0 0
1652 2 21.66 48.735 30.685 0 0 0
1653 1 23.464999999999996 46.92999999999999 30.685 0 0 0
1654 5 23.464999999999996 48.735 28.880000000000003 0 0 0
1655 1 21.66 46.92999999999999 32.49 0 0 0
1656 4 21.66 48.735 34.294999999999995 0 0 0
1657 2 23.464999999999996 46.92999999999999 34.294999999999995 0 0 0
1658 3 23.464999999999996 48.735 32.49 0 0 0
1659 2 21.66 46.92999999999999 36.1 0 0 0
1660 2 21.66 48.735 37.905 0 0 0
1661 1 23.464999999999996 46.92999999999999 37.905 0 0 0
1662 3 23.464999999999996 48.735 36.1 0 0 0
1663 3 21.66 46.92999999999999 39.71 0 0 0
1664 3 21.66 48.735 41.515 0 0 0
1665 1 23.464999999999996 46.92999999999999 41.515 0 0 0
1666 5 23.464999999999996 48.735 39.71 0 0 0
1667 4 21.66 46.92999999999999 43.32 0 0 0
1668 2 21.66 48.735 45.125 0 0 0
1669 2 23.464999999999996 46.92999999999999 45.125 0 0 0
1670 3 23.464999999999996 48.735 43.32 0 0 0
1671 1 21.66 46.92999999999999 46.92999999999999 0 0 0
1672 5 21.66 48.735 48.735 0 0 0
1673 1 23.464999999999996 46.92999999999999 48.735 0 0 0
1674 4 23.464999999999996 48.735 46.92999999999999 0 0 0
1675 2 21.66 46.92999999999999 50.53999999999999 0 0 0
1676 5 21.66 48.735 52.345 0 0 0
1677 3 23.464999999999996 46.92999999999999 52.345 0 0 0
1678 2 23.464999999999996 48.735 50.53999999999999 0 0 0
1712 3 21.66 52.345 23.464999999999996 0 0 0
1713 4 23.464999999999996 50.53999999999999 23.464999999999996 0 0 0
1714 3 23.464999999999996 52.345 21.66 0 0 0
1715 5 21.66 50.53999999999999 25.269999999999996 0 0 0
1716 4 21.66 52.345 27.075 0 0 0
1717 4 23.464999999999996 50.53999999999999 27.075 0 0 0
1718 1 23.464999999999996 52.345 25.269999999999996 0 0 0
1719 3 21.66 50.53999999999999 28.880000000000003 0 0 0
1720 4 21.66 52.345 30.685 0 0 0
1721 5 23.464999999999996 50.53999999999999 30.685 0 0 0
1722 2 23.464999999999996 52.345 28.880000000000003 0 0 0
1723 5 21.66 50.53999999999999 32.49 0 0 0
1724 1 21.66 52.345 34.294999999999995 0 0 0
1725 4 23.464999999999996 50.53999999999999 34.294999999999995 0 0 0
1726 1 23.464999999999996 52.345 32.49 0 0 0
1727 4 21.66 50.53999999999999 36.1 0 0 0
1728 5 21.66 52.345 37.905 0 0 0
1729 5 23.464999999999996 50.53999999999999 37.905 0 0 0
1730 3 23.464999999999996 52.345 36.1 0 0 0
1731 5 21.66 50.53999999999999 39.71 0 0 0
1732 4 21.66 52.345 41.515 0 0 0
1733 4 23.464999999999996 50.53999999999999 41.515 0 0 0
1734 3 23.464999999999996 52.345 39.71 0 0 0
1735 5 21.66 50.53999999999999 43.32 0 0 0
1736 5 21.66 52.345 45.125 0 0 0
1737 4 23.464999999999996 50.53999999999999 45.125 0 0 0
1738 4 23.464999999999996 52.345 43.32 0 0 0
1739 1 21.66 50.53999999999999 46.92999999999999 0 0 0
1740 1 21.66 52.345 48.735 0 0 0
1741 5 23.464999999999996 50.53999999999999 48.735 0 0 0
1742 2 23.464999999999996 52.345 46.92999999999999 0 0 0
1743 4 21.66 50.53999999999999 50.53999999999999 0 0 0
1744 2 21.66 52.345 52.345 0 0 0
1745 1 23.464999999999996 50.53999999999999 52.345 0 0 0
1746 5 23.464999999999996 52.345 50.53999999999999 0 0 0
2184 5 25.269999999999996 19.854999999999997 52.345 0 0 0
2185 1 27.075 18.050000000000004 52.345 0 0 0
2186 3 27.075 19.854999999999997 50.53999999999999 0 0 0
2192 5 25.269999999999996 23.464999999999996 48.735 0 0 0
2193 2 27.075 21.66 48.735 0 0 0
2194 5 27.075 23.464999999999996 46.92999999999999 0 0 0
2195 4 25.269999999999996 21.66 50.53999999999999 0 0 0
2196 3 25.269999999999996 23.464999999999996 52.345 0 0 0
2197 2 27.075 21.66 52.345 0 0 0
2198 1 27.075 23.464999999999996 50.53999999999999 0 0 0
2208 3 25.269999999999996 27.075 41.515 0 0 0
2209 4 27.075 25.269999999999996 41.515 0 0 0
2210 2 27.075 27.075 39.71 0 0 0
2211 5 25.269999999999996 25.269999999999996 43.32 0 0 0
2212 4 25.269999999999996 27.075 45.125 0 0 0
2213 4 27.075 25.269999999999996 45.125 0 0 0
2214 3 27.075 27.075 43.32 0 0 0
2215 1 25.269999999999996 25.269999999999996 46.92999999999999 0 0 0
2216 1 25.269999999999996 27.075 48.735 0 0 0
2217 5 27.075 25.269999999999996 48.735 0 0 0
2218 3 27.075 27.075 46.92999999999999 0 0 0
2219 4 25.269999999999996 25.269999999999996 50.53999999999999 0 0 0
2220 1 25.269999999999996 27.075 52.345 0 0 0
2221 2 27.075 25.269999999999996 52.345 0 0 0
2222 5 27.075 27.075 50.53999999999999 0 0 0
2240 4 25.269999999999996 30.685 37.905 0 0 0
2241 3 27.075 28.880000000000003 37.905 0 0 0
2242 4 27.075 30.685 36.1 0 0 0
2243 5 25.269999999999996 28.880000000000003 39.71 0 0 0
2244 4 25.269999999999996 30.685 41.515 0 0 0
2245 2 27.075 28.880000000000003 41.515 0 0 0
2246 2 27.075 30.685 39.71 0 0 0
2247 1 25.269999999999996 28.880000000000003 43.32 0 0 0
2248 5 25.269999999999996 30.685 45.125 0 0 0
2249 4 27.075 28.880000000000003 45.125 0 0 0
2250 5 27.075 30.685 43.32 0 0 0
2251 2 25.269999999999996 28.880000000000003 46.92999999999999 0 0 0
2252 5 25.269999999999996 30.685 48.735 0 0 0
2253 3 27.075 28.880000000000003 48.735 0 0 0
2254 5 27.075 30.685 46.92999999999999 0 0 0
2255 2 25.269999999999996 28.880000000000003 50.53999999999999 0 0 0
2256 3 25.269999999999996 30.685 52.345 0 0 0
2257 3 27.075 28.880000000000003 52.345 0 0 0
2258 1 27.075 30.685 50.53999999999999 0 0 0
2280 4 25.269999999999996 34.294999999999995 34.294999999999995 0 0 0
2281 2 27.075 32.49 34.294999999999995 0 0 0
2282 4 27.075 34.294999999999995 32.49 0 0 0
2283 2 25.269999999999996 32.49 36.1 0 0 0
2284 4 25.269999999999996 34.294999999999995 37.905 0 0 0
2285 2 27.075 32.49 37.905 0 0 0
2286 3 27.075 34.294999999999995 36.1 0 0 0
2287 2 25.269999999999996 32.49 39.71 0 0 0
2288 1 25.269999999999996 34.294999999999995 41.515 0 0 0
2289 1 27.075 32.49 41.515 0 0 0
2290 1 27.075 34.294999999999995 39.71 0 0 0
2291 4 25.269999999999996 32.49 43.32 0 0 0
2292 2 25.269999999999996 34.294999999999995 45.125 0 0 0
2293 4 27.075 32.49 45.125 0 0 0
2294 2 27.075 34.294999999999995 43.32 0 0 0
2295 1 25.269999999999996 32.49 46.92999999999999 0 0 0
2296 2 25.269999999999996 34.294999999999995 48.735 0 0 0
2297 4 27.075 32.49 48.735 0 0 0
2298 3 27.075 34.294999999999995 46.92999999999999 0 0 0
2299 1 25.269999999999996 32.49 50.53999999999999 0 0 0
2300 3 25.269999999999996 34.294999999999995 52.345 0 0 0
2301 1 27.075 32.49 52.345 0 0 0
2302 1 27.075 34.294999999999995 50.53999999999999 0 0 0
2328 2 25.269999999999996 37.905 30.685 0 0 0
2329 1 27.075 36.1 30.685 0 0 0
2330 1 27.075 37.905 28.880000000000003 0 0 0
2331 3 25.269999999999996 36.1 32.49 0 0 0
2332 1 25.269999999999996 37.905 34.294999999999995 0 0 0
2333 3 27.075 36.1 34.294999999999995 0 0 0
2334 3 27.075 37.905 32.49 0 0 0
2335 2 25.269999999999996 36.1 36.1 0 0 0
2336 4 25.269999999999996 37.905 37.905 0 0 0
2337 5 27.075 36.1 37.905 0 0 0
2338 4 27.075 37.905 36.1 0 0 0
2339 1 25.269999999999996 36.1 39.71 0 0 0
2340 3 25.269999999999996 37.905 41.515 0 0 0
2341 1 27.075 36.1 41.515 0 0 0
2342 3 27.075 37.905 39.71 0 0 0
2343 1 25.269999999999996 36.1 43.32 0 0 0
2344 5 25.269999999999996 37.905 45.125 0 0 0
2345 2 27.075 36.1 45.125 0 0 0
2346 2 27.075 37.905 43.32 0 0 0
2347 1 25.269999999999996 36.1 46.92999999999999 0 0 0
2348 3 25.269999999999996 37.905 48.735 0 0 0
2349 3 27.075 36.1 48.735 0 0 0
2350 1 27.075 37.905 46.92999999999999 0 0 0
2351 1 25.269999999999996 36.1 50.53999999999999 0 0 0
2352 1 25.269999999999996 37.905 52.345 0 0 0
2353 1 27.075 36.1 52.345 0 0 0
2354 5 27.075 37.905 50.53999999999999 0 0 0
2384 1 25.269999999999996 41.515 27.075 0 0 0
2385 2 27.075 39.71 27.075 0 0 0
2386 3 27.075 41.515 25.269999999999996 0 0 0
2387 5 25.269999999999996 39.71 28.880000000000003 0 0 0
2388 4 25.269999999999996 41.515 30.685 0 0 0
2389 2 27.075 39.71 30.685 0 0 0
2390 4 27.075 41.515 28.880000000000003 0 0 0
2391 3 25.269999999999996 39.71 32.49 0 0 0
2392 3 25.269999999999996 41.515 34.294999999999995 0 0 0
2393 1 27.075 39.71 34.294999999999995 0 0 0
2394 1 27.075 41.515 32.49 0 0 0
2395 1 25.269999999999996 39.71 36.1 0 0 0
2396 4 25.269999999999996 41.515 37.905 0 0 0
2397 5 27.075 39.71 37.905 0 0 0
2398 3 27.075 41.515 36.1 0 0 0
2399 1 25.269999999999996 39.71 39.71 0 0 0
2400 2 25.269999999999996 41.515 41.515 0 0 0
2401 4 27.075 39.71 41.515 0 0 0
2402 5 27.075 41.515 39.71 0 0 0
2403 1 25.269999999999996 39.71 43.32 0 0 0
2404 2 25.269999999999996 41.515 45.125 0 0 0
2405 2 27.075 39.71 45.125 0 0 0
2406 5 27.075 41.515 43.32 0 0 0
2407 4 25.269999999999996 39.71 46.92999999999999 0 0 0
2408 4 25.269999999999996 41.515 48.735 0 0 0
2409 1 27.075 39.71 48.735 0 0 0
2410 5 27.075 41.515 46.92999999999999 0 0 0
2411 3 25.269999999999996 39.71 50.53999999999999 0 0 0
2412 4 25.269999999999996 41.515 52.345 0 0 0
2413 3 27.075 39.71 52.345 0 0 0
2414 3 27.075 41.515 50.53999999999999 0 0 0
2448 1 25.269999999999996 43.32 25.269999999999996 0 0 0
2449 4 25.269999999999996 45.125 27.075 0 0 0
2450 2 27.075 43.32 27.075 0 0 0
2451 4 27.075 45.125 25.269999999999996 0 0 0
2452 2 25.269999999999996 43.32 28.880000000000003 0 0 0
2453 5 25.269999999999996 45.125 30.685 0 0 0
2454 5 27.075 43.32 30.685 0 0 0
2455 2 27.075 45.125 28.880000000000003 0 0 0
2456 5 25.269999999999996 43.32 32.49 0 0 0
2457 3 25.269999999999996 45.125 34.294999999999995 0 0 0
2458 5 27.075 43.32 34.294999999999995 0 0 0
2459 4 27.075 45.125 32.49 0 0 0
2460 2 25.269999999999996 43.32 36.1 0 0 0
2461 5 25.269999999999996 45.125 37.905 0 0 0
2462 2 27.075 43.32 37.905 0 0 0
2463 2 27.075 45.125 36.1 0 0 0
2464 3 25.269999999999996 43.32 39.71 0 0 0
2465 2 25.269999999999996 45.125 41.515 0 0 0
2466 5 27.075 43.32 41.515 0 0 0
2467 2 27.075 45.125 39.71 0 0 0
2468 1 25.269999999999996 43.32 43.32 0 0 0
2469 1 25.269999999999996 45.125 45.125 0 0 0
2470 3 27.075 43.32 45.125 0 0 0