model_files/NiFeCrCoAl/NiFeCrCoAl_30000/NiFeCrCoAl_322/NiFeCrCoAl_322_fcc_30187_temp.data (written by ASE) 

30187 	 atoms 
5  atom types
0.0                     108  xlo xhi
0.0                     108  ylo yhi
0.0                     108  zlo zhi


Atoms 

     1   1      1.8049999999999997      52.344999999999999      54.149999999999999
     2   1      1.8049999999999997      54.149999999999999      52.344999999999999
     3   1                       0      54.149999999999999      54.149999999999999
     4   1      1.8049999999999997      54.149999999999999      55.954999999999991
     5   1      1.8049999999999997      55.954999999999991      54.149999999999999
     6   1      5.4149999999999991                  45.125      54.149999999999999
     7   1      3.6099999999999994      48.734999999999999      52.344999999999999
     8   1      5.4149999999999991      46.929999999999993      52.344999999999999
     9   1      5.4149999999999991      48.734999999999999      50.539999999999992
    10   1      3.6099999999999994      46.929999999999993      54.149999999999999
    11   1      3.6099999999999994      48.734999999999999      55.954999999999991
    12   1      5.4149999999999991      46.929999999999993      55.954999999999991
    13   1      5.4149999999999991      48.734999999999999      54.149999999999999
    14   1      5.4149999999999991      48.734999999999999      57.759999999999991
    15   1      3.6099999999999994      52.344999999999999      48.734999999999999
    16   1      5.4149999999999991      50.539999999999992      48.734999999999999
    17   1      5.4149999999999991      52.344999999999999      46.929999999999993
    18   1      3.6099999999999994      50.539999999999992      50.539999999999992
    19   1      3.6099999999999994      52.344999999999999      52.344999999999999
    20   1      5.4149999999999991      50.539999999999992      52.344999999999999
    21   1      5.4149999999999991      52.344999999999999      50.539999999999992
    22   1      3.6099999999999994      50.539999999999992      54.149999999999999
    23   1      3.6099999999999994      52.344999999999999      55.954999999999991
    24   1      5.4149999999999991      50.539999999999992      55.954999999999991
    25   1      5.4149999999999991      52.344999999999999      54.149999999999999
    26   1      3.6099999999999994      50.539999999999992      57.759999999999991
    27   1      3.6099999999999994      52.344999999999999      59.564999999999998
    28   1      5.4149999999999991      50.539999999999992      59.564999999999998
    29   1      5.4149999999999991      52.344999999999999      57.759999999999991
    30   1      5.4149999999999991      52.344999999999999      61.369999999999997
    31   1      5.4149999999999991      54.149999999999999                  45.125
    32   1      3.6099999999999994      54.149999999999999      46.929999999999993
    33   1      3.6099999999999994      55.954999999999991      48.734999999999999
    34   1      5.4149999999999991      54.149999999999999      48.734999999999999
    35   1      5.4149999999999991      55.954999999999991      46.929999999999993
    36   1      3.6099999999999994      54.149999999999999      50.539999999999992
    37   1      3.6099999999999994      55.954999999999991      52.344999999999999
    38   1      5.4149999999999991      54.149999999999999      52.344999999999999
    39   1      5.4149999999999991      55.954999999999991      50.539999999999992
    40   1      3.6099999999999994      54.149999999999999      54.149999999999999
    41   1      3.6099999999999994      55.954999999999991      55.954999999999991
    42   1      5.4149999999999991      54.149999999999999      55.954999999999991
    43   1      5.4149999999999991      55.954999999999991      54.149999999999999
    44   1      3.6099999999999994      54.149999999999999      57.759999999999991
    45   1      3.6099999999999994      55.954999999999991      59.564999999999998
    46   1      5.4149999999999991      54.149999999999999      59.564999999999998
    47   1      5.4149999999999991      55.954999999999991      57.759999999999991
    48   1      3.6099999999999994      54.149999999999999      61.369999999999997
    49   1      5.4149999999999991      54.149999999999999      63.175000000000011
    50   1      5.4149999999999991      55.954999999999991      61.369999999999997
    51   1      5.4149999999999991      57.759999999999991      48.734999999999999
    52   1      3.6099999999999994      57.759999999999991      50.539999999999992
    53   1      3.6099999999999994      59.564999999999998      52.344999999999999
    54   1      5.4149999999999991      57.759999999999991      52.344999999999999
    55   1      5.4149999999999991      59.564999999999998      50.539999999999992
    56   1      3.6099999999999994      57.759999999999991      54.149999999999999
    57   1      3.6099999999999994      59.564999999999998      55.954999999999991
    58   1      5.4149999999999991      57.759999999999991      55.954999999999991
    59   1      5.4149999999999991      59.564999999999998      54.149999999999999
    60   1      3.6099999999999994      57.759999999999991      57.759999999999991
    61   1      5.4149999999999991      57.759999999999991      59.564999999999998
    62   1      5.4149999999999991      59.564999999999998      57.759999999999991
    63   1      5.4149999999999991      61.369999999999997      52.344999999999999
    64   1      3.6099999999999994      61.369999999999997      54.149999999999999
    65   1      5.4149999999999991      61.369999999999997      55.954999999999991
    66   1      5.4149999999999991      63.175000000000011      54.149999999999999
    67   1      9.0249999999999986      41.515000000000001      54.149999999999999
    68   1      7.2199999999999989                  45.125      52.344999999999999
    69   1      9.0249999999999986                   43.32      52.344999999999999
    70   1      9.0249999999999986                  45.125      50.539999999999992
    71   1      7.2199999999999989                   43.32      54.149999999999999
    72   1      7.2199999999999989                  45.125      55.954999999999991
    73   1      9.0249999999999986                   43.32      55.954999999999991
    74   1      9.0249999999999986                  45.125      54.149999999999999
    75   1      9.0249999999999986                  45.125      57.759999999999991
    76   1      7.2199999999999989      48.734999999999999      48.734999999999999
    77   1      9.0249999999999986      46.929999999999993      48.734999999999999
    78   1      9.0249999999999986      48.734999999999999      46.929999999999993
    79   1      7.2199999999999989      46.929999999999993      50.539999999999992
    80   1      7.2199999999999989      48.734999999999999      52.344999999999999
    81   1      9.0249999999999986      46.929999999999993      52.344999999999999
    82   1      9.0249999999999986      48.734999999999999      50.539999999999992
    83   1      7.2199999999999989      46.929999999999993      54.149999999999999
    84   1      7.2199999999999989      48.734999999999999      55.954999999999991
    85   1      9.0249999999999986      46.929999999999993      55.954999999999991
    86   1      9.0249999999999986      48.734999999999999      54.149999999999999
    87   1      7.2199999999999989      46.929999999999993      57.759999999999991
    88   1      7.2199999999999989      48.734999999999999      59.564999999999998
    89   1      9.0249999999999986      46.929999999999993      59.564999999999998
    90   1      9.0249999999999986      48.734999999999999      57.759999999999991
    91   1      9.0249999999999986      48.734999999999999      61.369999999999997
    92   1      7.2199999999999989      52.344999999999999                  45.125
    93   1      9.0249999999999986      50.539999999999992                  45.125
    94   1      9.0249999999999986      52.344999999999999                   43.32
    95   1      7.2199999999999989      50.539999999999992      46.929999999999993
    96   1      7.2199999999999989      52.344999999999999      48.734999999999999
    97   1      9.0249999999999986      50.539999999999992      48.734999999999999
    98   1      9.0249999999999986      52.344999999999999      46.929999999999993
    99   1      7.2199999999999989      50.539999999999992      50.539999999999992
   100   1      7.2199999999999989      52.344999999999999      52.344999999999999
   101   1      9.0249999999999986      50.539999999999992      52.344999999999999
   102   1      9.0249999999999986      52.344999999999999      50.539999999999992
   103   1      7.2199999999999989      50.539999999999992      54.149999999999999
   104   1      7.2199999999999989      52.344999999999999      55.954999999999991
   105   1      9.0249999999999986      50.539999999999992      55.954999999999991
   106   1      9.0249999999999986      52.344999999999999      54.149999999999999
   107   1      7.2199999999999989      50.539999999999992      57.759999999999991
   108   1      7.2199999999999989      52.344999999999999      59.564999999999998
   109   1      9.0249999999999986      50.539999999999992      59.564999999999998
   110   1      9.0249999999999986      52.344999999999999      57.759999999999991
   111   1      7.2199999999999989      50.539999999999992      61.369999999999997
   112   1      7.2199999999999989      52.344999999999999      63.175000000000011
   113   1      9.0249999999999986      50.539999999999992      63.175000000000011
   114   1      9.0249999999999986      52.344999999999999      61.369999999999997
   115   1      9.0249999999999986      52.344999999999999      64.980000000000004
   116   1      9.0249999999999986      54.149999999999999      41.515000000000001
   117   1      7.2199999999999989      54.149999999999999                   43.32
   118   1      7.2199999999999989      55.954999999999991                  45.125
   119   1      9.0249999999999986      54.149999999999999                  45.125
   120   1      9.0249999999999986      55.954999999999991                   43.32
   121   1      7.2199999999999989      54.149999999999999      46.929999999999993
   122   1      7.2199999999999989      55.954999999999991      48.734999999999999
   123   1      9.0249999999999986      54.149999999999999      48.734999999999999
   124   1      9.0249999999999986      55.954999999999991      46.929999999999993
   125   1      7.2199999999999989      54.149999999999999      50.539999999999992
   126   1      7.2199999999999989      55.954999999999991      52.344999999999999
   127   1      9.0249999999999986      54.149999999999999      52.344999999999999
   128   1      9.0249999999999986      55.954999999999991      50.539999999999992
   129   1      7.2199999999999989      54.149999999999999      54.149999999999999
   130   1      7.2199999999999989      55.954999999999991      55.954999999999991
   131   1      9.0249999999999986      54.149999999999999      55.954999999999991
   132   1      9.0249999999999986      55.954999999999991      54.149999999999999
   133   1      7.2199999999999989      54.149999999999999      57.759999999999991
   134   1      7.2199999999999989      55.954999999999991      59.564999999999998
   135   1      9.0249999999999986      54.149999999999999      59.564999999999998
   136   1      9.0249999999999986      55.954999999999991      57.759999999999991
   137   1      7.2199999999999989      54.149999999999999      61.369999999999997
   138   1      7.2199999999999989      55.954999999999991      63.175000000000011
   139   1      9.0249999999999986      54.149999999999999      63.175000000000011
   140   1      9.0249999999999986      55.954999999999991      61.369999999999997
   141   1      7.2199999999999989      54.149999999999999      64.980000000000004
   142   1      9.0249999999999986      54.149999999999999      66.785000000000011
   143   1      9.0249999999999986      55.954999999999991      64.980000000000004
   144   1      9.0249999999999986      57.759999999999991                  45.125
   145   1      7.2199999999999989      57.759999999999991      46.929999999999993
   146   1      7.2199999999999989      59.564999999999998      48.734999999999999
   147   1      9.0249999999999986      57.759999999999991      48.734999999999999
   148   1      9.0249999999999986      59.564999999999998      46.929999999999993
   149   1      7.2199999999999989      57.759999999999991      50.539999999999992
   150   1      7.2199999999999989      59.564999999999998      52.344999999999999
   151   1      9.0249999999999986      57.759999999999991      52.344999999999999
   152   1      9.0249999999999986      59.564999999999998      50.539999999999992
   153   1      7.2199999999999989      57.759999999999991      54.149999999999999
   154   1      7.2199999999999989      59.564999999999998      55.954999999999991
   155   1      9.0249999999999986      57.759999999999991      55.954999999999991
   156   1      9.0249999999999986      59.564999999999998      54.149999999999999
   157   1      7.2199999999999989      57.759999999999991      57.759999999999991
   158   1      7.2199999999999989      59.564999999999998      59.564999999999998
   159   1      9.0249999999999986      57.759999999999991      59.564999999999998
   160   1      9.0249999999999986      59.564999999999998      57.759999999999991
   161   1      7.2199999999999989      57.759999999999991      61.369999999999997
   162   1      9.0249999999999986      57.759999999999991      63.175000000000011
   163   1      9.0249999999999986      59.564999999999998      61.369999999999997
   164   1      9.0249999999999986      61.369999999999997      48.734999999999999
   165   1      7.2199999999999989      61.369999999999997      50.539999999999992
   166   1      7.2199999999999989      63.175000000000011      52.344999999999999
   167   1      9.0249999999999986      61.369999999999997      52.344999999999999
   168   1      9.0249999999999986      63.175000000000011      50.539999999999992
   169   1      7.2199999999999989      61.369999999999997      54.149999999999999
   170   1      7.2199999999999989      63.175000000000011      55.954999999999991
   171   1      9.0249999999999986      61.369999999999997      55.954999999999991
   172   1      9.0249999999999986      63.175000000000011      54.149999999999999
   173   1      7.2199999999999989      61.369999999999997      57.759999999999991
   174   1      9.0249999999999986      61.369999999999997      59.564999999999998
   175   1      9.0249999999999986      63.175000000000011      57.759999999999991
   176   1      9.0249999999999986      64.980000000000004      52.344999999999999
   177   1      7.2199999999999989      64.980000000000004      54.149999999999999
   178   1      9.0249999999999986      64.980000000000004      55.954999999999991
   179   1      9.0249999999999986      66.785000000000011      54.149999999999999
   180   1      12.634999999999998      34.294999999999995      54.149999999999999
   181   1      10.829999999999998      37.905000000000001      52.344999999999999
   182   1      12.634999999999998      36.100000000000001      52.344999999999999
   183   1      12.634999999999998      37.905000000000001      50.539999999999992
   184   1      10.829999999999998      36.100000000000001      54.149999999999999
   185   1      10.829999999999998      37.905000000000001      55.954999999999991
   186   1      12.634999999999998      36.100000000000001      55.954999999999991
   187   1      12.634999999999998      37.905000000000001      54.149999999999999
   188   1      12.634999999999998      37.905000000000001      57.759999999999991
   189   1      10.829999999999998      41.515000000000001      48.734999999999999
   190   1      12.634999999999998      39.710000000000001      48.734999999999999
   191   1      12.634999999999998      41.515000000000001      46.929999999999993
   192   1      10.829999999999998      39.710000000000001      50.539999999999992
   193   1      10.829999999999998      41.515000000000001      52.344999999999999
   194   1      12.634999999999998      39.710000000000001      52.344999999999999
   195   1      12.634999999999998      41.515000000000001      50.539999999999992
   196   1      10.829999999999998      39.710000000000001      54.149999999999999
   197   1      10.829999999999998      41.515000000000001      55.954999999999991
   198   1      12.634999999999998      39.710000000000001      55.954999999999991
   199   1      12.634999999999998      41.515000000000001      54.149999999999999
   200   1      10.829999999999998      39.710000000000001      57.759999999999991
   201   1      10.829999999999998      41.515000000000001      59.564999999999998
   202   1      12.634999999999998      39.710000000000001      59.564999999999998
   203   1      12.634999999999998      41.515000000000001      57.759999999999991
   204   1      12.634999999999998      41.515000000000001      61.369999999999997
   205   1      10.829999999999998                  45.125                  45.125
   206   1      12.634999999999998                   43.32                  45.125
   207   1      12.634999999999998                  45.125                   43.32
   208   1      10.829999999999998                   43.32      46.929999999999993
   209   1      10.829999999999998                  45.125      48.734999999999999
   210   1      12.634999999999998                   43.32      48.734999999999999
   211   1      12.634999999999998                  45.125      46.929999999999993
   212   1      10.829999999999998                   43.32      50.539999999999992
   213   1      10.829999999999998                  45.125      52.344999999999999
   214   1      12.634999999999998                   43.32      52.344999999999999
   215   1      12.634999999999998                  45.125      50.539999999999992
   216   1      10.829999999999998                   43.32      54.149999999999999
   217   1      10.829999999999998                  45.125      55.954999999999991
   218   1      12.634999999999998                   43.32      55.954999999999991
   219   1      12.634999999999998                  45.125      54.149999999999999
   220   1      10.829999999999998                   43.32      57.759999999999991
   221   1      10.829999999999998                  45.125      59.564999999999998
   222   1      12.634999999999998                   43.32      59.564999999999998
   223   1      12.634999999999998                  45.125      57.759999999999991
   224   1      10.829999999999998                   43.32      61.369999999999997
   225   1      10.829999999999998                  45.125      63.175000000000011
   226   1      12.634999999999998                   43.32      63.175000000000011
   227   1      12.634999999999998                  45.125      61.369999999999997
   228   1      12.634999999999998                  45.125      64.980000000000004
   229   1      10.829999999999998      48.734999999999999      41.515000000000001
   230   1      12.634999999999998      46.929999999999993      41.515000000000001
   231   1      12.634999999999998      48.734999999999999      39.710000000000001
   232   1      10.829999999999998      46.929999999999993                   43.32
   233   1      10.829999999999998      48.734999999999999                  45.125
   234   1      12.634999999999998      46.929999999999993                  45.125
   235   1      12.634999999999998      48.734999999999999                   43.32
   236   1      10.829999999999998      46.929999999999993      46.929999999999993
   237   1      10.829999999999998      48.734999999999999      48.734999999999999
   238   1      12.634999999999998      46.929999999999993      48.734999999999999
   239   1      12.634999999999998      48.734999999999999      46.929999999999993
   240   1      10.829999999999998      46.929999999999993      50.539999999999992
   241   1      10.829999999999998      48.734999999999999      52.344999999999999
   242   1      12.634999999999998      46.929999999999993      52.344999999999999
   243   1      12.634999999999998      48.734999999999999      50.539999999999992
   244   1      10.829999999999998      46.929999999999993      54.149999999999999
   245   1      10.829999999999998      48.734999999999999      55.954999999999991
   246   1      12.634999999999998      46.929999999999993      55.954999999999991
   247   1      12.634999999999998      48.734999999999999      54.149999999999999
   248   1      10.829999999999998      46.929999999999993      57.759999999999991
   249   1      10.829999999999998      48.734999999999999      59.564999999999998
   250   1      12.634999999999998      46.929999999999993      59.564999999999998
   251   1      12.634999999999998      48.734999999999999      57.759999999999991
   252   1      10.829999999999998      46.929999999999993      61.369999999999997
   253   1      10.829999999999998      48.734999999999999      63.175000000000011
   254   1      12.634999999999998      46.929999999999993      63.175000000000011
   255   1      12.634999999999998      48.734999999999999      61.369999999999997
   256   1      10.829999999999998      46.929999999999993      64.980000000000004
   257   1      10.829999999999998      48.734999999999999      66.785000000000011
   258   1      12.634999999999998      46.929999999999993      66.785000000000011
   259   1      12.634999999999998      48.734999999999999      64.980000000000004
   260   1      12.634999999999998      48.734999999999999      68.589999999999989
   261   1      10.829999999999998      52.344999999999999      37.905000000000001
   262   1      12.634999999999998      50.539999999999992      37.905000000000001
   263   1      12.634999999999998      52.344999999999999      36.100000000000001
   264   1      10.829999999999998      50.539999999999992      39.710000000000001
   265   1      10.829999999999998      52.344999999999999      41.515000000000001
   266   1      12.634999999999998      50.539999999999992      41.515000000000001
   267   1      12.634999999999998      52.344999999999999      39.710000000000001
   268   1      10.829999999999998      50.539999999999992                   43.32
   269   1      10.829999999999998      52.344999999999999                  45.125
   270   1      12.634999999999998      50.539999999999992                  45.125
   271   1      12.634999999999998      52.344999999999999                   43.32
   272   1      10.829999999999998      50.539999999999992      46.929999999999993
   273   1      10.829999999999998      52.344999999999999      48.734999999999999
   274   1      12.634999999999998      50.539999999999992      48.734999999999999
   275   1      12.634999999999998      52.344999999999999      46.929999999999993
   276   1      10.829999999999998      50.539999999999992      50.539999999999992
   277   1      10.829999999999998      52.344999999999999      52.344999999999999
   278   1      12.634999999999998      50.539999999999992      52.344999999999999
   279   1      12.634999999999998      52.344999999999999      50.539999999999992
   280   1      10.829999999999998      50.539999999999992      54.149999999999999
   281   1      10.829999999999998      52.344999999999999      55.954999999999991
   282   1      12.634999999999998      50.539999999999992      55.954999999999991
   283   1      12.634999999999998      52.344999999999999      54.149999999999999
   284   1      10.829999999999998      50.539999999999992      57.759999999999991
   285   1      10.829999999999998      52.344999999999999      59.564999999999998
   286   1      12.634999999999998      50.539999999999992      59.564999999999998
   287   1      12.634999999999998      52.344999999999999      57.759999999999991
   288   1      10.829999999999998      50.539999999999992      61.369999999999997
   289   1      10.829999999999998      52.344999999999999      63.175000000000011
   290   1      12.634999999999998      50.539999999999992      63.175000000000011
   291   1      12.634999999999998      52.344999999999999      61.369999999999997
   292   1      10.829999999999998      50.539999999999992      64.980000000000004
   293   1      10.829999999999998      52.344999999999999      66.785000000000011
   294   1      12.634999999999998      50.539999999999992      66.785000000000011
   295   1      12.634999999999998      52.344999999999999      64.980000000000004
   296   1      10.829999999999998      50.539999999999992      68.589999999999989
   297   1      10.829999999999998      52.344999999999999       70.39500000000001
   298   1      12.634999999999998      50.539999999999992       70.39500000000001
   299   1      12.634999999999998      52.344999999999999      68.589999999999989
   300   1      12.634999999999998      52.344999999999999      72.200000000000003
   301   1      12.634999999999998      54.149999999999999      34.294999999999995
   302   1      10.829999999999998      54.149999999999999      36.100000000000001
   303   1      10.829999999999998      55.954999999999991      37.905000000000001
   304   1      12.634999999999998      54.149999999999999      37.905000000000001
   305   1      12.634999999999998      55.954999999999991      36.100000000000001
   306   1      10.829999999999998      54.149999999999999      39.710000000000001
   307   1      10.829999999999998      55.954999999999991      41.515000000000001
   308   1      12.634999999999998      54.149999999999999      41.515000000000001
   309   1      12.634999999999998      55.954999999999991      39.710000000000001
   310   1      10.829999999999998      54.149999999999999                   43.32
   311   1      10.829999999999998      55.954999999999991                  45.125
   312   1      12.634999999999998      54.149999999999999                  45.125
   313   1      12.634999999999998      55.954999999999991                   43.32
   314   1      10.829999999999998      54.149999999999999      46.929999999999993
   315   1      10.829999999999998      55.954999999999991      48.734999999999999
   316   1      12.634999999999998      54.149999999999999      48.734999999999999
   317   1      12.634999999999998      55.954999999999991      46.929999999999993
   318   1      10.829999999999998      54.149999999999999      50.539999999999992
   319   1      10.829999999999998      55.954999999999991      52.344999999999999
   320   1      12.634999999999998      54.149999999999999      52.344999999999999
   321   1      12.634999999999998      55.954999999999991      50.539999999999992
   322   1      10.829999999999998      54.149999999999999      54.149999999999999
   323   1      10.829999999999998      55.954999999999991      55.954999999999991
   324   1      12.634999999999998      54.149999999999999      55.954999999999991
   325   1      12.634999999999998      55.954999999999991      54.149999999999999
   326   1      10.829999999999998      54.149999999999999      57.759999999999991
   327   1      10.829999999999998      55.954999999999991      59.564999999999998
   328   1      12.634999999999998      54.149999999999999      59.564999999999998
   329   1      12.634999999999998      55.954999999999991      57.759999999999991
   330   1      10.829999999999998      54.149999999999999      61.369999999999997
   331   1      10.829999999999998      55.954999999999991      63.175000000000011
   332   1      12.634999999999998      54.149999999999999      63.175000000000011
   333   1      12.634999999999998      55.954999999999991      61.369999999999997
   334   1      10.829999999999998      54.149999999999999      64.980000000000004
   335   1      10.829999999999998      55.954999999999991      66.785000000000011
   336   1      12.634999999999998      54.149999999999999      66.785000000000011
   337   1      12.634999999999998      55.954999999999991      64.980000000000004
   338   1      10.829999999999998      54.149999999999999      68.589999999999989
   339   1      10.829999999999998      55.954999999999991       70.39500000000001
   340   1      12.634999999999998      54.149999999999999       70.39500000000001
   341   1      12.634999999999998      55.954999999999991      68.589999999999989
   342   1      10.829999999999998      54.149999999999999      72.200000000000003
   343   1      12.634999999999998      54.149999999999999      74.004999999999995
   344   1      12.634999999999998      55.954999999999991      72.200000000000003
   345   1      12.634999999999998      57.759999999999991      37.905000000000001
   346   1      10.829999999999998      57.759999999999991      39.710000000000001
   347   1      10.829999999999998      59.564999999999998      41.515000000000001
   348   1      12.634999999999998      57.759999999999991      41.515000000000001
   349   1      12.634999999999998      59.564999999999998      39.710000000000001
   350   1      10.829999999999998      57.759999999999991                   43.32
   351   1      10.829999999999998      59.564999999999998                  45.125
   352   1      12.634999999999998      57.759999999999991                  45.125
   353   1      12.634999999999998      59.564999999999998                   43.32
   354   1      10.829999999999998      57.759999999999991      46.929999999999993
   355   1      10.829999999999998      59.564999999999998      48.734999999999999
   356   1      12.634999999999998      57.759999999999991      48.734999999999999
   357   1      12.634999999999998      59.564999999999998      46.929999999999993
   358   1      10.829999999999998      57.759999999999991      50.539999999999992