model_files/Pt/Pt_30000/Pt_433/data.Pt_433_fcc_30337 (written by ASE) 

30337 	 atoms 
1  atom types
0.0                     127  xlo xhi
0.0                     127  ylo yhi
0.0                     127  zlo zhi


Atoms 

     1   1      1.9599999999999866      60.759999999999977      62.719999999999985
     2   1      1.9599999999999866      62.719999999999985      60.759999999999977
     3   1      126.99999999999999      62.719999999999985      62.719999999999985
     4   1      1.9599999999999866      62.719999999999985      64.679999999999978
     5   1      1.9599999999999866      64.679999999999978      62.719999999999985
     6   1      5.8799999999999812      56.839999999999982      62.719999999999985
     7   1      3.9199999999999875      60.759999999999977      60.759999999999977
     8   1      5.8799999999999812      58.799999999999983      60.759999999999977
     9   1      5.8799999999999812      60.759999999999977      58.799999999999983
    10   1      3.9199999999999875      58.799999999999983      62.719999999999985
    11   1      3.9199999999999875      60.759999999999977      64.679999999999978
    12   1      5.8799999999999812      58.799999999999983      64.679999999999978
    13   1      5.8799999999999812      60.759999999999977      62.719999999999985
    14   1      5.8799999999999812      60.759999999999977      66.639999999999986
    15   1      5.8799999999999812      62.719999999999985      56.839999999999982
    16   1      3.9199999999999875      62.719999999999985      58.799999999999983
    17   1      3.9199999999999875      64.679999999999978      60.759999999999977
    18   1      5.8799999999999812      62.719999999999985      60.759999999999977
    19   1      5.8799999999999812      64.679999999999978      58.799999999999983
    20   1      3.9199999999999875      62.719999999999985      62.719999999999985
    21   1      3.9199999999999875      64.679999999999978      64.679999999999978
    22   1      5.8799999999999812      62.719999999999985      64.679999999999978
    23   1      5.8799999999999812      64.679999999999978      62.719999999999985
    24   1      3.9199999999999875      62.719999999999985      66.639999999999986
    25   1      5.8799999999999812      62.719999999999985       68.59999999999998
    26   1      5.8799999999999812      64.679999999999978      66.639999999999986
    27   1      5.8799999999999812      66.639999999999986      60.759999999999977
    28   1      3.9199999999999875      66.639999999999986      62.719999999999985
    29   1      5.8799999999999812      66.639999999999986      64.679999999999978
    30   1      5.8799999999999812       68.59999999999998      62.719999999999985
    31   1      9.7999999999999829       52.91999999999998      62.719999999999985
    32   1      7.8399999999999821      56.839999999999982      60.759999999999977
    33   1      9.7999999999999829      54.879999999999981      60.759999999999977
    34   1      9.7999999999999829      56.839999999999982      58.799999999999983
    35   1      7.8399999999999821      54.879999999999981      62.719999999999985
    36   1      7.8399999999999821      56.839999999999982      64.679999999999978
    37   1      9.7999999999999829      54.879999999999981      64.679999999999978
    38   1      9.7999999999999829      56.839999999999982      62.719999999999985
    39   1      9.7999999999999829      56.839999999999982      66.639999999999986
    40   1      7.8399999999999821      60.759999999999977      56.839999999999982
    41   1      9.7999999999999829      58.799999999999983      56.839999999999982
    42   1      9.7999999999999829      60.759999999999977      54.879999999999981
    43   1      7.8399999999999821      58.799999999999983      58.799999999999983
    44   1      7.8399999999999821      60.759999999999977      60.759999999999977
    45   1      9.7999999999999829      58.799999999999983      60.759999999999977
    46   1      9.7999999999999829      60.759999999999977      58.799999999999983
    47   1      7.8399999999999821      58.799999999999983      62.719999999999985
    48   1      7.8399999999999821      60.759999999999977      64.679999999999978
    49   1      9.7999999999999829      58.799999999999983      64.679999999999978
    50   1      9.7999999999999829      60.759999999999977      62.719999999999985
    51   1      7.8399999999999821      58.799999999999983      66.639999999999986
    52   1      7.8399999999999821      60.759999999999977       68.59999999999998
    53   1      9.7999999999999829      58.799999999999983       68.59999999999998
    54   1      9.7999999999999829      60.759999999999977      66.639999999999986
    55   1      9.7999999999999829      60.759999999999977      70.559999999999988
    56   1      9.7999999999999829      62.719999999999985       52.91999999999998
    57   1      7.8399999999999821      62.719999999999985      54.879999999999981
    58   1      7.8399999999999821      64.679999999999978      56.839999999999982
    59   1      9.7999999999999829      62.719999999999985      56.839999999999982
    60   1      9.7999999999999829      64.679999999999978      54.879999999999981
    61   1      7.8399999999999821      62.719999999999985      58.799999999999983
    62   1      7.8399999999999821      64.679999999999978      60.759999999999977
    63   1      9.7999999999999829      62.719999999999985      60.759999999999977
    64   1      9.7999999999999829      64.679999999999978      58.799999999999983
    65   1      7.8399999999999821      62.719999999999985      62.719999999999985
    66   1      7.8399999999999821      64.679999999999978      64.679999999999978
    67   1      9.7999999999999829      62.719999999999985      64.679999999999978
    68   1      9.7999999999999829      64.679999999999978      62.719999999999985
    69   1      7.8399999999999821      62.719999999999985      66.639999999999986
    70   1      7.8399999999999821      64.679999999999978       68.59999999999998
    71   1      9.7999999999999829      62.719999999999985       68.59999999999998
    72   1      9.7999999999999829      64.679999999999978      66.639999999999986
    73   1      7.8399999999999821      62.719999999999985      70.559999999999988
    74   1      9.7999999999999829      62.719999999999985      72.519999999999982
    75   1      9.7999999999999829      64.679999999999978      70.559999999999988
    76   1      9.7999999999999829      66.639999999999986      56.839999999999982
    77   1      7.8399999999999821      66.639999999999986      58.799999999999983
    78   1      7.8399999999999821       68.59999999999998      60.759999999999977
    79   1      9.7999999999999829      66.639999999999986      60.759999999999977
    80   1      9.7999999999999829       68.59999999999998      58.799999999999983
    81   1      7.8399999999999821      66.639999999999986      62.719999999999985
    82   1      7.8399999999999821       68.59999999999998      64.679999999999978
    83   1      9.7999999999999829      66.639999999999986      64.679999999999978
    84   1      9.7999999999999829       68.59999999999998      62.719999999999985
    85   1      7.8399999999999821      66.639999999999986      66.639999999999986
    86   1      9.7999999999999829      66.639999999999986       68.59999999999998
    87   1      9.7999999999999829       68.59999999999998      66.639999999999986
    88   1      9.7999999999999829      70.559999999999988      60.759999999999977
    89   1      7.8399999999999821      70.559999999999988      62.719999999999985
    90   1      9.7999999999999829      70.559999999999988      64.679999999999978
    91   1      9.7999999999999829      72.519999999999982      62.719999999999985
    92   1      13.719999999999985      45.079999999999984      62.719999999999985
    93   1      11.759999999999984      48.999999999999986      60.759999999999977
    94   1      13.719999999999985      47.039999999999985      60.759999999999977
    95   1      13.719999999999985      48.999999999999986      58.799999999999983
    96   1      11.759999999999984      47.039999999999985      62.719999999999985
    97   1      11.759999999999984      48.999999999999986      64.679999999999978
    98   1      13.719999999999985      47.039999999999985      64.679999999999978
    99   1      13.719999999999985      48.999999999999986      62.719999999999985
   100   1      13.719999999999985      48.999999999999986      66.639999999999986
   101   1      11.759999999999984       52.91999999999998      56.839999999999982
   102   1      13.719999999999985       50.95999999999998      56.839999999999982
   103   1      13.719999999999985       52.91999999999998      54.879999999999981
   104   1      11.759999999999984       50.95999999999998      58.799999999999983
   105   1      11.759999999999984       52.91999999999998      60.759999999999977
   106   1      13.719999999999985       50.95999999999998      60.759999999999977
   107   1      13.719999999999985       52.91999999999998      58.799999999999983
   108   1      11.759999999999984       50.95999999999998      62.719999999999985
   109   1      11.759999999999984       52.91999999999998      64.679999999999978
   110   1      13.719999999999985       50.95999999999998      64.679999999999978
   111   1      13.719999999999985       52.91999999999998      62.719999999999985
   112   1      11.759999999999984       50.95999999999998      66.639999999999986
   113   1      11.759999999999984       52.91999999999998       68.59999999999998
   114   1      13.719999999999985       50.95999999999998       68.59999999999998
   115   1      13.719999999999985       52.91999999999998      66.639999999999986
   116   1      13.719999999999985       52.91999999999998      70.559999999999988
   117   1      11.759999999999984      56.839999999999982       52.91999999999998
   118   1      13.719999999999985      54.879999999999981       52.91999999999998
   119   1      13.719999999999985      56.839999999999982       50.95999999999998
   120   1      11.759999999999984      54.879999999999981      54.879999999999981
   121   1      11.759999999999984      56.839999999999982      56.839999999999982
   122   1      13.719999999999985      54.879999999999981      56.839999999999982
   123   1      13.719999999999985      56.839999999999982      54.879999999999981
   124   1      11.759999999999984      54.879999999999981      58.799999999999983
   125   1      11.759999999999984      56.839999999999982      60.759999999999977
   126   1      13.719999999999985      54.879999999999981      60.759999999999977
   127   1      13.719999999999985      56.839999999999982      58.799999999999983
   128   1      11.759999999999984      54.879999999999981      62.719999999999985
   129   1      11.759999999999984      56.839999999999982      64.679999999999978
   130   1      13.719999999999985      54.879999999999981      64.679999999999978
   131   1      13.719999999999985      56.839999999999982      62.719999999999985
   132   1      11.759999999999984      54.879999999999981      66.639999999999986
   133   1      11.759999999999984      56.839999999999982       68.59999999999998
   134   1      13.719999999999985      54.879999999999981       68.59999999999998
   135   1      13.719999999999985      56.839999999999982      66.639999999999986
   136   1      11.759999999999984      54.879999999999981      70.559999999999988
   137   1      11.759999999999984      56.839999999999982      72.519999999999982
   138   1      13.719999999999985      54.879999999999981      72.519999999999982
   139   1      13.719999999999985      56.839999999999982      70.559999999999988
   140   1      13.719999999999985      56.839999999999982       74.47999999999999
   141   1      11.759999999999984      60.759999999999977      48.999999999999986
   142   1      13.719999999999985      58.799999999999983      48.999999999999986
   143   1      13.719999999999985      60.759999999999977      47.039999999999985
   144   1      11.759999999999984      58.799999999999983       50.95999999999998
   145   1      11.759999999999984      60.759999999999977       52.91999999999998
   146   1      13.719999999999985      58.799999999999983       52.91999999999998
   147   1      13.719999999999985      60.759999999999977       50.95999999999998
   148   1      11.759999999999984      58.799999999999983      54.879999999999981
   149   1      11.759999999999984      60.759999999999977      56.839999999999982
   150   1      13.719999999999985      58.799999999999983      56.839999999999982
   151   1      13.719999999999985      60.759999999999977      54.879999999999981
   152   1      11.759999999999984      58.799999999999983      58.799999999999983
   153   1      11.759999999999984      60.759999999999977      60.759999999999977
   154   1      13.719999999999985      58.799999999999983      60.759999999999977
   155   1      13.719999999999985      60.759999999999977      58.799999999999983
   156   1      11.759999999999984      58.799999999999983      62.719999999999985
   157   1      11.759999999999984      60.759999999999977      64.679999999999978
   158   1      13.719999999999985      58.799999999999983      64.679999999999978
   159   1      13.719999999999985      60.759999999999977      62.719999999999985
   160   1      11.759999999999984      58.799999999999983      66.639999999999986
   161   1      11.759999999999984      60.759999999999977       68.59999999999998
   162   1      13.719999999999985      58.799999999999983       68.59999999999998
   163   1      13.719999999999985      60.759999999999977      66.639999999999986
   164   1      11.759999999999984      58.799999999999983      70.559999999999988
   165   1      11.759999999999984      60.759999999999977      72.519999999999982
   166   1      13.719999999999985      58.799999999999983      72.519999999999982
   167   1      13.719999999999985      60.759999999999977      70.559999999999988
   168   1      11.759999999999984      58.799999999999983       74.47999999999999
   169   1      11.759999999999984      60.759999999999977      76.439999999999984
   170   1      13.719999999999985      58.799999999999983      76.439999999999984
   171   1      13.719999999999985      60.759999999999977       74.47999999999999
   172   1      13.719999999999985      60.759999999999977      78.399999999999977
   173   1      13.719999999999985      62.719999999999985      45.079999999999984
   174   1      11.759999999999984      62.719999999999985      47.039999999999985
   175   1      11.759999999999984      64.679999999999978      48.999999999999986
   176   1      13.719999999999985      62.719999999999985      48.999999999999986
   177   1      13.719999999999985      64.679999999999978      47.039999999999985
   178   1      11.759999999999984      62.719999999999985       50.95999999999998
   179   1      11.759999999999984      64.679999999999978       52.91999999999998
   180   1      13.719999999999985      62.719999999999985       52.91999999999998
   181   1      13.719999999999985      64.679999999999978       50.95999999999998
   182   1      11.759999999999984      62.719999999999985      54.879999999999981
   183   1      11.759999999999984      64.679999999999978      56.839999999999982
   184   1      13.719999999999985      62.719999999999985      56.839999999999982
   185   1      13.719999999999985      64.679999999999978      54.879999999999981
   186   1      11.759999999999984      62.719999999999985      58.799999999999983
   187   1      11.759999999999984      64.679999999999978      60.759999999999977
   188   1      13.719999999999985      62.719999999999985      60.759999999999977
   189   1      13.719999999999985      64.679999999999978      58.799999999999983
   190   1      11.759999999999984      62.719999999999985      62.719999999999985
   191   1      11.759999999999984      64.679999999999978      64.679999999999978
   192   1      13.719999999999985      62.719999999999985      64.679999999999978
   193   1      13.719999999999985      64.679999999999978      62.719999999999985
   194   1      11.759999999999984      62.719999999999985      66.639999999999986
   195   1      11.759999999999984      64.679999999999978       68.59999999999998
   196   1      13.719999999999985      62.719999999999985       68.59999999999998
   197   1      13.719999999999985      64.679999999999978      66.639999999999986
   198   1      11.759999999999984      62.719999999999985      70.559999999999988
   199   1      11.759999999999984      64.679999999999978      72.519999999999982
   200   1      13.719999999999985      62.719999999999985      72.519999999999982
   201   1      13.719999999999985      64.679999999999978      70.559999999999988
   202   1      11.759999999999984      62.719999999999985       74.47999999999999
   203   1      11.759999999999984      64.679999999999978      76.439999999999984
   204   1      13.719999999999985      62.719999999999985      76.439999999999984
   205   1      13.719999999999985      64.679999999999978       74.47999999999999
   206   1      11.759999999999984      62.719999999999985      78.399999999999977
   207   1      13.719999999999985      62.719999999999985      80.359999999999971
   208   1      13.719999999999985      64.679999999999978      78.399999999999977
   209   1      13.719999999999985      66.639999999999986      48.999999999999986
   210   1      11.759999999999984      66.639999999999986       50.95999999999998
   211   1      11.759999999999984       68.59999999999998       52.91999999999998
   212   1      13.719999999999985      66.639999999999986       52.91999999999998
   213   1      13.719999999999985       68.59999999999998       50.95999999999998
   214   1      11.759999999999984      66.639999999999986      54.879999999999981
   215   1      11.759999999999984       68.59999999999998      56.839999999999982
   216   1      13.719999999999985      66.639999999999986      56.839999999999982
   217   1      13.719999999999985       68.59999999999998      54.879999999999981
   218   1      11.759999999999984      66.639999999999986      58.799999999999983
   219   1      11.759999999999984       68.59999999999998      60.759999999999977
   220   1      13.719999999999985      66.639999999999986      60.759999999999977
   221   1      13.719999999999985       68.59999999999998      58.799999999999983
   222   1      11.759999999999984      66.639999999999986      62.719999999999985
   223   1      11.759999999999984       68.59999999999998      64.679999999999978
   224   1      13.719999999999985      66.639999999999986      64.679999999999978
   225   1      13.719999999999985       68.59999999999998      62.719999999999985
   226   1      11.759999999999984      66.639999999999986      66.639999999999986
   227   1      11.759999999999984       68.59999999999998       68.59999999999998
   228   1      13.719999999999985      66.639999999999986       68.59999999999998
   229   1      13.719999999999985       68.59999999999998      66.639999999999986
   230   1      11.759999999999984      66.639999999999986      70.559999999999988
   231   1      11.759999999999984       68.59999999999998      72.519999999999982
   232   1      13.719999999999985      66.639999999999986      72.519999999999982
   233   1      13.719999999999985       68.59999999999998      70.559999999999988
   234   1      11.759999999999984      66.639999999999986       74.47999999999999
   235   1      13.719999999999985      66.639999999999986      76.439999999999984
   236   1      13.719999999999985       68.59999999999998       74.47999999999999
   237   1      13.719999999999985      70.559999999999988       52.91999999999998
   238   1      11.759999999999984      70.559999999999988      54.879999999999981
   239   1      11.759999999999984      72.519999999999982      56.839999999999982
   240   1      13.719999999999985      70.559999999999988      56.839999999999982
   241   1      13.719999999999985      72.519999999999982      54.879999999999981
   242   1      11.759999999999984      70.559999999999988      58.799999999999983
   243   1      11.759999999999984      72.519999999999982      60.759999999999977
   244   1      13.719999999999985      70.559999999999988      60.759999999999977
   245   1      13.719999999999985      72.519999999999982      58.799999999999983
   246   1      11.759999999999984      70.559999999999988      62.719999999999985
   247   1      11.759999999999984      72.519999999999982      64.679999999999978
   248   1      13.719999999999985      70.559999999999988      64.679999999999978
   249   1      13.719999999999985      72.519999999999982      62.719999999999985
   250   1      11.759999999999984      70.559999999999988      66.639999999999986
   251   1      11.759999999999984      72.519999999999982       68.59999999999998
   252   1      13.719999999999985      70.559999999999988       68.59999999999998
   253   1      13.719999999999985      72.519999999999982      66.639999999999986
   254   1      11.759999999999984      70.559999999999988      70.559999999999988
   255   1      13.719999999999985      70.559999999999988      72.519999999999982
   256   1      13.719999999999985      72.519999999999982      70.559999999999988
   257   1      13.719999999999985       74.47999999999999      56.839999999999982
   258   1      11.759999999999984       74.47999999999999      58.799999999999983
   259   1      11.759999999999984      76.439999999999984      60.759999999999977
   260   1      13.719999999999985       74.47999999999999      60.759999999999977
   261   1      13.719999999999985      76.439999999999984      58.799999999999983
   262   1      11.759999999999984       74.47999999999999      62.719999999999985
   263   1      11.759999999999984      76.439999999999984      64.679999999999978
   264   1      13.719999999999985       74.47999999999999      64.679999999999978
   265   1      13.719999999999985      76.439999999999984      62.719999999999985
   266   1      11.759999999999984       74.47999999999999      66.639999999999986
   267   1      13.719999999999985       74.47999999999999       68.59999999999998
   268   1      13.719999999999985      76.439999999999984      66.639999999999986
   269   1      13.719999999999985      78.399999999999977      60.759999999999977
   270   1      11.759999999999984      78.399999999999977      62.719999999999985
   271   1      13.719999999999985      78.399999999999977      64.679999999999978
   272   1      13.719999999999985      80.359999999999971      62.719999999999985
   273   1      17.639999999999986      41.159999999999982      62.719999999999985
   274   1      15.679999999999986      45.079999999999984      60.759999999999977
   275   1      17.639999999999986      43.119999999999983      60.759999999999977
   276   1      17.639999999999986      45.079999999999984      58.799999999999983
   277   1      15.679999999999986      43.119999999999983      62.719999999999985
   278   1      15.679999999999986      45.079999999999984      64.679999999999978
   279   1      17.639999999999986      43.119999999999983      64.679999999999978
   280   1      17.639999999999986      45.079999999999984      62.719999999999985
   281   1      17.639999999999986      45.079999999999984      66.639999999999986
   282   1      15.679999999999986      48.999999999999986      56.839999999999982
   283   1      17.639999999999986      47.039999999999985      56.839999999999982
   284   1      17.639999999999986      48.999999999999986      54.879999999999981
   285   1      15.679999999999986      47.039999999999985      58.799999999999983
   286   1      15.679999999999986      48.999999999999986      60.759999999999977
   287   1      17.639999999999986      47.039999999999985      60.759999999999977
   288   1      17.639999999999986      48.999999999999986      58.799999999999983
   289   1      15.679999999999986      47.039999999999985      62.719999999999985
   290   1      15.679999999999986      48.999999999999986      64.679999999999978
   291   1      17.639999999999986      47.039999999999985      64.679999999999978
   292   1      17.639999999999986      48.999999999999986      62.719999999999985
   293   1      15.679999999999986      47.039999999999985      66.639999999999986
   294   1      15.679999999999986      48.999999999999986       68.59999999999998
   295   1      17.639999999999986      47.039999999999985       68.59999999999998
   296   1      17.639999999999986      48.999999999999986      66.639999999999986
   297   1      17.639999999999986      48.999999999999986      70.559999999999988
   298   1      15.679999999999986       52.91999999999998       52.91999999999998
   299   1      17.639999999999986       50.95999999999998       52.91999999999998
   300   1      17.639999999999986       52.91999999999998       50.95999999999998
   301   1      15.679999999999986       50.95999999999998      54.879999999999981
   302   1      15.679999999999986       52.91999999999998      56.839999999999982
   303   1      17.639999999999986       50.95999999999998      56.839999999999982
   304   1      17.639999999999986       52.91999999999998      54.879999999999981
   305   1      15.679999999999986       50.95999999999998      58.799999999999983
   306   1      15.679999999999986       52.91999999999998      60.759999999999977
   307   1      17.639999999999986       50.95999999999998      60.759999999999977
   308   1      17.639999999999986       52.91999999999998      58.799999999999983
   309   1      15.679999999999986       50.95999999999998      62.719999999999985
   310   1      15.679999999999986       52.91999999999998      64.679999999999978
   311   1      17.639999999999986       50.95999999999998      64.679999999999978
   312   1      17.639999999999986       52.91999999999998      62.719999999999985
   313   1      15.679999999999986       50.95999999999998      66.639999999999986
   314   1      15.679999999999986       52.91999999999998       68.59999999999998
   315   1      17.639999999999986       50.95999999999998       68.59999999999998
   316   1      17.639999999999986       52.91999999999998      66.639999999999986
   317   1      15.679999999999986       50.95999999999998      70.559999999999988
   318   1      15.679999999999986       52.91999999999998      72.519999999999982
   319   1      17.639999999999986       50.95999999999998      72.519999999999982
   320   1      17.639999999999986       52.91999999999998      70.559999999999988
   321   1      17.639999999999986       52.91999999999998       74.47999999999999
   322   1      15.679999999999986      56.839999999999982      48.999999999999986
   323   1      17.639999999999986      54.879999999999981      48.999999999999986
   324   1      17.639999999999986      56.839999999999982      47.039999999999985
   325   1      15.679999999999986      54.879999999999981       50.95999999999998
   326   1      15.679999999999986      56.839999999999982       52.91999999999998
   327   1      17.639999999999986      54.879999999999981       52.91999999999998
   328   1      17.639999999999986      56.839999999999982       50.95999999999998
   329   1      15.679999999999986      54.879999999999981      54.879999999999981
   330   1      15.679999999999986      56.839999999999982      56.839999999999982
   331   1      17.639999999999986      54.879999999999981      56.839999999999982
   332   1      17.639999999999986      56.839999999999982      54.879999999999981
   333   1      15.679999999999986      54.879999999999981      58.799999999999983
   334   1      15.679999999999986      56.839999999999982      60.759999999999977
   335   1      17.639999999999986      54.879999999999981      60.759999999999977
   336   1      17.639999999999986      56.839999999999982      58.799999999999983
   337   1      15.679999999999986      54.879999999999981      62.719999999999985
   338   1      15.679999999999986      56.839999999999982      64.679999999999978
   339   1      17.639999999999986      54.879999999999981      64.679999999999978
   340   1      17.639999999999986      56.839999999999982      62.719999999999985
   341   1      15.679999999999986      54.879999999999981      66.639999999999986
   342   1      15.679999999999986      56.839999999999982       68.59999999999998
   343   1      17.639999999999986      54.879999999999981       68.59999999999998
   344   1      17.639999999999986      56.839999999999982      66.639999999999986
   345   1      15.679999999999986      54.879999999999981      70.559999999999988
   346   1      15.679999999999986      56.839999999999982      72.519999999999982
   347   1      17.639999999999986      54.879999999999981      72.519999999999982
   348   1      17.639999999999986      56.839999999999982      70.559999999999988
   349   1      15.679999999999986      54.879999999999981       74.47999999999999
   350   1      15.679999999999986      56.839999999999982      76.439999999999984
   351   1      17.639999999999986      54.879999999999981      76.439999999999984
   352   1      17.639999999999986      56.839999999999982       74.47999999999999
   353   1      17.639999999999986      56.839999999999982      78.399999999999977
   354   1      15.679999999999986      60.759999999999977      45.079999999999984
   355   1      17.639999999999986      58.799999999999983      45.079999999999984
   356   1      17.639999999999986      60.759999999999977      43.119999999999983
   357   1      15.679999999999986      58.799999999999983      47.039999999999985
   358   1      15.679999999999986      60.759999999999977      48.999999999999986