model_files/PtFe/PtFe_30000/PtFe_531/PtFe_531_fcc_29859_temp.data (written by ASE) 

29859 	 atoms 
2  atom types
0.0                     103  xlo xhi
0.0                     103  ylo yhi
0.0                     103  zlo zhi


Atoms 

     1   1      102.99999999999999      48.879999999999981      50.759999999999991
     2   1      102.99999999999999      50.759999999999991      48.879999999999981
     3   1      102.99999999999999      50.759999999999991      52.639999999999993
     4   1      102.99999999999999      52.639999999999993      50.759999999999991
     5   1      3.7599999999999909      43.239999999999988      48.879999999999981
     6   1      3.7599999999999909      45.119999999999983      46.999999999999979
     7   1      3.7599999999999909      43.239999999999988      52.639999999999993
     8   1      3.7599999999999909      45.119999999999983      50.759999999999991
     9   1      3.7599999999999909      45.119999999999983      54.519999999999989
    10   1      3.7599999999999909      46.999999999999979      45.119999999999983
    11   1      3.7599999999999909      48.879999999999981      43.239999999999988
    12   1      1.8799999999999883      46.999999999999979      46.999999999999979
    13   1      1.8799999999999883      48.879999999999981      48.879999999999981
    14   1      3.7599999999999909      46.999999999999979      48.879999999999981
    15   1      3.7599999999999909      48.879999999999981      46.999999999999979
    16   1      1.8799999999999883      46.999999999999979      50.759999999999991
    17   1      1.8799999999999883      48.879999999999981      52.639999999999993
    18   1      3.7599999999999909      46.999999999999979      52.639999999999993
    19   1      3.7599999999999909      48.879999999999981      50.759999999999991
    20   1      1.8799999999999883      46.999999999999979      54.519999999999989
    21   1      3.7599999999999909      46.999999999999979      56.399999999999984
    22   1      3.7599999999999909      48.879999999999981      54.519999999999989
    23   1      3.7599999999999909      48.879999999999981      58.279999999999987
    24   1      3.7599999999999909      50.759999999999991      45.119999999999983
    25   1      3.7599999999999909      52.639999999999993      43.239999999999988
    26   1      1.8799999999999883      50.759999999999991      46.999999999999979
    27   1      1.8799999999999883      52.639999999999993      48.879999999999981
    28   1      3.7599999999999909      50.759999999999991      48.879999999999981
    29   1      3.7599999999999909      52.639999999999993      46.999999999999979
    30   1      1.8799999999999883      50.759999999999991      50.759999999999991
    31   1      1.8799999999999883      52.639999999999993      52.639999999999993
    32   1      3.7599999999999909      50.759999999999991      52.639999999999993
    33   1      3.7599999999999909      52.639999999999993      50.759999999999991
    34   1      1.8799999999999883      50.759999999999991      54.519999999999989
    35   1      3.7599999999999909      50.759999999999991      56.399999999999984
    36   1      3.7599999999999909      52.639999999999993      54.519999999999989
    37   1      3.7599999999999909      52.639999999999993      58.279999999999987
    38   1      3.7599999999999909      54.519999999999989      45.119999999999983
    39   1      1.8799999999999883      54.519999999999989      46.999999999999979
    40   1      3.7599999999999909      54.519999999999989      48.879999999999981
    41   1      3.7599999999999909      56.399999999999984      46.999999999999979
    42   1      1.8799999999999883      54.519999999999989      50.759999999999991
    43   1      3.7599999999999909      54.519999999999989      52.639999999999993
    44   1      3.7599999999999909      56.399999999999984      50.759999999999991
    45   1      1.8799999999999883      54.519999999999989      54.519999999999989
    46   1      3.7599999999999909      54.519999999999989      56.399999999999984
    47   1      3.7599999999999909      56.399999999999984      54.519999999999989
    48   1      3.7599999999999909      58.279999999999987      48.879999999999981
    49   1      3.7599999999999909      58.279999999999987      52.639999999999993
    50   1      7.5199999999999871       37.59999999999998      46.999999999999979
    51   1      7.5199999999999871       37.59999999999998      50.759999999999991
    52   1      7.5199999999999871       37.59999999999998      54.519999999999989
    53   1      7.5199999999999871       39.47999999999999      41.359999999999985
    54   1      7.5199999999999871      41.359999999999985       39.47999999999999
    55   1      5.6399999999999864      41.359999999999985      45.119999999999983
    56   1      7.5199999999999871       39.47999999999999      45.119999999999983
    57   1      7.5199999999999871      41.359999999999985      43.239999999999988
    58   1      5.6399999999999864      41.359999999999985      48.879999999999981
    59   1      7.5199999999999871       39.47999999999999      48.879999999999981
    60   1      7.5199999999999871      41.359999999999985      46.999999999999979
    61   1      5.6399999999999864       39.47999999999999      50.759999999999991
    62   1      5.6399999999999864      41.359999999999985      52.639999999999993
    63   1      7.5199999999999871       39.47999999999999      52.639999999999993
    64   1      7.5199999999999871      41.359999999999985      50.759999999999991
    65   1      5.6399999999999864      41.359999999999985      56.399999999999984
    66   1      7.5199999999999871       39.47999999999999      56.399999999999984
    67   1      7.5199999999999871      41.359999999999985      54.519999999999989
    68   1      7.5199999999999871       39.47999999999999      60.159999999999982
    69   1      7.5199999999999871      41.359999999999985      58.279999999999987
    70   1      7.5199999999999871      41.359999999999985      62.039999999999978
    71   1      5.6399999999999864      45.119999999999983      41.359999999999985
    72   1      7.5199999999999871      43.239999999999988      41.359999999999985
    73   1      7.5199999999999871      45.119999999999983       39.47999999999999
    74   1      5.6399999999999864      43.239999999999988      43.239999999999988
    75   1      5.6399999999999864      45.119999999999983      45.119999999999983
    76   1      7.5199999999999871      43.239999999999988      45.119999999999983
    77   1      7.5199999999999871      45.119999999999983      43.239999999999988
    78   1      5.6399999999999864      43.239999999999988      46.999999999999979
    79   1      5.6399999999999864      45.119999999999983      48.879999999999981
    80   1      7.5199999999999871      43.239999999999988      48.879999999999981
    81   1      7.5199999999999871      45.119999999999983      46.999999999999979
    82   1      5.6399999999999864      43.239999999999988      50.759999999999991
    83   1      5.6399999999999864      45.119999999999983      52.639999999999993
    84   1      7.5199999999999871      43.239999999999988      52.639999999999993
    85   1      7.5199999999999871      45.119999999999983      50.759999999999991
    86   1      5.6399999999999864      43.239999999999988      54.519999999999989
    87   1      5.6399999999999864      45.119999999999983      56.399999999999984
    88   1      7.5199999999999871      43.239999999999988      56.399999999999984
    89   1      7.5199999999999871      45.119999999999983      54.519999999999989
    90   1      5.6399999999999864      43.239999999999988      58.279999999999987
    91   1      5.6399999999999864      45.119999999999983      60.159999999999982
    92   1      7.5199999999999871      43.239999999999988      60.159999999999982
    93   1      7.5199999999999871      45.119999999999983      58.279999999999987
    94   1      7.5199999999999871      45.119999999999983      62.039999999999978
    95   1      7.5199999999999871      46.999999999999979       37.59999999999998
    96   1      5.6399999999999864      48.879999999999981      41.359999999999985
    97   1      7.5199999999999871      46.999999999999979      41.359999999999985
    98   1      7.5199999999999871      48.879999999999981       39.47999999999999
    99   1      5.6399999999999864      46.999999999999979      43.239999999999988
   100   1      5.6399999999999864      48.879999999999981      45.119999999999983
   101   1      7.5199999999999871      46.999999999999979      45.119999999999983
   102   1      7.5199999999999871      48.879999999999981      43.239999999999988
   103   1      5.6399999999999864      46.999999999999979      46.999999999999979
   104   1      5.6399999999999864      48.879999999999981      48.879999999999981
   105   1      7.5199999999999871      46.999999999999979      48.879999999999981
   106   1      7.5199999999999871      48.879999999999981      46.999999999999979
   107   1      5.6399999999999864      46.999999999999979      50.759999999999991
   108   1      5.6399999999999864      48.879999999999981      52.639999999999993
   109   1      7.5199999999999871      46.999999999999979      52.639999999999993
   110   1      7.5199999999999871      48.879999999999981      50.759999999999991
   111   1      5.6399999999999864      46.999999999999979      54.519999999999989
   112   1      5.6399999999999864      48.879999999999981      56.399999999999984
   113   1      7.5199999999999871      46.999999999999979      56.399999999999984
   114   1      7.5199999999999871      48.879999999999981      54.519999999999989
   115   1      5.6399999999999864      46.999999999999979      58.279999999999987
   116   1      5.6399999999999864      48.879999999999981      60.159999999999982
   117   1      7.5199999999999871      46.999999999999979      60.159999999999982
   118   1      7.5199999999999871      48.879999999999981      58.279999999999987
   119   1      7.5199999999999871      46.999999999999979       63.91999999999998
   120   1      7.5199999999999871      48.879999999999981      62.039999999999978
   121   1      7.5199999999999871      50.759999999999991       37.59999999999998
   122   1      5.6399999999999864      50.759999999999991       39.47999999999999
   123   1      5.6399999999999864      52.639999999999993      41.359999999999985
   124   1      7.5199999999999871      50.759999999999991      41.359999999999985
   125   1      7.5199999999999871      52.639999999999993       39.47999999999999
   126   1      5.6399999999999864      50.759999999999991      43.239999999999988
   127   1      5.6399999999999864      52.639999999999993      45.119999999999983
   128   1      7.5199999999999871      50.759999999999991      45.119999999999983
   129   1      7.5199999999999871      52.639999999999993      43.239999999999988
   130   1      5.6399999999999864      50.759999999999991      46.999999999999979
   131   1      5.6399999999999864      52.639999999999993      48.879999999999981
   132   1      7.5199999999999871      50.759999999999991      48.879999999999981
   133   1      7.5199999999999871      52.639999999999993      46.999999999999979
   134   1      5.6399999999999864      50.759999999999991      50.759999999999991
   135   1      5.6399999999999864      52.639999999999993      52.639999999999993
   136   1      7.5199999999999871      50.759999999999991      52.639999999999993
   137   1      7.5199999999999871      52.639999999999993      50.759999999999991
   138   1      5.6399999999999864      50.759999999999991      54.519999999999989
   139   1      5.6399999999999864      52.639999999999993      56.399999999999984
   140   1      7.5199999999999871      50.759999999999991      56.399999999999984
   141   1      7.5199999999999871      52.639999999999993      54.519999999999989
   142   1      5.6399999999999864      50.759999999999991      58.279999999999987
   143   1      5.6399999999999864      52.639999999999993      60.159999999999982
   144   1      7.5199999999999871      50.759999999999991      60.159999999999982
   145   1      7.5199999999999871      52.639999999999993      58.279999999999987
   146   1      5.6399999999999864      50.759999999999991      62.039999999999978
   147   1      7.5199999999999871      50.759999999999991       63.91999999999998
   148   1      7.5199999999999871      52.639999999999993      62.039999999999978
   149   1      7.5199999999999871      54.519999999999989       37.59999999999998
   150   1      5.6399999999999864      56.399999999999984      41.359999999999985
   151   1      7.5199999999999871      54.519999999999989      41.359999999999985
   152   1      7.5199999999999871      56.399999999999984       39.47999999999999
   153   1      5.6399999999999864      54.519999999999989      43.239999999999988
   154   1      5.6399999999999864      56.399999999999984      45.119999999999983
   155   1      7.5199999999999871      54.519999999999989      45.119999999999983
   156   1      7.5199999999999871      56.399999999999984      43.239999999999988
   157   1      5.6399999999999864      54.519999999999989      46.999999999999979
   158   1      5.6399999999999864      56.399999999999984      48.879999999999981
   159   1      7.5199999999999871      54.519999999999989      48.879999999999981
   160   1      7.5199999999999871      56.399999999999984      46.999999999999979
   161   1      5.6399999999999864      54.519999999999989      50.759999999999991
   162   1      5.6399999999999864      56.399999999999984      52.639999999999993
   163   1      7.5199999999999871      54.519999999999989      52.639999999999993
   164   1      7.5199999999999871      56.399999999999984      50.759999999999991
   165   1      5.6399999999999864      54.519999999999989      54.519999999999989
   166   1      5.6399999999999864      56.399999999999984      56.399999999999984
   167   1      7.5199999999999871      54.519999999999989      56.399999999999984
   168   1      7.5199999999999871      56.399999999999984      54.519999999999989
   169   1      5.6399999999999864      54.519999999999989      58.279999999999987
   170   1      5.6399999999999864      56.399999999999984      60.159999999999982
   171   1      7.5199999999999871      54.519999999999989      60.159999999999982
   172   1      7.5199999999999871      56.399999999999984      58.279999999999987
   173   1      7.5199999999999871      54.519999999999989       63.91999999999998
   174   1      7.5199999999999871      56.399999999999984      62.039999999999978
   175   1      7.5199999999999871      58.279999999999987      41.359999999999985
   176   1      7.5199999999999871      60.159999999999982       39.47999999999999
   177   1      5.6399999999999864      58.279999999999987      43.239999999999988
   178   1      5.6399999999999864      60.159999999999982      45.119999999999983
   179   1      7.5199999999999871      58.279999999999987      45.119999999999983
   180   1      7.5199999999999871      60.159999999999982      43.239999999999988
   181   1      5.6399999999999864      58.279999999999987      46.999999999999979
   182   1      5.6399999999999864      60.159999999999982      48.879999999999981
   183   1      7.5199999999999871      58.279999999999987      48.879999999999981
   184   1      7.5199999999999871      60.159999999999982      46.999999999999979
   185   1      5.6399999999999864      58.279999999999987      50.759999999999991
   186   1      5.6399999999999864      60.159999999999982      52.639999999999993
   187   1      7.5199999999999871      58.279999999999987      52.639999999999993
   188   1      7.5199999999999871      60.159999999999982      50.759999999999991
   189   1      5.6399999999999864      58.279999999999987      54.519999999999989
   190   1      5.6399999999999864      60.159999999999982      56.399999999999984
   191   1      7.5199999999999871      58.279999999999987      56.399999999999984
   192   1      7.5199999999999871      60.159999999999982      54.519999999999989
   193   1      5.6399999999999864      58.279999999999987      58.279999999999987
   194   1      7.5199999999999871      58.279999999999987      60.159999999999982
   195   1      7.5199999999999871      60.159999999999982      58.279999999999987
   196   1      7.5199999999999871      60.159999999999982      62.039999999999978
   197   1      7.5199999999999871      62.039999999999978      41.359999999999985
   198   1      7.5199999999999871      62.039999999999978      45.119999999999983
   199   1      7.5199999999999871      62.039999999999978      48.879999999999981
   200   1      7.5199999999999871       63.91999999999998      46.999999999999979
   201   1      5.6399999999999864      62.039999999999978      50.759999999999991
   202   1      7.5199999999999871      62.039999999999978      52.639999999999993
   203   1      7.5199999999999871       63.91999999999998      50.759999999999991
   204   1      7.5199999999999871      62.039999999999978      56.399999999999984
   205   1      7.5199999999999871       63.91999999999998      54.519999999999989
   206   1      7.5199999999999871      62.039999999999978      60.159999999999982
   207   1      11.279999999999987      30.079999999999984      50.759999999999991
   208   1      11.279999999999987      33.839999999999989       39.47999999999999
   209   1      11.279999999999987      31.959999999999983      45.119999999999983
   210   1      11.279999999999987      33.839999999999989      43.239999999999988
   211   1      9.3999999999999915      33.839999999999989      48.879999999999981
   212   1      11.279999999999987      31.959999999999983      48.879999999999981
   213   1      11.279999999999987      33.839999999999989      46.999999999999979
   214   1      9.3999999999999915      33.839999999999989      52.639999999999993
   215   1      11.279999999999987      31.959999999999983      52.639999999999993
   216   1      11.279999999999987      33.839999999999989      50.759999999999991
   217   1      11.279999999999987      31.959999999999983      56.399999999999984
   218   1      11.279999999999987      33.839999999999989      54.519999999999989
   219   1      11.279999999999987      33.839999999999989      58.279999999999987
   220   1      11.279999999999987      33.839999999999989      62.039999999999978
   221   1      9.3999999999999915       37.59999999999998       37.59999999999998
   222   1      11.279999999999987      35.719999999999985       37.59999999999998
   223   1      11.279999999999987       37.59999999999998      35.719999999999985
   224   1      9.3999999999999915       37.59999999999998      41.359999999999985
   225   1      11.279999999999987      35.719999999999985      41.359999999999985
   226   1      11.279999999999987       37.59999999999998       39.47999999999999
   227   1      9.3999999999999915      35.719999999999985      43.239999999999988
   228   1      9.3999999999999915       37.59999999999998      45.119999999999983
   229   1      11.279999999999987      35.719999999999985      45.119999999999983
   230   1      11.279999999999987       37.59999999999998      43.239999999999988
   231   1      9.3999999999999915      35.719999999999985      46.999999999999979
   232   1      9.3999999999999915       37.59999999999998      48.879999999999981
   233   1      11.279999999999987      35.719999999999985      48.879999999999981
   234   1      11.279999999999987       37.59999999999998      46.999999999999979
   235   1      9.3999999999999915      35.719999999999985      50.759999999999991
   236   1      9.3999999999999915       37.59999999999998      52.639999999999993
   237   1      11.279999999999987      35.719999999999985      52.639999999999993
   238   1      11.279999999999987       37.59999999999998      50.759999999999991
   239   1      9.3999999999999915      35.719999999999985      54.519999999999989
   240   1      9.3999999999999915       37.59999999999998      56.399999999999984
   241   1      11.279999999999987      35.719999999999985      56.399999999999984
   242   1      11.279999999999987       37.59999999999998      54.519999999999989
   243   1      9.3999999999999915      35.719999999999985      58.279999999999987
   244   1      9.3999999999999915       37.59999999999998      60.159999999999982
   245   1      11.279999999999987      35.719999999999985      60.159999999999982
   246   1      11.279999999999987       37.59999999999998      58.279999999999987
   247   1      9.3999999999999915       37.59999999999998       63.91999999999998
   248   1      11.279999999999987      35.719999999999985       63.91999999999998
   249   1      11.279999999999987       37.59999999999998      62.039999999999978
   250   1      11.279999999999987       37.59999999999998      65.799999999999969
   251   1      11.279999999999987       39.47999999999999      33.839999999999989
   252   1      9.3999999999999915      41.359999999999985       37.59999999999998
   253   1      11.279999999999987       39.47999999999999       37.59999999999998
   254   1      11.279999999999987      41.359999999999985      35.719999999999985
   255   1      9.3999999999999915       39.47999999999999       39.47999999999999
   256   1      9.3999999999999915      41.359999999999985      41.359999999999985
   257   1      11.279999999999987       39.47999999999999      41.359999999999985
   258   1      11.279999999999987      41.359999999999985       39.47999999999999
   259   1      9.3999999999999915       39.47999999999999      43.239999999999988
   260   1      9.3999999999999915      41.359999999999985      45.119999999999983
   261   1      11.279999999999987       39.47999999999999      45.119999999999983
   262   1      11.279999999999987      41.359999999999985      43.239999999999988
   263   1      9.3999999999999915       39.47999999999999      46.999999999999979
   264   1      9.3999999999999915      41.359999999999985      48.879999999999981
   265   1      11.279999999999987       39.47999999999999      48.879999999999981
   266   1      11.279999999999987      41.359999999999985      46.999999999999979
   267   1      9.3999999999999915       39.47999999999999      50.759999999999991
   268   1      9.3999999999999915      41.359999999999985      52.639999999999993
   269   1      11.279999999999987       39.47999999999999      52.639999999999993
   270   1      11.279999999999987      41.359999999999985      50.759999999999991
   271   1      9.3999999999999915       39.47999999999999      54.519999999999989
   272   1      9.3999999999999915      41.359999999999985      56.399999999999984
   273   1      11.279999999999987       39.47999999999999      56.399999999999984
   274   1      11.279999999999987      41.359999999999985      54.519999999999989
   275   1      9.3999999999999915       39.47999999999999      58.279999999999987
   276   1      9.3999999999999915      41.359999999999985      60.159999999999982
   277   1      11.279999999999987       39.47999999999999      60.159999999999982
   278   1      11.279999999999987      41.359999999999985      58.279999999999987
   279   1      9.3999999999999915       39.47999999999999      62.039999999999978
   280   1      9.3999999999999915      41.359999999999985       63.91999999999998
   281   1      11.279999999999987       39.47999999999999       63.91999999999998
   282   1      11.279999999999987      41.359999999999985      62.039999999999978
   283   1      11.279999999999987       39.47999999999999      67.679999999999978
   284   1      11.279999999999987      41.359999999999985      65.799999999999969
   285   1      11.279999999999987      43.239999999999988      33.839999999999989
   286   1      11.279999999999987      45.119999999999983      31.959999999999983
   287   1      9.3999999999999915      43.239999999999988      35.719999999999985
   288   1      9.3999999999999915      45.119999999999983       37.59999999999998
   289   1      11.279999999999987      43.239999999999988       37.59999999999998
   290   1      11.279999999999987      45.119999999999983      35.719999999999985
   291   1      9.3999999999999915      43.239999999999988       39.47999999999999
   292   1      9.3999999999999915      45.119999999999983      41.359999999999985
   293   1      11.279999999999987      43.239999999999988      41.359999999999985
   294   1      11.279999999999987      45.119999999999983       39.47999999999999
   295   1      9.3999999999999915      43.239999999999988      43.239999999999988
   296   1      9.3999999999999915      45.119999999999983      45.119999999999983
   297   1      11.279999999999987      43.239999999999988      45.119999999999983
   298   1      11.279999999999987      45.119999999999983      43.239999999999988
   299   1      9.3999999999999915      43.239999999999988      46.999999999999979
   300   1      9.3999999999999915      45.119999999999983      48.879999999999981
   301   1      11.279999999999987      43.239999999999988      48.879999999999981
   302   1      11.279999999999987      45.119999999999983      46.999999999999979
   303   1      9.3999999999999915      43.239999999999988      50.759999999999991
   304   1      9.3999999999999915      45.119999999999983      52.639999999999993
   305   1      11.279999999999987      43.239999999999988      52.639999999999993
   306   1      11.279999999999987      45.119999999999983      50.759999999999991
   307   1      9.3999999999999915      43.239999999999988      54.519999999999989
   308   1      9.3999999999999915      45.119999999999983      56.399999999999984
   309   1      11.279999999999987      43.239999999999988      56.399999999999984
   310   1      11.279999999999987      45.119999999999983      54.519999999999989
   311   1      9.3999999999999915      43.239999999999988      58.279999999999987
   312   1      9.3999999999999915      45.119999999999983      60.159999999999982
   313   1      11.279999999999987      43.239999999999988      60.159999999999982
   314   1      11.279999999999987      45.119999999999983      58.279999999999987
   315   1      9.3999999999999915      43.239999999999988      62.039999999999978
   316   1      9.3999999999999915      45.119999999999983       63.91999999999998
   317   1      11.279999999999987      43.239999999999988       63.91999999999998
   318   1      11.279999999999987      45.119999999999983      62.039999999999978
   319   1      9.3999999999999915      43.239999999999988      65.799999999999969
   320   1      11.279999999999987      43.239999999999988      67.679999999999978
   321   1      11.279999999999987      45.119999999999983      65.799999999999969
   322   1      11.279999999999987      45.119999999999983      69.559999999999988
   323   1      9.3999999999999915      48.879999999999981      33.839999999999989
   324   1      11.279999999999987      46.999999999999979      33.839999999999989
   325   1      11.279999999999987      48.879999999999981      31.959999999999983
   326   1      9.3999999999999915      46.999999999999979      35.719999999999985
   327   1      9.3999999999999915      48.879999999999981       37.59999999999998
   328   1      11.279999999999987      46.999999999999979       37.59999999999998
   329   1      11.279999999999987      48.879999999999981      35.719999999999985
   330   1      9.3999999999999915      46.999999999999979       39.47999999999999
   331   1      9.3999999999999915      48.879999999999981      41.359999999999985
   332   1      11.279999999999987      46.999999999999979      41.359999999999985
   333   1      11.279999999999987      48.879999999999981       39.47999999999999
   334   1      9.3999999999999915      46.999999999999979      43.239999999999988
   335   1      9.3999999999999915      48.879999999999981      45.119999999999983
   336   1      11.279999999999987      46.999999999999979      45.119999999999983
   337   1      11.279999999999987      48.879999999999981      43.239999999999988
   338   1      9.3999999999999915      46.999999999999979      46.999999999999979
   339   1      9.3999999999999915      48.879999999999981      48.879999999999981
   340   1      11.279999999999987      46.999999999999979      48.879999999999981
   341   1      11.279999999999987      48.879999999999981      46.999999999999979
   342   1      9.3999999999999915      46.999999999999979      50.759999999999991
   343   1      9.3999999999999915      48.879999999999981      52.639999999999993
   344   1      11.279999999999987      46.999999999999979      52.639999999999993
   345   1      11.279999999999987      48.879999999999981      50.759999999999991
   346   1      9.3999999999999915      46.999999999999979      54.519999999999989
   347   1      9.3999999999999915      48.879999999999981      56.399999999999984
   348   1      11.279999999999987      46.999999999999979      56.399999999999984
   349   1      11.279999999999987      48.879999999999981      54.519999999999989
   350   1      9.3999999999999915      46.999999999999979      58.279999999999987
   351   1      9.3999999999999915      48.879999999999981      60.159999999999982
   352   1      11.279999999999987      46.999999999999979      60.159999999999982
   353   1      11.279999999999987      48.879999999999981      58.279999999999987
   354   1      9.3999999999999915      46.999999999999979      62.039999999999978
   355   1      9.3999999999999915      48.879999999999981       63.91999999999998
   356   1      11.279999999999987      46.999999999999979       63.91999999999998
   357   1      11.279999999999987      48.879999999999981      62.039999999999978
   358   1      9.3999999999999915      46.999999999999979      65.799999999999969