model_files/Cu/Cu_30000/Cu_411/data.Cu_411_fcc_29957 (written by ASE) 

29957 	 atoms 
1  atom types
0.0                      86  xlo xhi
0.0                      86  ylo yhi
0.0                      86  zlo zhi


Atoms 

     1   1      1.8049999999999995      37.905000000000001                   43.32
     2   1      1.8049999999999995      39.710000000000001      41.515000000000001
     3   1      1.8049999999999995      41.515000000000001      39.710000000000001
     4   1      1.8049999999999995      39.710000000000001      45.125000000000007
     5   1      1.8049999999999995      41.515000000000001                   43.32
     6   1      1.8049999999999995      41.515000000000001                   46.93
     7   1      1.8049999999999995                   43.32      37.905000000000001
     8   1      1.8049999999999995                   43.32      41.515000000000001
     9   1      1.8049999999999995      45.125000000000007      39.710000000000001
    10   1                       0                   43.32                   43.32
    11   1      1.8049999999999995                   43.32      45.125000000000007
    12   1      1.8049999999999995      45.125000000000007                   43.32
    13   1      1.8049999999999995                   43.32      48.734999999999999
    14   1      1.8049999999999995      45.125000000000007                   46.93
    15   1      1.8049999999999995                   46.93      41.515000000000001
    16   1      1.8049999999999995                   46.93      45.125000000000007
    17   1      1.8049999999999995      48.734999999999999                   43.32
    18   1      5.4149999999999991                  23.465                   43.32
    19   1      5.4149999999999991      25.270000000000003      41.515000000000001
    20   1      5.4149999999999991      27.074999999999999      39.710000000000001
    21   1      5.4149999999999991      25.270000000000003      45.125000000000007
    22   1      5.4149999999999991      27.074999999999999                   43.32
    23   1      5.4149999999999991      27.074999999999999                   46.93
    24   1      5.4149999999999991      28.880000000000003      37.905000000000001
    25   1      5.4149999999999991      30.684999999999999      36.100000000000001
    26   1       3.609999999999999      30.684999999999999      41.515000000000001
    27   1      5.4149999999999991      28.880000000000003      41.515000000000001
    28   1      5.4149999999999991      30.684999999999999      39.710000000000001
    29   1       3.609999999999999      28.880000000000003                   43.32
    30   1       3.609999999999999      30.684999999999999      45.125000000000007
    31   1      5.4149999999999991      28.880000000000003      45.125000000000007
    32   1      5.4149999999999991      30.684999999999999                   43.32
    33   1      5.4149999999999991      28.880000000000003      48.734999999999999
    34   1      5.4149999999999991      30.684999999999999                   46.93
    35   1      5.4149999999999991      30.684999999999999      50.540000000000006
    36   1      5.4149999999999991      32.490000000000002      34.295000000000002
    37   1      5.4149999999999991      34.295000000000002      32.490000000000002
    38   1       3.609999999999999      34.295000000000002      37.905000000000001
    39   1      5.4149999999999991      32.490000000000002      37.905000000000001
    40   1      5.4149999999999991      34.295000000000002      36.100000000000001
    41   1       3.609999999999999      32.490000000000002      39.710000000000001
    42   1       3.609999999999999      34.295000000000002      41.515000000000001
    43   1      5.4149999999999991      32.490000000000002      41.515000000000001
    44   1      5.4149999999999991      34.295000000000002      39.710000000000001
    45   1       3.609999999999999      32.490000000000002                   43.32
    46   1       3.609999999999999      34.295000000000002      45.125000000000007
    47   1      5.4149999999999991      32.490000000000002      45.125000000000007
    48   1      5.4149999999999991      34.295000000000002                   43.32
    49   1       3.609999999999999      32.490000000000002                   46.93
    50   1       3.609999999999999      34.295000000000002      48.734999999999999
    51   1      5.4149999999999991      32.490000000000002      48.734999999999999
    52   1      5.4149999999999991      34.295000000000002                   46.93
    53   1      5.4149999999999991      32.490000000000002      52.344999999999999
    54   1      5.4149999999999991      34.295000000000002      50.540000000000006
    55   1      5.4149999999999991      34.295000000000002      54.149999999999999
    56   1      5.4149999999999991      36.100000000000001      30.684999999999999
    57   1      5.4149999999999991      37.905000000000001      28.880000000000003
    58   1       3.609999999999999      37.905000000000001      34.295000000000002
    59   1      5.4149999999999991      36.100000000000001      34.295000000000002
    60   1      5.4149999999999991      37.905000000000001      32.490000000000002
    61   1       3.609999999999999      36.100000000000001      36.100000000000001
    62   1       3.609999999999999      37.905000000000001      37.905000000000001
    63   1      5.4149999999999991      36.100000000000001      37.905000000000001
    64   1      5.4149999999999991      37.905000000000001      36.100000000000001
    65   1       3.609999999999999      36.100000000000001      39.710000000000001
    66   1       3.609999999999999      37.905000000000001      41.515000000000001
    67   1      5.4149999999999991      36.100000000000001      41.515000000000001
    68   1      5.4149999999999991      37.905000000000001      39.710000000000001
    69   1       3.609999999999999      36.100000000000001                   43.32
    70   1       3.609999999999999      37.905000000000001      45.125000000000007
    71   1      5.4149999999999991      36.100000000000001      45.125000000000007
    72   1      5.4149999999999991      37.905000000000001                   43.32
    73   1       3.609999999999999      36.100000000000001                   46.93
    74   1       3.609999999999999      37.905000000000001      48.734999999999999
    75   1      5.4149999999999991      36.100000000000001      48.734999999999999
    76   1      5.4149999999999991      37.905000000000001                   46.93
    77   1       3.609999999999999      36.100000000000001      50.540000000000006
    78   1       3.609999999999999      37.905000000000001      52.344999999999999
    79   1      5.4149999999999991      36.100000000000001      52.344999999999999
    80   1      5.4149999999999991      37.905000000000001      50.540000000000006
    81   1      5.4149999999999991      36.100000000000001      55.954999999999998
    82   1      5.4149999999999991      37.905000000000001      54.149999999999999
    83   1      5.4149999999999991      37.905000000000001      57.759999999999998
    84   1      5.4149999999999991      39.710000000000001      27.074999999999999
    85   1      5.4149999999999991      41.515000000000001      25.270000000000003
    86   1       3.609999999999999      41.515000000000001      30.684999999999999
    87   1      5.4149999999999991      39.710000000000001      30.684999999999999
    88   1      5.4149999999999991      41.515000000000001      28.880000000000003
    89   1       3.609999999999999      39.710000000000001      32.490000000000002
    90   1       3.609999999999999      41.515000000000001      34.295000000000002
    91   1      5.4149999999999991      39.710000000000001      34.295000000000002
    92   1      5.4149999999999991      41.515000000000001      32.490000000000002
    93   1       3.609999999999999      39.710000000000001      36.100000000000001
    94   1       3.609999999999999      41.515000000000001      37.905000000000001
    95   1      5.4149999999999991      39.710000000000001      37.905000000000001
    96   1      5.4149999999999991      41.515000000000001      36.100000000000001
    97   1       3.609999999999999      39.710000000000001      39.710000000000001
    98   1       3.609999999999999      41.515000000000001      41.515000000000001
    99   1      5.4149999999999991      39.710000000000001      41.515000000000001
   100   1      5.4149999999999991      41.515000000000001      39.710000000000001
   101   1       3.609999999999999      39.710000000000001                   43.32
   102   1       3.609999999999999      41.515000000000001      45.125000000000007
   103   1      5.4149999999999991      39.710000000000001      45.125000000000007
   104   1      5.4149999999999991      41.515000000000001                   43.32
   105   1       3.609999999999999      39.710000000000001                   46.93
   106   1       3.609999999999999      41.515000000000001      48.734999999999999
   107   1      5.4149999999999991      39.710000000000001      48.734999999999999
   108   1      5.4149999999999991      41.515000000000001                   46.93
   109   1       3.609999999999999      39.710000000000001      50.540000000000006
   110   1       3.609999999999999      41.515000000000001      52.344999999999999
   111   1      5.4149999999999991      39.710000000000001      52.344999999999999
   112   1      5.4149999999999991      41.515000000000001      50.540000000000006
   113   1       3.609999999999999      39.710000000000001      54.149999999999999
   114   1       3.609999999999999      41.515000000000001      55.954999999999998
   115   1      5.4149999999999991      39.710000000000001      55.954999999999998
   116   1      5.4149999999999991      41.515000000000001      54.149999999999999
   117   1      5.4149999999999991      39.710000000000001      59.564999999999998
   118   1      5.4149999999999991      41.515000000000001      57.759999999999998
   119   1      5.4149999999999991      41.515000000000001      61.369999999999997
   120   1      5.4149999999999991                   43.32                  23.465
   121   1      5.4149999999999991                   43.32      27.074999999999999
   122   1      5.4149999999999991      45.125000000000007      25.270000000000003
   123   1       3.609999999999999                   43.32      28.880000000000003
   124   1       3.609999999999999      45.125000000000007      30.684999999999999
   125   1      5.4149999999999991                   43.32      30.684999999999999
   126   1      5.4149999999999991      45.125000000000007      28.880000000000003
   127   1       3.609999999999999                   43.32      32.490000000000002
   128   1       3.609999999999999      45.125000000000007      34.295000000000002
   129   1      5.4149999999999991                   43.32      34.295000000000002
   130   1      5.4149999999999991      45.125000000000007      32.490000000000002
   131   1       3.609999999999999                   43.32      36.100000000000001
   132   1       3.609999999999999      45.125000000000007      37.905000000000001
   133   1      5.4149999999999991                   43.32      37.905000000000001
   134   1      5.4149999999999991      45.125000000000007      36.100000000000001
   135   1       3.609999999999999                   43.32      39.710000000000001
   136   1       3.609999999999999      45.125000000000007      41.515000000000001
   137   1      5.4149999999999991                   43.32      41.515000000000001
   138   1      5.4149999999999991      45.125000000000007      39.710000000000001
   139   1       3.609999999999999                   43.32                   43.32
   140   1       3.609999999999999      45.125000000000007      45.125000000000007
   141   1      5.4149999999999991                   43.32      45.125000000000007
   142   1      5.4149999999999991      45.125000000000007                   43.32
   143   1       3.609999999999999                   43.32                   46.93
   144   1       3.609999999999999      45.125000000000007      48.734999999999999
   145   1      5.4149999999999991                   43.32      48.734999999999999
   146   1      5.4149999999999991      45.125000000000007                   46.93
   147   1       3.609999999999999                   43.32      50.540000000000006
   148   1       3.609999999999999      45.125000000000007      52.344999999999999
   149   1      5.4149999999999991                   43.32      52.344999999999999
   150   1      5.4149999999999991      45.125000000000007      50.540000000000006
   151   1       3.609999999999999                   43.32      54.149999999999999
   152   1       3.609999999999999      45.125000000000007      55.954999999999998
   153   1      5.4149999999999991                   43.32      55.954999999999998
   154   1      5.4149999999999991      45.125000000000007      54.149999999999999
   155   1       3.609999999999999                   43.32      57.759999999999998
   156   1      5.4149999999999991                   43.32      59.564999999999998
   157   1      5.4149999999999991      45.125000000000007      57.759999999999998
   158   1      5.4149999999999991                   43.32      63.175000000000011
   159   1      5.4149999999999991      45.125000000000007      61.369999999999997
   160   1      5.4149999999999991                   46.93      27.074999999999999
   161   1      5.4149999999999991                   46.93      30.684999999999999
   162   1      5.4149999999999991      48.734999999999999      28.880000000000003
   163   1       3.609999999999999                   46.93      32.490000000000002
   164   1       3.609999999999999      48.734999999999999      34.295000000000002
   165   1      5.4149999999999991                   46.93      34.295000000000002
   166   1      5.4149999999999991      48.734999999999999      32.490000000000002
   167   1       3.609999999999999                   46.93      36.100000000000001
   168   1       3.609999999999999      48.734999999999999      37.905000000000001
   169   1      5.4149999999999991                   46.93      37.905000000000001
   170   1      5.4149999999999991      48.734999999999999      36.100000000000001
   171   1       3.609999999999999                   46.93      39.710000000000001
   172   1       3.609999999999999      48.734999999999999      41.515000000000001
   173   1      5.4149999999999991                   46.93      41.515000000000001
   174   1      5.4149999999999991      48.734999999999999      39.710000000000001
   175   1       3.609999999999999                   46.93                   43.32
   176   1       3.609999999999999      48.734999999999999      45.125000000000007
   177   1      5.4149999999999991                   46.93      45.125000000000007
   178   1      5.4149999999999991      48.734999999999999                   43.32
   179   1       3.609999999999999                   46.93                   46.93
   180   1       3.609999999999999      48.734999999999999      48.734999999999999
   181   1      5.4149999999999991                   46.93      48.734999999999999
   182   1      5.4149999999999991      48.734999999999999                   46.93
   183   1       3.609999999999999                   46.93      50.540000000000006
   184   1       3.609999999999999      48.734999999999999      52.344999999999999
   185   1      5.4149999999999991                   46.93      52.344999999999999
   186   1      5.4149999999999991      48.734999999999999      50.540000000000006
   187   1       3.609999999999999                   46.93      54.149999999999999
   188   1      5.4149999999999991                   46.93      55.954999999999998
   189   1      5.4149999999999991      48.734999999999999      54.149999999999999
   190   1      5.4149999999999991                   46.93      59.564999999999998
   191   1      5.4149999999999991      48.734999999999999      57.759999999999998
   192   1      5.4149999999999991      50.540000000000006      30.684999999999999
   193   1      5.4149999999999991      50.540000000000006      34.295000000000002
   194   1      5.4149999999999991      52.344999999999999      32.490000000000002
   195   1       3.609999999999999      50.540000000000006      36.100000000000001
   196   1       3.609999999999999      52.344999999999999      37.905000000000001
   197   1      5.4149999999999991      50.540000000000006      37.905000000000001
   198   1      5.4149999999999991      52.344999999999999      36.100000000000001
   199   1       3.609999999999999      50.540000000000006      39.710000000000001
   200   1       3.609999999999999      52.344999999999999      41.515000000000001
   201   1      5.4149999999999991      50.540000000000006      41.515000000000001
   202   1      5.4149999999999991      52.344999999999999      39.710000000000001
   203   1       3.609999999999999      50.540000000000006                   43.32
   204   1       3.609999999999999      52.344999999999999      45.125000000000007
   205   1      5.4149999999999991      50.540000000000006      45.125000000000007
   206   1      5.4149999999999991      52.344999999999999                   43.32
   207   1       3.609999999999999      50.540000000000006                   46.93
   208   1       3.609999999999999      52.344999999999999      48.734999999999999
   209   1      5.4149999999999991      50.540000000000006      48.734999999999999
   210   1      5.4149999999999991      52.344999999999999                   46.93
   211   1       3.609999999999999      50.540000000000006      50.540000000000006
   212   1      5.4149999999999991      50.540000000000006      52.344999999999999
   213   1      5.4149999999999991      52.344999999999999      50.540000000000006
   214   1      5.4149999999999991      50.540000000000006      55.954999999999998
   215   1      5.4149999999999991      52.344999999999999      54.149999999999999
   216   1      5.4149999999999991      54.149999999999999      34.295000000000002
   217   1      5.4149999999999991      54.149999999999999      37.905000000000001
   218   1      5.4149999999999991      55.954999999999998      36.100000000000001
   219   1       3.609999999999999      54.149999999999999      39.710000000000001
   220   1       3.609999999999999      55.954999999999998      41.515000000000001
   221   1      5.4149999999999991      54.149999999999999      41.515000000000001
   222   1      5.4149999999999991      55.954999999999998      39.710000000000001
   223   1       3.609999999999999      54.149999999999999                   43.32
   224   1       3.609999999999999      55.954999999999998      45.125000000000007
   225   1      5.4149999999999991      54.149999999999999      45.125000000000007
   226   1      5.4149999999999991      55.954999999999998                   43.32
   227   1       3.609999999999999      54.149999999999999                   46.93
   228   1      5.4149999999999991      54.149999999999999      48.734999999999999
   229   1      5.4149999999999991      55.954999999999998                   46.93
   230   1      5.4149999999999991      54.149999999999999      52.344999999999999
   231   1      5.4149999999999991      55.954999999999998      50.540000000000006
   232   1      5.4149999999999991      57.759999999999998      37.905000000000001
   233   1      5.4149999999999991      57.759999999999998      41.515000000000001
   234   1      5.4149999999999991      59.564999999999998      39.710000000000001
   235   1       3.609999999999999      57.759999999999998                   43.32
   236   1      5.4149999999999991      57.759999999999998      45.125000000000007
   237   1      5.4149999999999991      59.564999999999998                   43.32
   238   1      5.4149999999999991      57.759999999999998      48.734999999999999
   239   1      5.4149999999999991      59.564999999999998                   46.93
   240   1      5.4149999999999991      61.369999999999997      41.515000000000001
   241   1      5.4149999999999991      61.369999999999997      45.125000000000007
   242   1      5.4149999999999991      63.175000000000011                   43.32
   243   1      9.0249999999999986      9.0249999999999986                   43.32
   244   1      9.0249999999999986      10.829999999999998      41.515000000000001
   245   1      9.0249999999999986      12.635000000000002      39.710000000000001
   246   1      9.0249999999999986      10.829999999999998      45.125000000000007
   247   1      9.0249999999999986      12.635000000000002                   43.32
   248   1      9.0249999999999986      12.635000000000002                   46.93
   249   1      9.0249999999999986      14.440000000000001      37.905000000000001
   250   1      9.0249999999999986      16.245000000000001      36.100000000000001
   251   1       7.219999999999998      16.245000000000001      41.515000000000001
   252   1      9.0249999999999986      14.440000000000001      41.515000000000001
   253   1      9.0249999999999986      16.245000000000001      39.710000000000001
   254   1       7.219999999999998      14.440000000000001                   43.32
   255   1       7.219999999999998      16.245000000000001      45.125000000000007
   256   1      9.0249999999999986      14.440000000000001      45.125000000000007
   257   1      9.0249999999999986      16.245000000000001                   43.32
   258   1      9.0249999999999986      14.440000000000001      48.734999999999999
   259   1      9.0249999999999986      16.245000000000001                   46.93
   260   1      9.0249999999999986      16.245000000000001      50.540000000000006
   261   1      9.0249999999999986      18.050000000000001      34.295000000000002
   262   1      9.0249999999999986                  19.855      32.490000000000002
   263   1       7.219999999999998                  19.855      37.905000000000001
   264   1      9.0249999999999986      18.050000000000001      37.905000000000001
   265   1      9.0249999999999986                  19.855      36.100000000000001
   266   1       7.219999999999998      18.050000000000001      39.710000000000001
   267   1       7.219999999999998                  19.855      41.515000000000001
   268   1      9.0249999999999986      18.050000000000001      41.515000000000001
   269   1      9.0249999999999986                  19.855      39.710000000000001
   270   1       7.219999999999998      18.050000000000001                   43.32
   271   1       7.219999999999998                  19.855      45.125000000000007
   272   1      9.0249999999999986      18.050000000000001      45.125000000000007
   273   1      9.0249999999999986                  19.855                   43.32
   274   1       7.219999999999998      18.050000000000001                   46.93
   275   1       7.219999999999998                  19.855      48.734999999999999
   276   1      9.0249999999999986      18.050000000000001      48.734999999999999
   277   1      9.0249999999999986                  19.855                   46.93
   278   1      9.0249999999999986      18.050000000000001      52.344999999999999
   279   1      9.0249999999999986                  19.855      50.540000000000006
   280   1      9.0249999999999986                  19.855      54.149999999999999
   281   1      9.0249999999999986                   21.66      30.684999999999999
   282   1      9.0249999999999986                  23.465      28.880000000000003
   283   1       7.219999999999998                  23.465      34.295000000000002
   284   1      9.0249999999999986                   21.66      34.295000000000002
   285   1      9.0249999999999986                  23.465      32.490000000000002
   286   1       7.219999999999998                   21.66      36.100000000000001
   287   1       7.219999999999998                  23.465      37.905000000000001
   288   1      9.0249999999999986                   21.66      37.905000000000001
   289   1      9.0249999999999986                  23.465      36.100000000000001
   290   1       7.219999999999998                   21.66      39.710000000000001
   291   1       7.219999999999998                  23.465      41.515000000000001
   292   1      9.0249999999999986                   21.66      41.515000000000001
   293   1      9.0249999999999986                  23.465      39.710000000000001
   294   1       7.219999999999998                   21.66                   43.32
   295   1       7.219999999999998                  23.465      45.125000000000007
   296   1      9.0249999999999986                   21.66      45.125000000000007
   297   1      9.0249999999999986                  23.465                   43.32
   298   1       7.219999999999998                   21.66                   46.93
   299   1       7.219999999999998                  23.465      48.734999999999999
   300   1      9.0249999999999986                   21.66      48.734999999999999
   301   1      9.0249999999999986                  23.465                   46.93
   302   1       7.219999999999998                   21.66      50.540000000000006
   303   1       7.219999999999998                  23.465      52.344999999999999
   304   1      9.0249999999999986                   21.66      52.344999999999999
   305   1      9.0249999999999986                  23.465      50.540000000000006
   306   1      9.0249999999999986                   21.66      55.954999999999998
   307   1      9.0249999999999986                  23.465      54.149999999999999
   308   1      9.0249999999999986                  23.465      57.759999999999998
   309   1      9.0249999999999986      25.270000000000003      27.074999999999999
   310   1      9.0249999999999986      27.074999999999999      25.270000000000003
   311   1       7.219999999999998      27.074999999999999      30.684999999999999
   312   1      9.0249999999999986      25.270000000000003      30.684999999999999
   313   1      9.0249999999999986      27.074999999999999      28.880000000000003
   314   1       7.219999999999998      25.270000000000003      32.490000000000002
   315   1       7.219999999999998      27.074999999999999      34.295000000000002
   316   1      9.0249999999999986      25.270000000000003      34.295000000000002
   317   1      9.0249999999999986      27.074999999999999      32.490000000000002
   318   1       7.219999999999998      25.270000000000003      36.100000000000001
   319   1       7.219999999999998      27.074999999999999      37.905000000000001
   320   1      9.0249999999999986      25.270000000000003      37.905000000000001
   321   1      9.0249999999999986      27.074999999999999      36.100000000000001
   322   1       7.219999999999998      25.270000000000003      39.710000000000001
   323   1       7.219999999999998      27.074999999999999      41.515000000000001
   324   1      9.0249999999999986      25.270000000000003      41.515000000000001
   325   1      9.0249999999999986      27.074999999999999      39.710000000000001
   326   1       7.219999999999998      25.270000000000003                   43.32
   327   1       7.219999999999998      27.074999999999999      45.125000000000007
   328   1      9.0249999999999986      25.270000000000003      45.125000000000007
   329   1      9.0249999999999986      27.074999999999999                   43.32
   330   1       7.219999999999998      25.270000000000003                   46.93
   331   1       7.219999999999998      27.074999999999999      48.734999999999999
   332   1      9.0249999999999986      25.270000000000003      48.734999999999999
   333   1      9.0249999999999986      27.074999999999999                   46.93
   334   1       7.219999999999998      25.270000000000003      50.540000000000006
   335   1       7.219999999999998      27.074999999999999      52.344999999999999
   336   1      9.0249999999999986      25.270000000000003      52.344999999999999
   337   1      9.0249999999999986      27.074999999999999      50.540000000000006
   338   1       7.219999999999998      25.270000000000003      54.149999999999999
   339   1       7.219999999999998      27.074999999999999      55.954999999999998
   340   1      9.0249999999999986      25.270000000000003      55.954999999999998
   341   1      9.0249999999999986      27.074999999999999      54.149999999999999
   342   1      9.0249999999999986      25.270000000000003      59.564999999999998
   343   1      9.0249999999999986      27.074999999999999      57.759999999999998
   344   1      9.0249999999999986      27.074999999999999      61.369999999999997
   345   1      9.0249999999999986      28.880000000000003                  23.465
   346   1      9.0249999999999986      30.684999999999999                   21.66
   347   1       7.219999999999998      30.684999999999999      27.074999999999999
   348   1      9.0249999999999986      28.880000000000003      27.074999999999999
   349   1      9.0249999999999986      30.684999999999999      25.270000000000003
   350   1       7.219999999999998      28.880000000000003      28.880000000000003
   351   1       7.219999999999998      30.684999999999999      30.684999999999999
   352   1      9.0249999999999986      28.880000000000003      30.684999999999999
   353   1      9.0249999999999986      30.684999999999999      28.880000000000003
   354   1       7.219999999999998      28.880000000000003      32.490000000000002
   355   1       7.219999999999998      30.684999999999999      34.295000000000002
   356   1      9.0249999999999986      28.880000000000003      34.295000000000002
   357   1      9.0249999999999986      30.684999999999999      32.490000000000002
   358   1       7.219999999999998      28.880000000000003      36.100000000000001