model_files/Au/Au_30000/Au_210/data.Au_210_fcc_30389 (written by ASE) 

30389 	 atoms 
1  atom types
0.0                     102  xlo xhi
0.0                     102  ylo yhi
0.0                     102  zlo zhi


Atoms 

     1   1  7.1054273576010019e-15      48.960000000000008      51.000000000000014
     2   1  7.1054273576010019e-15      51.000000000000014      48.960000000000008
     3   1  7.1054273576010019e-15      51.000000000000014      53.039999999999999
     4   1  7.1054273576010019e-15      53.039999999999999      51.000000000000014
     5   1      4.0800000000000054      40.800000000000004      42.840000000000011
     6   1      4.0800000000000054      40.800000000000004      46.920000000000009
     7   1      4.0800000000000054      40.800000000000004      51.000000000000014
     8   1      4.0800000000000054      40.800000000000004      55.080000000000013
     9   1      4.0800000000000054      40.800000000000004      59.160000000000011
    10   1      4.0800000000000054      42.840000000000011      40.800000000000004
    11   1      2.0400000000000063       44.88000000000001       44.88000000000001
    12   1      4.0800000000000054      42.840000000000011       44.88000000000001
    13   1      4.0800000000000054       44.88000000000001      42.840000000000011
    14   1      2.0400000000000063       44.88000000000001      48.960000000000008
    15   1      4.0800000000000054      42.840000000000011      48.960000000000008
    16   1      4.0800000000000054       44.88000000000001      46.920000000000009
    17   1      2.0400000000000063       44.88000000000001      53.039999999999999
    18   1      4.0800000000000054      42.840000000000011      53.039999999999999
    19   1      4.0800000000000054       44.88000000000001      51.000000000000014
    20   1      2.0400000000000063       44.88000000000001      57.120000000000005
    21   1      4.0800000000000054      42.840000000000011      57.120000000000005
    22   1      4.0800000000000054       44.88000000000001      55.080000000000013
    23   1      4.0800000000000054      42.840000000000011       61.20000000000001
    24   1      4.0800000000000054       44.88000000000001      59.160000000000011
    25   1      4.0800000000000054      46.920000000000009      40.800000000000004
    26   1      2.0400000000000063      48.960000000000008       44.88000000000001
    27   1      4.0800000000000054      46.920000000000009       44.88000000000001
    28   1      4.0800000000000054      48.960000000000008      42.840000000000011
    29   1      2.0400000000000063      46.920000000000009      46.920000000000009
    30   1      2.0400000000000063      48.960000000000008      48.960000000000008
    31   1      4.0800000000000054      46.920000000000009      48.960000000000008
    32   1      4.0800000000000054      48.960000000000008      46.920000000000009
    33   1      2.0400000000000063      46.920000000000009      51.000000000000014
    34   1      2.0400000000000063      48.960000000000008      53.039999999999999
    35   1      4.0800000000000054      46.920000000000009      53.039999999999999
    36   1      4.0800000000000054      48.960000000000008      51.000000000000014
    37   1      2.0400000000000063      46.920000000000009      55.080000000000013
    38   1      2.0400000000000063      48.960000000000008      57.120000000000005
    39   1      4.0800000000000054      46.920000000000009      57.120000000000005
    40   1      4.0800000000000054      48.960000000000008      55.080000000000013
    41   1      4.0800000000000054      46.920000000000009       61.20000000000001
    42   1      4.0800000000000054      48.960000000000008      59.160000000000011
    43   1      4.0800000000000054      51.000000000000014      40.800000000000004
    44   1      2.0400000000000063      53.039999999999999       44.88000000000001
    45   1      4.0800000000000054      51.000000000000014       44.88000000000001
    46   1      4.0800000000000054      53.039999999999999      42.840000000000011
    47   1      2.0400000000000063      51.000000000000014      46.920000000000009
    48   1      2.0400000000000063      53.039999999999999      48.960000000000008
    49   1      4.0800000000000054      51.000000000000014      48.960000000000008
    50   1      4.0800000000000054      53.039999999999999      46.920000000000009
    51   1      2.0400000000000063      51.000000000000014      51.000000000000014
    52   1      2.0400000000000063      53.039999999999999      53.039999999999999
    53   1      4.0800000000000054      51.000000000000014      53.039999999999999
    54   1      4.0800000000000054      53.039999999999999      51.000000000000014
    55   1      2.0400000000000063      51.000000000000014      55.080000000000013
    56   1      2.0400000000000063      53.039999999999999      57.120000000000005
    57   1      4.0800000000000054      51.000000000000014      57.120000000000005
    58   1      4.0800000000000054      53.039999999999999      55.080000000000013
    59   1      4.0800000000000054      51.000000000000014       61.20000000000001
    60   1      4.0800000000000054      53.039999999999999      59.160000000000011
    61   1      4.0800000000000054      55.080000000000013      40.800000000000004
    62   1      2.0400000000000063      57.120000000000005       44.88000000000001
    63   1      4.0800000000000054      55.080000000000013       44.88000000000001
    64   1      4.0800000000000054      57.120000000000005      42.840000000000011
    65   1      2.0400000000000063      55.080000000000013      46.920000000000009
    66   1      2.0400000000000063      57.120000000000005      48.960000000000008
    67   1      4.0800000000000054      55.080000000000013      48.960000000000008
    68   1      4.0800000000000054      57.120000000000005      46.920000000000009
    69   1      2.0400000000000063      55.080000000000013      51.000000000000014
    70   1      2.0400000000000063      57.120000000000005      53.039999999999999
    71   1      4.0800000000000054      55.080000000000013      53.039999999999999
    72   1      4.0800000000000054      57.120000000000005      51.000000000000014
    73   1      2.0400000000000063      55.080000000000013      55.080000000000013
    74   1      2.0400000000000063      57.120000000000005      57.120000000000005
    75   1      4.0800000000000054      55.080000000000013      57.120000000000005
    76   1      4.0800000000000054      57.120000000000005      55.080000000000013
    77   1      4.0800000000000054      55.080000000000013       61.20000000000001
    78   1      4.0800000000000054      57.120000000000005      59.160000000000011
    79   1      4.0800000000000054      59.160000000000011      40.800000000000004
    80   1      4.0800000000000054      59.160000000000011       44.88000000000001
    81   1      4.0800000000000054       61.20000000000001      42.840000000000011
    82   1      4.0800000000000054      59.160000000000011      48.960000000000008
    83   1      4.0800000000000054       61.20000000000001      46.920000000000009
    84   1      4.0800000000000054      59.160000000000011      53.039999999999999
    85   1      4.0800000000000054       61.20000000000001      51.000000000000014
    86   1      4.0800000000000054      59.160000000000011      57.120000000000005
    87   1      4.0800000000000054       61.20000000000001      55.080000000000013
    88   1      4.0800000000000054      59.160000000000011       61.20000000000001
    89   1      4.0800000000000054       61.20000000000001      59.160000000000011
    90   1      8.1600000000000037      32.640000000000008      34.680000000000007
    91   1      8.1600000000000037      32.640000000000008      38.760000000000005
    92   1      8.1600000000000037      32.640000000000008      42.840000000000011
    93   1      8.1600000000000037      32.640000000000008      46.920000000000009
    94   1      8.1600000000000037      32.640000000000008      51.000000000000014
    95   1      8.1600000000000037      32.640000000000008      55.080000000000013
    96   1      8.1600000000000037      32.640000000000008      59.160000000000011
    97   1      8.1600000000000037      32.640000000000008      63.240000000000009
    98   1      8.1600000000000037      32.640000000000008      67.320000000000007
    99   1      8.1600000000000037      34.680000000000007      32.640000000000008
   100   1      6.1200000000000117      36.720000000000006      36.720000000000006
   101   1      8.1600000000000037      34.680000000000007      36.720000000000006
   102   1      8.1600000000000037      36.720000000000006      34.680000000000007
   103   1      6.1200000000000117      36.720000000000006      40.800000000000004
   104   1      8.1600000000000037      34.680000000000007      40.800000000000004
   105   1      8.1600000000000037      36.720000000000006      38.760000000000005
   106   1      6.1200000000000117      36.720000000000006       44.88000000000001
   107   1      8.1600000000000037      34.680000000000007       44.88000000000001
   108   1      8.1600000000000037      36.720000000000006      42.840000000000011
   109   1      6.1200000000000117      36.720000000000006      48.960000000000008
   110   1      8.1600000000000037      34.680000000000007      48.960000000000008
   111   1      8.1600000000000037      36.720000000000006      46.920000000000009
   112   1      6.1200000000000117      36.720000000000006      53.039999999999999
   113   1      8.1600000000000037      34.680000000000007      53.039999999999999
   114   1      8.1600000000000037      36.720000000000006      51.000000000000014
   115   1      6.1200000000000117      36.720000000000006      57.120000000000005
   116   1      8.1600000000000037      34.680000000000007      57.120000000000005
   117   1      8.1600000000000037      36.720000000000006      55.080000000000013
   118   1      6.1200000000000117      36.720000000000006       61.20000000000001
   119   1      8.1600000000000037      34.680000000000007       61.20000000000001
   120   1      8.1600000000000037      36.720000000000006      59.160000000000011
   121   1      6.1200000000000117      36.720000000000006      65.280000000000015
   122   1      8.1600000000000037      34.680000000000007      65.280000000000015
   123   1      8.1600000000000037      36.720000000000006      63.240000000000009
   124   1      8.1600000000000037      34.680000000000007      69.360000000000014
   125   1      8.1600000000000037      36.720000000000006      67.320000000000007
   126   1      8.1600000000000037      38.760000000000005      32.640000000000008
   127   1      6.1200000000000117      40.800000000000004      36.720000000000006
   128   1      8.1600000000000037      38.760000000000005      36.720000000000006
   129   1      8.1600000000000037      40.800000000000004      34.680000000000007
   130   1      6.1200000000000117      38.760000000000005      38.760000000000005
   131   1      6.1200000000000117      40.800000000000004      40.800000000000004
   132   1      8.1600000000000037      38.760000000000005      40.800000000000004
   133   1      8.1600000000000037      40.800000000000004      38.760000000000005
   134   1      6.1200000000000117      38.760000000000005      42.840000000000011
   135   1      6.1200000000000117      40.800000000000004       44.88000000000001
   136   1      8.1600000000000037      38.760000000000005       44.88000000000001
   137   1      8.1600000000000037      40.800000000000004      42.840000000000011
   138   1      6.1200000000000117      38.760000000000005      46.920000000000009
   139   1      6.1200000000000117      40.800000000000004      48.960000000000008
   140   1      8.1600000000000037      38.760000000000005      48.960000000000008
   141   1      8.1600000000000037      40.800000000000004      46.920000000000009
   142   1      6.1200000000000117      38.760000000000005      51.000000000000014
   143   1      6.1200000000000117      40.800000000000004      53.039999999999999
   144   1      8.1600000000000037      38.760000000000005      53.039999999999999
   145   1      8.1600000000000037      40.800000000000004      51.000000000000014
   146   1      6.1200000000000117      38.760000000000005      55.080000000000013
   147   1      6.1200000000000117      40.800000000000004      57.120000000000005
   148   1      8.1600000000000037      38.760000000000005      57.120000000000005
   149   1      8.1600000000000037      40.800000000000004      55.080000000000013
   150   1      6.1200000000000117      38.760000000000005      59.160000000000011
   151   1      6.1200000000000117      40.800000000000004       61.20000000000001
   152   1      8.1600000000000037      38.760000000000005       61.20000000000001
   153   1      8.1600000000000037      40.800000000000004      59.160000000000011
   154   1      6.1200000000000117      38.760000000000005      63.240000000000009
   155   1      6.1200000000000117      40.800000000000004      65.280000000000015
   156   1      8.1600000000000037      38.760000000000005      65.280000000000015
   157   1      8.1600000000000037      40.800000000000004      63.240000000000009
   158   1      8.1600000000000037      38.760000000000005      69.360000000000014
   159   1      8.1600000000000037      40.800000000000004      67.320000000000007
   160   1      8.1600000000000037      42.840000000000011      32.640000000000008
   161   1      6.1200000000000117       44.88000000000001      36.720000000000006
   162   1      8.1600000000000037      42.840000000000011      36.720000000000006
   163   1      8.1600000000000037       44.88000000000001      34.680000000000007
   164   1      6.1200000000000117      42.840000000000011      38.760000000000005
   165   1      6.1200000000000117       44.88000000000001      40.800000000000004
   166   1      8.1600000000000037      42.840000000000011      40.800000000000004
   167   1      8.1600000000000037       44.88000000000001      38.760000000000005
   168   1      6.1200000000000117      42.840000000000011      42.840000000000011
   169   1      6.1200000000000117       44.88000000000001       44.88000000000001
   170   1      8.1600000000000037      42.840000000000011       44.88000000000001
   171   1      8.1600000000000037       44.88000000000001      42.840000000000011
   172   1      6.1200000000000117      42.840000000000011      46.920000000000009
   173   1      6.1200000000000117       44.88000000000001      48.960000000000008
   174   1      8.1600000000000037      42.840000000000011      48.960000000000008
   175   1      8.1600000000000037       44.88000000000001      46.920000000000009
   176   1      6.1200000000000117      42.840000000000011      51.000000000000014
   177   1      6.1200000000000117       44.88000000000001      53.039999999999999
   178   1      8.1600000000000037      42.840000000000011      53.039999999999999
   179   1      8.1600000000000037       44.88000000000001      51.000000000000014
   180   1      6.1200000000000117      42.840000000000011      55.080000000000013
   181   1      6.1200000000000117       44.88000000000001      57.120000000000005
   182   1      8.1600000000000037      42.840000000000011      57.120000000000005
   183   1      8.1600000000000037       44.88000000000001      55.080000000000013
   184   1      6.1200000000000117      42.840000000000011      59.160000000000011
   185   1      6.1200000000000117       44.88000000000001       61.20000000000001
   186   1      8.1600000000000037      42.840000000000011       61.20000000000001
   187   1      8.1600000000000037       44.88000000000001      59.160000000000011
   188   1      6.1200000000000117      42.840000000000011      63.240000000000009
   189   1      6.1200000000000117       44.88000000000001      65.280000000000015
   190   1      8.1600000000000037      42.840000000000011      65.280000000000015
   191   1      8.1600000000000037       44.88000000000001      63.240000000000009
   192   1      8.1600000000000037      42.840000000000011      69.360000000000014
   193   1      8.1600000000000037       44.88000000000001      67.320000000000007
   194   1      8.1600000000000037      46.920000000000009      32.640000000000008
   195   1      6.1200000000000117      48.960000000000008      36.720000000000006
   196   1      8.1600000000000037      46.920000000000009      36.720000000000006
   197   1      8.1600000000000037      48.960000000000008      34.680000000000007
   198   1      6.1200000000000117      46.920000000000009      38.760000000000005
   199   1      6.1200000000000117      48.960000000000008      40.800000000000004
   200   1      8.1600000000000037      46.920000000000009      40.800000000000004
   201   1      8.1600000000000037      48.960000000000008      38.760000000000005
   202   1      6.1200000000000117      46.920000000000009      42.840000000000011
   203   1      6.1200000000000117      48.960000000000008       44.88000000000001
   204   1      8.1600000000000037      46.920000000000009       44.88000000000001
   205   1      8.1600000000000037      48.960000000000008      42.840000000000011
   206   1      6.1200000000000117      46.920000000000009      46.920000000000009
   207   1      6.1200000000000117      48.960000000000008      48.960000000000008
   208   1      8.1600000000000037      46.920000000000009      48.960000000000008
   209   1      8.1600000000000037      48.960000000000008      46.920000000000009
   210   1      6.1200000000000117      46.920000000000009      51.000000000000014
   211   1      6.1200000000000117      48.960000000000008      53.039999999999999
   212   1      8.1600000000000037      46.920000000000009      53.039999999999999
   213   1      8.1600000000000037      48.960000000000008      51.000000000000014
   214   1      6.1200000000000117      46.920000000000009      55.080000000000013
   215   1      6.1200000000000117      48.960000000000008      57.120000000000005
   216   1      8.1600000000000037      46.920000000000009      57.120000000000005
   217   1      8.1600000000000037      48.960000000000008      55.080000000000013
   218   1      6.1200000000000117      46.920000000000009      59.160000000000011
   219   1      6.1200000000000117      48.960000000000008       61.20000000000001
   220   1      8.1600000000000037      46.920000000000009       61.20000000000001
   221   1      8.1600000000000037      48.960000000000008      59.160000000000011
   222   1      6.1200000000000117      46.920000000000009      63.240000000000009
   223   1      6.1200000000000117      48.960000000000008      65.280000000000015
   224   1      8.1600000000000037      46.920000000000009      65.280000000000015
   225   1      8.1600000000000037      48.960000000000008      63.240000000000009
   226   1      8.1600000000000037      46.920000000000009      69.360000000000014
   227   1      8.1600000000000037      48.960000000000008      67.320000000000007
   228   1      8.1600000000000037      51.000000000000014      32.640000000000008
   229   1      6.1200000000000117      53.039999999999999      36.720000000000006
   230   1      8.1600000000000037      51.000000000000014      36.720000000000006
   231   1      8.1600000000000037      53.039999999999999      34.680000000000007
   232   1      6.1200000000000117      51.000000000000014      38.760000000000005
   233   1      6.1200000000000117      53.039999999999999      40.800000000000004
   234   1      8.1600000000000037      51.000000000000014      40.800000000000004
   235   1      8.1600000000000037      53.039999999999999      38.760000000000005
   236   1      6.1200000000000117      51.000000000000014      42.840000000000011
   237   1      6.1200000000000117      53.039999999999999       44.88000000000001
   238   1      8.1600000000000037      51.000000000000014       44.88000000000001
   239   1      8.1600000000000037      53.039999999999999      42.840000000000011
   240   1      6.1200000000000117      51.000000000000014      46.920000000000009
   241   1      6.1200000000000117      53.039999999999999      48.960000000000008
   242   1      8.1600000000000037      51.000000000000014      48.960000000000008
   243   1      8.1600000000000037      53.039999999999999      46.920000000000009
   244   1      6.1200000000000117      51.000000000000014      51.000000000000014
   245   1      6.1200000000000117      53.039999999999999      53.039999999999999
   246   1      8.1600000000000037      51.000000000000014      53.039999999999999
   247   1      8.1600000000000037      53.039999999999999      51.000000000000014
   248   1      6.1200000000000117      51.000000000000014      55.080000000000013
   249   1      6.1200000000000117      53.039999999999999      57.120000000000005
   250   1      8.1600000000000037      51.000000000000014      57.120000000000005
   251   1      8.1600000000000037      53.039999999999999      55.080000000000013
   252   1      6.1200000000000117      51.000000000000014      59.160000000000011
   253   1      6.1200000000000117      53.039999999999999       61.20000000000001
   254   1      8.1600000000000037      51.000000000000014       61.20000000000001
   255   1      8.1600000000000037      53.039999999999999      59.160000000000011
   256   1      6.1200000000000117      51.000000000000014      63.240000000000009
   257   1      6.1200000000000117      53.039999999999999      65.280000000000015
   258   1      8.1600000000000037      51.000000000000014      65.280000000000015
   259   1      8.1600000000000037      53.039999999999999      63.240000000000009
   260   1      8.1600000000000037      51.000000000000014      69.360000000000014
   261   1      8.1600000000000037      53.039999999999999      67.320000000000007
   262   1      8.1600000000000037      55.080000000000013      32.640000000000008
   263   1      6.1200000000000117      57.120000000000005      36.720000000000006
   264   1      8.1600000000000037      55.080000000000013      36.720000000000006
   265   1      8.1600000000000037      57.120000000000005      34.680000000000007
   266   1      6.1200000000000117      55.080000000000013      38.760000000000005
   267   1      6.1200000000000117      57.120000000000005      40.800000000000004
   268   1      8.1600000000000037      55.080000000000013      40.800000000000004
   269   1      8.1600000000000037      57.120000000000005      38.760000000000005
   270   1      6.1200000000000117      55.080000000000013      42.840000000000011
   271   1      6.1200000000000117      57.120000000000005       44.88000000000001
   272   1      8.1600000000000037      55.080000000000013       44.88000000000001
   273   1      8.1600000000000037      57.120000000000005      42.840000000000011
   274   1      6.1200000000000117      55.080000000000013      46.920000000000009
   275   1      6.1200000000000117      57.120000000000005      48.960000000000008
   276   1      8.1600000000000037      55.080000000000013      48.960000000000008
   277   1      8.1600000000000037      57.120000000000005      46.920000000000009
   278   1      6.1200000000000117      55.080000000000013      51.000000000000014
   279   1      6.1200000000000117      57.120000000000005      53.039999999999999
   280   1      8.1600000000000037      55.080000000000013      53.039999999999999
   281   1      8.1600000000000037      57.120000000000005      51.000000000000014
   282   1      6.1200000000000117      55.080000000000013      55.080000000000013
   283   1      6.1200000000000117      57.120000000000005      57.120000000000005
   284   1      8.1600000000000037      55.080000000000013      57.120000000000005
   285   1      8.1600000000000037      57.120000000000005      55.080000000000013
   286   1      6.1200000000000117      55.080000000000013      59.160000000000011
   287   1      6.1200000000000117      57.120000000000005       61.20000000000001
   288   1      8.1600000000000037      55.080000000000013       61.20000000000001
   289   1      8.1600000000000037      57.120000000000005      59.160000000000011
   290   1      6.1200000000000117      55.080000000000013      63.240000000000009
   291   1      6.1200000000000117      57.120000000000005      65.280000000000015
   292   1      8.1600000000000037      55.080000000000013      65.280000000000015
   293   1      8.1600000000000037      57.120000000000005      63.240000000000009
   294   1      8.1600000000000037      55.080000000000013      69.360000000000014
   295   1      8.1600000000000037      57.120000000000005      67.320000000000007
   296   1      8.1600000000000037      59.160000000000011      32.640000000000008
   297   1      6.1200000000000117       61.20000000000001      36.720000000000006
   298   1      8.1600000000000037      59.160000000000011      36.720000000000006
   299   1      8.1600000000000037       61.20000000000001      34.680000000000007
   300   1      6.1200000000000117      59.160000000000011      38.760000000000005
   301   1      6.1200000000000117       61.20000000000001      40.800000000000004
   302   1      8.1600000000000037      59.160000000000011      40.800000000000004
   303   1      8.1600000000000037       61.20000000000001      38.760000000000005
   304   1      6.1200000000000117      59.160000000000011      42.840000000000011
   305   1      6.1200000000000117       61.20000000000001       44.88000000000001
   306   1      8.1600000000000037      59.160000000000011       44.88000000000001
   307   1      8.1600000000000037       61.20000000000001      42.840000000000011
   308   1      6.1200000000000117      59.160000000000011      46.920000000000009
   309   1      6.1200000000000117       61.20000000000001      48.960000000000008
   310   1      8.1600000000000037      59.160000000000011      48.960000000000008
   311   1      8.1600000000000037       61.20000000000001      46.920000000000009
   312   1      6.1200000000000117      59.160000000000011      51.000000000000014
   313   1      6.1200000000000117       61.20000000000001      53.039999999999999
   314   1      8.1600000000000037      59.160000000000011      53.039999999999999
   315   1      8.1600000000000037       61.20000000000001      51.000000000000014
   316   1      6.1200000000000117      59.160000000000011      55.080000000000013
   317   1      6.1200000000000117       61.20000000000001      57.120000000000005
   318   1      8.1600000000000037      59.160000000000011      57.120000000000005
   319   1      8.1600000000000037       61.20000000000001      55.080000000000013
   320   1      6.1200000000000117      59.160000000000011      59.160000000000011
   321   1      6.1200000000000117       61.20000000000001       61.20000000000001
   322   1      8.1600000000000037      59.160000000000011       61.20000000000001
   323   1      8.1600000000000037       61.20000000000001      59.160000000000011
   324   1      6.1200000000000117      59.160000000000011      63.240000000000009
   325   1      6.1200000000000117       61.20000000000001      65.280000000000015
   326   1      8.1600000000000037      59.160000000000011      65.280000000000015
   327   1      8.1600000000000037       61.20000000000001      63.240000000000009
   328   1      8.1600000000000037      59.160000000000011      69.360000000000014
   329   1      8.1600000000000037       61.20000000000001      67.320000000000007
   330   1      8.1600000000000037      63.240000000000009      32.640000000000008
   331   1      6.1200000000000117      65.280000000000015      36.720000000000006
   332   1      8.1600000000000037      63.240000000000009      36.720000000000006
   333   1      8.1600000000000037      65.280000000000015      34.680000000000007
   334   1      6.1200000000000117      63.240000000000009      38.760000000000005
   335   1      6.1200000000000117      65.280000000000015      40.800000000000004
   336   1      8.1600000000000037      63.240000000000009      40.800000000000004
   337   1      8.1600000000000037      65.280000000000015      38.760000000000005
   338   1      6.1200000000000117      63.240000000000009      42.840000000000011
   339   1      6.1200000000000117      65.280000000000015       44.88000000000001
   340   1      8.1600000000000037      63.240000000000009       44.88000000000001
   341   1      8.1600000000000037      65.280000000000015      42.840000000000011
   342   1      6.1200000000000117      63.240000000000009      46.920000000000009
   343   1      6.1200000000000117      65.280000000000015      48.960000000000008
   344   1      8.1600000000000037      63.240000000000009      48.960000000000008
   345   1      8.1600000000000037      65.280000000000015      46.920000000000009
   346   1      6.1200000000000117      63.240000000000009      51.000000000000014
   347   1      6.1200000000000117      65.280000000000015      53.039999999999999
   348   1      8.1600000000000037      63.240000000000009      53.039999999999999
   349   1      8.1600000000000037      65.280000000000015      51.000000000000014
   350   1      6.1200000000000117      63.240000000000009      55.080000000000013
   351   1      6.1200000000000117      65.280000000000015      57.120000000000005
   352   1      8.1600000000000037      63.240000000000009      57.120000000000005
   353   1      8.1600000000000037      65.280000000000015      55.080000000000013
   354   1      6.1200000000000117      63.240000000000009      59.160000000000011
   355   1      6.1200000000000117      65.280000000000015       61.20000000000001
   356   1      8.1600000000000037      63.240000000000009       61.20000000000001
   357   1      8.1600000000000037      65.280000000000015      59.160000000000011
   358   1      6.1200000000000117      63.240000000000009      63.240000000000009