model_files/NiCoCrFeMn/NiCoCrFeMn_30000/NiCoCrFeMn_544/NiCoCrFeMn_544_fcc_30001_temp.data (written by ASE) 

30001 	 atoms 
5  atom types
0.0                     117  xlo xhi
0.0                     117  ylo yhi
0.0                     117  zlo zhi


Atoms 

     1   1      1.7974999999999997      55.722500000000011       57.52000000000001
     2   1      1.7974999999999997       57.52000000000001      55.722500000000011
     3   1                       0       57.52000000000001       57.52000000000001
     4   1      1.7974999999999997       57.52000000000001      59.317500000000003
     5   1      1.7974999999999997      59.317500000000003       57.52000000000001
     6   1      5.3925000000000054      52.127500000000005       57.52000000000001
     7   1      3.5949999999999993      55.722500000000011      55.722500000000011
     8   1      5.3925000000000054      53.925000000000011      55.722500000000011
     9   1      5.3925000000000054      55.722500000000011      53.925000000000011
    10   1      3.5949999999999993      53.925000000000011       57.52000000000001
    11   1      3.5949999999999993      55.722500000000011      59.317500000000003
    12   1      5.3925000000000054      53.925000000000011      59.317500000000003
    13   1      5.3925000000000054      55.722500000000011       57.52000000000001
    14   1      5.3925000000000054      55.722500000000011      61.115000000000016
    15   1      5.3925000000000054       57.52000000000001      52.127500000000005
    16   1      3.5949999999999993       57.52000000000001      53.925000000000011
    17   1      3.5949999999999993      59.317500000000003      55.722500000000011
    18   1      5.3925000000000054       57.52000000000001      55.722500000000011
    19   1      5.3925000000000054      59.317500000000003      53.925000000000011
    20   1      3.5949999999999993       57.52000000000001       57.52000000000001
    21   1      3.5949999999999993      59.317500000000003      59.317500000000003
    22   1      5.3925000000000054       57.52000000000001      59.317500000000003
    23   1      5.3925000000000054      59.317500000000003       57.52000000000001
    24   1      3.5949999999999993       57.52000000000001      61.115000000000016
    25   1      5.3925000000000054       57.52000000000001      62.912500000000009
    26   1      5.3925000000000054      59.317500000000003      61.115000000000016
    27   1      5.3925000000000054      61.115000000000016      55.722500000000011
    28   1      3.5949999999999993      61.115000000000016       57.52000000000001
    29   1      5.3925000000000054      61.115000000000016      59.317500000000003
    30   1      5.3925000000000054      62.912500000000009       57.52000000000001
    31   1       8.987500000000006                 44.9375       57.52000000000001
    32   1       8.987500000000006      46.735000000000014      55.722500000000011
    33   1       8.987500000000006      48.532500000000006      53.925000000000011
    34   1       8.987500000000006      46.735000000000014      59.317500000000003
    35   1       8.987500000000006      48.532500000000006       57.52000000000001
    36   1       8.987500000000006      48.532500000000006      61.115000000000016
    37   1       8.987500000000006      50.330000000000013      52.127500000000005
    38   1       8.987500000000006      52.127500000000005      50.330000000000013
    39   1      7.1900000000000057      52.127500000000005      55.722500000000011
    40   1       8.987500000000006      50.330000000000013      55.722500000000011
    41   1       8.987500000000006      52.127500000000005      53.925000000000011
    42   1      7.1900000000000057      50.330000000000013       57.52000000000001
    43   1      7.1900000000000057      52.127500000000005      59.317500000000003
    44   1       8.987500000000006      50.330000000000013      59.317500000000003
    45   1       8.987500000000006      52.127500000000005       57.52000000000001
    46   1       8.987500000000006      50.330000000000013      62.912500000000009
    47   1       8.987500000000006      52.127500000000005      61.115000000000016
    48   1       8.987500000000006      52.127500000000005      64.710000000000022
    49   1       8.987500000000006      53.925000000000011      48.532500000000006
    50   1       8.987500000000006      55.722500000000011      46.735000000000014
    51   1      7.1900000000000057      55.722500000000011      52.127500000000005
    52   1       8.987500000000006      53.925000000000011      52.127500000000005
    53   1       8.987500000000006      55.722500000000011      50.330000000000013
    54   1      7.1900000000000057      53.925000000000011      53.925000000000011
    55   1      7.1900000000000057      55.722500000000011      55.722500000000011
    56   1       8.987500000000006      53.925000000000011      55.722500000000011
    57   1       8.987500000000006      55.722500000000011      53.925000000000011
    58   1      7.1900000000000057      53.925000000000011       57.52000000000001
    59   1      7.1900000000000057      55.722500000000011      59.317500000000003
    60   1       8.987500000000006      53.925000000000011      59.317500000000003
    61   1       8.987500000000006      55.722500000000011       57.52000000000001
    62   1      7.1900000000000057      53.925000000000011      61.115000000000016
    63   1      7.1900000000000057      55.722500000000011      62.912500000000009
    64   1       8.987500000000006      53.925000000000011      62.912500000000009
    65   1       8.987500000000006      55.722500000000011      61.115000000000016
    66   1       8.987500000000006      53.925000000000011      66.507500000000022
    67   1       8.987500000000006      55.722500000000011      64.710000000000022
    68   1       8.987500000000006      55.722500000000011      68.305000000000007
    69   1       8.987500000000006       57.52000000000001                 44.9375
    70   1       8.987500000000006       57.52000000000001      48.532500000000006
    71   1       8.987500000000006      59.317500000000003      46.735000000000014
    72   1      7.1900000000000057       57.52000000000001      50.330000000000013
    73   1      7.1900000000000057      59.317500000000003      52.127500000000005
    74   1       8.987500000000006       57.52000000000001      52.127500000000005
    75   1       8.987500000000006      59.317500000000003      50.330000000000013
    76   1      7.1900000000000057       57.52000000000001      53.925000000000011
    77   1      7.1900000000000057      59.317500000000003      55.722500000000011
    78   1       8.987500000000006       57.52000000000001      55.722500000000011
    79   1       8.987500000000006      59.317500000000003      53.925000000000011
    80   1      7.1900000000000057       57.52000000000001       57.52000000000001
    81   1      7.1900000000000057      59.317500000000003      59.317500000000003
    82   1       8.987500000000006       57.52000000000001      59.317500000000003
    83   1       8.987500000000006      59.317500000000003       57.52000000000001
    84   1      7.1900000000000057       57.52000000000001      61.115000000000016
    85   1      7.1900000000000057      59.317500000000003      62.912500000000009
    86   1       8.987500000000006       57.52000000000001      62.912500000000009
    87   1       8.987500000000006      59.317500000000003      61.115000000000016
    88   1      7.1900000000000057       57.52000000000001      64.710000000000022
    89   1       8.987500000000006       57.52000000000001      66.507500000000022
    90   1       8.987500000000006      59.317500000000003      64.710000000000022
    91   1       8.987500000000006       57.52000000000001      70.102500000000006
    92   1       8.987500000000006      59.317500000000003      68.305000000000007
    93   1       8.987500000000006      61.115000000000016      48.532500000000006
    94   1       8.987500000000006      61.115000000000016      52.127500000000005
    95   1       8.987500000000006      62.912500000000009      50.330000000000013
    96   1      7.1900000000000057      61.115000000000016      53.925000000000011
    97   1      7.1900000000000057      62.912500000000009      55.722500000000011
    98   1       8.987500000000006      61.115000000000016      55.722500000000011
    99   1       8.987500000000006      62.912500000000009      53.925000000000011
   100   1      7.1900000000000057      61.115000000000016       57.52000000000001
   101   1      7.1900000000000057      62.912500000000009      59.317500000000003
   102   1       8.987500000000006      61.115000000000016      59.317500000000003
   103   1       8.987500000000006      62.912500000000009       57.52000000000001
   104   1      7.1900000000000057      61.115000000000016      61.115000000000016
   105   1       8.987500000000006      61.115000000000016      62.912500000000009
   106   1       8.987500000000006      62.912500000000009      61.115000000000016
   107   1       8.987500000000006      61.115000000000016      66.507500000000022
   108   1       8.987500000000006      62.912500000000009      64.710000000000022
   109   1       8.987500000000006      64.710000000000022      52.127500000000005
   110   1       8.987500000000006      64.710000000000022      55.722500000000011
   111   1       8.987500000000006      66.507500000000022      53.925000000000011
   112   1      7.1900000000000057      64.710000000000022       57.52000000000001
   113   1       8.987500000000006      64.710000000000022      59.317500000000003
   114   1       8.987500000000006      66.507500000000022       57.52000000000001
   115   1       8.987500000000006      64.710000000000022      62.912500000000009
   116   1       8.987500000000006      66.507500000000022      61.115000000000016
   117   1       8.987500000000006      68.305000000000007      55.722500000000011
   118   1       8.987500000000006      68.305000000000007      59.317500000000003
   119   1       8.987500000000006      70.102500000000006       57.52000000000001
   120   1      12.582500000000005      41.342500000000001       57.52000000000001
   121   1      10.785000000000005                 44.9375      55.722500000000011
   122   1      12.582500000000005      43.140000000000008      55.722500000000011
   123   1      12.582500000000005                 44.9375      53.925000000000011
   124   1      10.785000000000005      43.140000000000008       57.52000000000001
   125   1      10.785000000000005                 44.9375      59.317500000000003
   126   1      12.582500000000005      43.140000000000008      59.317500000000003
   127   1      12.582500000000005                 44.9375       57.52000000000001
   128   1      12.582500000000005                 44.9375      61.115000000000016
   129   1      10.785000000000005      48.532500000000006      52.127500000000005
   130   1      12.582500000000005      46.735000000000014      52.127500000000005
   131   1      12.582500000000005      48.532500000000006      50.330000000000013
   132   1      10.785000000000005      46.735000000000014      53.925000000000011
   133   1      10.785000000000005      48.532500000000006      55.722500000000011
   134   1      12.582500000000005      46.735000000000014      55.722500000000011
   135   1      12.582500000000005      48.532500000000006      53.925000000000011
   136   1      10.785000000000005      46.735000000000014       57.52000000000001
   137   1      10.785000000000005      48.532500000000006      59.317500000000003
   138   1      12.582500000000005      46.735000000000014      59.317500000000003
   139   1      12.582500000000005      48.532500000000006       57.52000000000001
   140   1      10.785000000000005      46.735000000000014      61.115000000000016
   141   1      10.785000000000005      48.532500000000006      62.912500000000009
   142   1      12.582500000000005      46.735000000000014      62.912500000000009
   143   1      12.582500000000005      48.532500000000006      61.115000000000016
   144   1      12.582500000000005      48.532500000000006      64.710000000000022
   145   1      10.785000000000005      52.127500000000005      48.532500000000006
   146   1      12.582500000000005      50.330000000000013      48.532500000000006
   147   1      12.582500000000005      52.127500000000005      46.735000000000014
   148   1      10.785000000000005      50.330000000000013      50.330000000000013
   149   1      10.785000000000005      52.127500000000005      52.127500000000005
   150   1      12.582500000000005      50.330000000000013      52.127500000000005
   151   1      12.582500000000005      52.127500000000005      50.330000000000013
   152   1      10.785000000000005      50.330000000000013      53.925000000000011
   153   1      10.785000000000005      52.127500000000005      55.722500000000011
   154   1      12.582500000000005      50.330000000000013      55.722500000000011
   155   1      12.582500000000005      52.127500000000005      53.925000000000011
   156   1      10.785000000000005      50.330000000000013       57.52000000000001
   157   1      10.785000000000005      52.127500000000005      59.317500000000003
   158   1      12.582500000000005      50.330000000000013      59.317500000000003
   159   1      12.582500000000005      52.127500000000005       57.52000000000001
   160   1      10.785000000000005      50.330000000000013      61.115000000000016
   161   1      10.785000000000005      52.127500000000005      62.912500000000009
   162   1      12.582500000000005      50.330000000000013      62.912500000000009
   163   1      12.582500000000005      52.127500000000005      61.115000000000016
   164   1      10.785000000000005      50.330000000000013      64.710000000000022
   165   1      10.785000000000005      52.127500000000005      66.507500000000022
   166   1      12.582500000000005      50.330000000000013      66.507500000000022
   167   1      12.582500000000005      52.127500000000005      64.710000000000022
   168   1      12.582500000000005      52.127500000000005      68.305000000000007
   169   1      10.785000000000005      55.722500000000011                 44.9375
   170   1      12.582500000000005      53.925000000000011                 44.9375
   171   1      12.582500000000005      55.722500000000011      43.140000000000008
   172   1      10.785000000000005      53.925000000000011      46.735000000000014
   173   1      10.785000000000005      55.722500000000011      48.532500000000006
   174   1      12.582500000000005      53.925000000000011      48.532500000000006
   175   1      12.582500000000005      55.722500000000011      46.735000000000014
   176   1      10.785000000000005      53.925000000000011      50.330000000000013
   177   1      10.785000000000005      55.722500000000011      52.127500000000005
   178   1      12.582500000000005      53.925000000000011      52.127500000000005
   179   1      12.582500000000005      55.722500000000011      50.330000000000013
   180   1      10.785000000000005      53.925000000000011      53.925000000000011
   181   1      10.785000000000005      55.722500000000011      55.722500000000011
   182   1      12.582500000000005      53.925000000000011      55.722500000000011
   183   1      12.582500000000005      55.722500000000011      53.925000000000011
   184   1      10.785000000000005      53.925000000000011       57.52000000000001
   185   1      10.785000000000005      55.722500000000011      59.317500000000003
   186   1      12.582500000000005      53.925000000000011      59.317500000000003
   187   1      12.582500000000005      55.722500000000011       57.52000000000001
   188   1      10.785000000000005      53.925000000000011      61.115000000000016
   189   1      10.785000000000005      55.722500000000011      62.912500000000009
   190   1      12.582500000000005      53.925000000000011      62.912500000000009
   191   1      12.582500000000005      55.722500000000011      61.115000000000016
   192   1      10.785000000000005      53.925000000000011      64.710000000000022
   193   1      10.785000000000005      55.722500000000011      66.507500000000022
   194   1      12.582500000000005      53.925000000000011      66.507500000000022
   195   1      12.582500000000005      55.722500000000011      64.710000000000022
   196   1      10.785000000000005      53.925000000000011      68.305000000000007
   197   1      10.785000000000005      55.722500000000011      70.102500000000006
   198   1      12.582500000000005      53.925000000000011      70.102500000000006
   199   1      12.582500000000005      55.722500000000011      68.305000000000007
   200   1      12.582500000000005      55.722500000000011       71.90000000000002
   201   1      12.582500000000005       57.52000000000001      41.342500000000001
   202   1      10.785000000000005       57.52000000000001      43.140000000000008
   203   1      10.785000000000005      59.317500000000003                 44.9375
   204   1      12.582500000000005       57.52000000000001                 44.9375
   205   1      12.582500000000005      59.317500000000003      43.140000000000008
   206   1      10.785000000000005       57.52000000000001      46.735000000000014
   207   1      10.785000000000005      59.317500000000003      48.532500000000006
   208   1      12.582500000000005       57.52000000000001      48.532500000000006
   209   1      12.582500000000005      59.317500000000003      46.735000000000014
   210   1      10.785000000000005       57.52000000000001      50.330000000000013
   211   1      10.785000000000005      59.317500000000003      52.127500000000005
   212   1      12.582500000000005       57.52000000000001      52.127500000000005
   213   1      12.582500000000005      59.317500000000003      50.330000000000013
   214   1      10.785000000000005       57.52000000000001      53.925000000000011
   215   1      10.785000000000005      59.317500000000003      55.722500000000011
   216   1      12.582500000000005       57.52000000000001      55.722500000000011
   217   1      12.582500000000005      59.317500000000003      53.925000000000011
   218   1      10.785000000000005       57.52000000000001       57.52000000000001
   219   1      10.785000000000005      59.317500000000003      59.317500000000003
   220   1      12.582500000000005       57.52000000000001      59.317500000000003
   221   1      12.582500000000005      59.317500000000003       57.52000000000001
   222   1      10.785000000000005       57.52000000000001      61.115000000000016
   223   1      10.785000000000005      59.317500000000003      62.912500000000009
   224   1      12.582500000000005       57.52000000000001      62.912500000000009
   225   1      12.582500000000005      59.317500000000003      61.115000000000016
   226   1      10.785000000000005       57.52000000000001      64.710000000000022
   227   1      10.785000000000005      59.317500000000003      66.507500000000022
   228   1      12.582500000000005       57.52000000000001      66.507500000000022
   229   1      12.582500000000005      59.317500000000003      64.710000000000022
   230   1      10.785000000000005       57.52000000000001      68.305000000000007
   231   1      10.785000000000005      59.317500000000003      70.102500000000006
   232   1      12.582500000000005       57.52000000000001      70.102500000000006
   233   1      12.582500000000005      59.317500000000003      68.305000000000007
   234   1      10.785000000000005       57.52000000000001       71.90000000000002
   235   1      12.582500000000005       57.52000000000001      73.697500000000019
   236   1      12.582500000000005      59.317500000000003       71.90000000000002
   237   1      12.582500000000005      61.115000000000016                 44.9375
   238   1      10.785000000000005      61.115000000000016      46.735000000000014
   239   1      10.785000000000005      62.912500000000009      48.532500000000006
   240   1      12.582500000000005      61.115000000000016      48.532500000000006
   241   1      12.582500000000005      62.912500000000009      46.735000000000014
   242   1      10.785000000000005      61.115000000000016      50.330000000000013
   243   1      10.785000000000005      62.912500000000009      52.127500000000005
   244   1      12.582500000000005      61.115000000000016      52.127500000000005
   245   1      12.582500000000005      62.912500000000009      50.330000000000013
   246   1      10.785000000000005      61.115000000000016      53.925000000000011
   247   1      10.785000000000005      62.912500000000009      55.722500000000011
   248   1      12.582500000000005      61.115000000000016      55.722500000000011
   249   1      12.582500000000005      62.912500000000009      53.925000000000011
   250   1      10.785000000000005      61.115000000000016       57.52000000000001
   251   1      10.785000000000005      62.912500000000009      59.317500000000003
   252   1      12.582500000000005      61.115000000000016      59.317500000000003
   253   1      12.582500000000005      62.912500000000009       57.52000000000001
   254   1      10.785000000000005      61.115000000000016      61.115000000000016
   255   1      10.785000000000005      62.912500000000009      62.912500000000009
   256   1      12.582500000000005      61.115000000000016      62.912500000000009
   257   1      12.582500000000005      62.912500000000009      61.115000000000016
   258   1      10.785000000000005      61.115000000000016      64.710000000000022
   259   1      10.785000000000005      62.912500000000009      66.507500000000022
   260   1      12.582500000000005      61.115000000000016      66.507500000000022
   261   1      12.582500000000005      62.912500000000009      64.710000000000022
   262   1      10.785000000000005      61.115000000000016      68.305000000000007
   263   1      12.582500000000005      61.115000000000016      70.102500000000006
   264   1      12.582500000000005      62.912500000000009      68.305000000000007
   265   1      12.582500000000005      64.710000000000022      48.532500000000006
   266   1      10.785000000000005      64.710000000000022      50.330000000000013
   267   1      10.785000000000005      66.507500000000022      52.127500000000005
   268   1      12.582500000000005      64.710000000000022      52.127500000000005
   269   1      12.582500000000005      66.507500000000022      50.330000000000013
   270   1      10.785000000000005      64.710000000000022      53.925000000000011
   271   1      10.785000000000005      66.507500000000022      55.722500000000011
   272   1      12.582500000000005      64.710000000000022      55.722500000000011
   273   1      12.582500000000005      66.507500000000022      53.925000000000011
   274   1      10.785000000000005      64.710000000000022       57.52000000000001
   275   1      10.785000000000005      66.507500000000022      59.317500000000003
   276   1      12.582500000000005      64.710000000000022      59.317500000000003
   277   1      12.582500000000005      66.507500000000022       57.52000000000001
   278   1      10.785000000000005      64.710000000000022      61.115000000000016
   279   1      10.785000000000005      66.507500000000022      62.912500000000009
   280   1      12.582500000000005      64.710000000000022      62.912500000000009
   281   1      12.582500000000005      66.507500000000022      61.115000000000016
   282   1      10.785000000000005      64.710000000000022      64.710000000000022
   283   1      12.582500000000005      64.710000000000022      66.507500000000022
   284   1      12.582500000000005      66.507500000000022      64.710000000000022
   285   1      12.582500000000005      68.305000000000007      52.127500000000005
   286   1      10.785000000000005      68.305000000000007      53.925000000000011
   287   1      10.785000000000005      70.102500000000006      55.722500000000011
   288   1      12.582500000000005      68.305000000000007      55.722500000000011
   289   1      12.582500000000005      70.102500000000006      53.925000000000011
   290   1      10.785000000000005      68.305000000000007       57.52000000000001
   291   1      10.785000000000005      70.102500000000006      59.317500000000003
   292   1      12.582500000000005      68.305000000000007      59.317500000000003
   293   1      12.582500000000005      70.102500000000006       57.52000000000001
   294   1      10.785000000000005      68.305000000000007      61.115000000000016
   295   1      12.582500000000005      68.305000000000007      62.912500000000009
   296   1      12.582500000000005      70.102500000000006      61.115000000000016
   297   1      12.582500000000005       71.90000000000002      55.722500000000011
   298   1      10.785000000000005       71.90000000000002       57.52000000000001
   299   1      12.582500000000005       71.90000000000002      59.317500000000003
   300   1      12.582500000000005      73.697500000000019       57.52000000000001
   301   1      16.177500000000006      37.747500000000002       57.52000000000001
   302   1      14.380000000000004      41.342500000000001      55.722500000000011
   303   1      16.177500000000006      39.545000000000009      55.722500000000011
   304   1      16.177500000000006      41.342500000000001      53.925000000000011
   305   1      14.380000000000004      39.545000000000009       57.52000000000001
   306   1      14.380000000000004      41.342500000000001      59.317500000000003
   307   1      16.177500000000006      39.545000000000009      59.317500000000003
   308   1      16.177500000000006      41.342500000000001       57.52000000000001
   309   1      16.177500000000006      41.342500000000001      61.115000000000016
   310   1      14.380000000000004                 44.9375      52.127500000000005
   311   1      16.177500000000006      43.140000000000008      52.127500000000005
   312   1      16.177500000000006                 44.9375      50.330000000000013
   313   1      14.380000000000004      43.140000000000008      53.925000000000011
   314   1      14.380000000000004                 44.9375      55.722500000000011
   315   1      16.177500000000006      43.140000000000008      55.722500000000011
   316   1      16.177500000000006                 44.9375      53.925000000000011
   317   1      14.380000000000004      43.140000000000008       57.52000000000001
   318   1      14.380000000000004                 44.9375      59.317500000000003
   319   1      16.177500000000006      43.140000000000008      59.317500000000003
   320   1      16.177500000000006                 44.9375       57.52000000000001
   321   1      14.380000000000004      43.140000000000008      61.115000000000016
   322   1      14.380000000000004                 44.9375      62.912500000000009
   323   1      16.177500000000006      43.140000000000008      62.912500000000009
   324   1      16.177500000000006                 44.9375      61.115000000000016
   325   1      16.177500000000006                 44.9375      64.710000000000022
   326   1      14.380000000000004      48.532500000000006      48.532500000000006
   327   1      16.177500000000006      46.735000000000014      48.532500000000006
   328   1      16.177500000000006      48.532500000000006      46.735000000000014
   329   1      14.380000000000004      46.735000000000014      50.330000000000013
   330   1      14.380000000000004      48.532500000000006      52.127500000000005
   331   1      16.177500000000006      46.735000000000014      52.127500000000005
   332   1      16.177500000000006      48.532500000000006      50.330000000000013
   333   1      14.380000000000004      46.735000000000014      53.925000000000011
   334   1      14.380000000000004      48.532500000000006      55.722500000000011
   335   1      16.177500000000006      46.735000000000014      55.722500000000011
   336   1      16.177500000000006      48.532500000000006      53.925000000000011
   337   1      14.380000000000004      46.735000000000014       57.52000000000001
   338   1      14.380000000000004      48.532500000000006      59.317500000000003
   339   1      16.177500000000006      46.735000000000014      59.317500000000003
   340   1      16.177500000000006      48.532500000000006       57.52000000000001
   341   1      14.380000000000004      46.735000000000014      61.115000000000016
   342   1      14.380000000000004      48.532500000000006      62.912500000000009
   343   1      16.177500000000006      46.735000000000014      62.912500000000009
   344   1      16.177500000000006      48.532500000000006      61.115000000000016
   345   1      14.380000000000004      46.735000000000014      64.710000000000022
   346   1      14.380000000000004      48.532500000000006      66.507500000000022
   347   1      16.177500000000006      46.735000000000014      66.507500000000022
   348   1      16.177500000000006      48.532500000000006      64.710000000000022
   349   1      16.177500000000006      48.532500000000006      68.305000000000007
   350   1      14.380000000000004      52.127500000000005                 44.9375
   351   1      16.177500000000006      50.330000000000013                 44.9375
   352   1      16.177500000000006      52.127500000000005      43.140000000000008
   353   1      14.380000000000004      50.330000000000013      46.735000000000014
   354   1      14.380000000000004      52.127500000000005      48.532500000000006
   355   1      16.177500000000006      50.330000000000013      48.532500000000006
   356   1      16.177500000000006      52.127500000000005      46.735000000000014
   357   1      14.380000000000004      50.330000000000013      50.330000000000013
   358   1      14.380000000000004      52.127500000000005      52.127500000000005