model_files/Pd/Pd_30000/Pd_411/data.Pd_411_fcc_29957 (written by ASE) 

29957 	 atoms 
1  atom types
0.0                      95  xlo xhi
0.0                      95  ylo yhi
0.0                      95  zlo zhi


Atoms 

     1   1      1.9450000000000001      40.844999999999999                   46.68
     2   1      1.9450000000000001      42.789999999999999      44.734999999999999
     3   1      1.9450000000000001      44.734999999999999      42.789999999999999
     4   1      1.9450000000000001      42.789999999999999                  48.625
     5   1      1.9450000000000001      44.734999999999999                   46.68
     6   1      1.9450000000000001      44.734999999999999                   50.57
     7   1      1.9450000000000001                   46.68      40.844999999999999
     8   1      1.9450000000000001                   46.68      44.734999999999999
     9   1      1.9450000000000001                  48.625      42.789999999999999
    10   1                       0                   46.68                   46.68
    11   1      1.9450000000000001                   46.68                  48.625
    12   1      1.9450000000000001                  48.625                   46.68
    13   1      1.9450000000000001                   46.68      52.515000000000001
    14   1      1.9450000000000001                  48.625                   50.57
    15   1      1.9450000000000001                   50.57      44.734999999999999
    16   1      1.9450000000000001                   50.57                  48.625
    17   1      1.9450000000000001      52.515000000000001                   46.68
    18   1      5.8350000000000009                  25.285                   46.68
    19   1      5.8350000000000009      27.229999999999997      44.734999999999999
    20   1      5.8350000000000009      29.174999999999997      42.789999999999999
    21   1      5.8350000000000009      27.229999999999997                  48.625
    22   1      5.8350000000000009      29.174999999999997                   46.68
    23   1      5.8350000000000009      29.174999999999997                   50.57
    24   1      5.8350000000000009      31.119999999999997      40.844999999999999
    25   1      5.8350000000000009      33.064999999999998      38.899999999999999
    26   1      3.8900000000000001      33.064999999999998      44.734999999999999
    27   1      5.8350000000000009      31.119999999999997      44.734999999999999
    28   1      5.8350000000000009      33.064999999999998      42.789999999999999
    29   1      3.8900000000000001      31.119999999999997                   46.68
    30   1      3.8900000000000001      33.064999999999998                  48.625
    31   1      5.8350000000000009      31.119999999999997                  48.625
    32   1      5.8350000000000009      33.064999999999998                   46.68
    33   1      5.8350000000000009      31.119999999999997      52.515000000000001
    34   1      5.8350000000000009      33.064999999999998                   50.57
    35   1      5.8350000000000009      33.064999999999998      54.459999999999994
    36   1      5.8350000000000009      35.009999999999998      36.954999999999998
    37   1      5.8350000000000009      36.954999999999998      35.009999999999998
    38   1      3.8900000000000001      36.954999999999998      40.844999999999999
    39   1      5.8350000000000009      35.009999999999998      40.844999999999999
    40   1      5.8350000000000009      36.954999999999998      38.899999999999999
    41   1      3.8900000000000001      35.009999999999998      42.789999999999999
    42   1      3.8900000000000001      36.954999999999998      44.734999999999999
    43   1      5.8350000000000009      35.009999999999998      44.734999999999999
    44   1      5.8350000000000009      36.954999999999998      42.789999999999999
    45   1      3.8900000000000001      35.009999999999998                   46.68
    46   1      3.8900000000000001      36.954999999999998                  48.625
    47   1      5.8350000000000009      35.009999999999998                  48.625
    48   1      5.8350000000000009      36.954999999999998                   46.68
    49   1      3.8900000000000001      35.009999999999998                   50.57
    50   1      3.8900000000000001      36.954999999999998      52.515000000000001
    51   1      5.8350000000000009      35.009999999999998      52.515000000000001
    52   1      5.8350000000000009      36.954999999999998                   50.57
    53   1      5.8350000000000009      35.009999999999998      56.404999999999994
    54   1      5.8350000000000009      36.954999999999998      54.459999999999994
    55   1      5.8350000000000009      36.954999999999998      58.349999999999994
    56   1      5.8350000000000009      38.899999999999999      33.064999999999998
    57   1      5.8350000000000009      40.844999999999999      31.119999999999997
    58   1      3.8900000000000001      40.844999999999999      36.954999999999998
    59   1      5.8350000000000009      38.899999999999999      36.954999999999998
    60   1      5.8350000000000009      40.844999999999999      35.009999999999998
    61   1      3.8900000000000001      38.899999999999999      38.899999999999999
    62   1      3.8900000000000001      40.844999999999999      40.844999999999999
    63   1      5.8350000000000009      38.899999999999999      40.844999999999999
    64   1      5.8350000000000009      40.844999999999999      38.899999999999999
    65   1      3.8900000000000001      38.899999999999999      42.789999999999999
    66   1      3.8900000000000001      40.844999999999999      44.734999999999999
    67   1      5.8350000000000009      38.899999999999999      44.734999999999999
    68   1      5.8350000000000009      40.844999999999999      42.789999999999999
    69   1      3.8900000000000001      38.899999999999999                   46.68
    70   1      3.8900000000000001      40.844999999999999                  48.625
    71   1      5.8350000000000009      38.899999999999999                  48.625
    72   1      5.8350000000000009      40.844999999999999                   46.68
    73   1      3.8900000000000001      38.899999999999999                   50.57
    74   1      3.8900000000000001      40.844999999999999      52.515000000000001
    75   1      5.8350000000000009      38.899999999999999      52.515000000000001
    76   1      5.8350000000000009      40.844999999999999                   50.57
    77   1      3.8900000000000001      38.899999999999999      54.459999999999994
    78   1      3.8900000000000001      40.844999999999999      56.404999999999994
    79   1      5.8350000000000009      38.899999999999999      56.404999999999994
    80   1      5.8350000000000009      40.844999999999999      54.459999999999994
    81   1      5.8350000000000009      38.899999999999999      60.294999999999995
    82   1      5.8350000000000009      40.844999999999999      58.349999999999994
    83   1      5.8350000000000009      40.844999999999999      62.239999999999995
    84   1      5.8350000000000009      42.789999999999999      29.174999999999997
    85   1      5.8350000000000009      44.734999999999999      27.229999999999997
    86   1      3.8900000000000001      44.734999999999999      33.064999999999998
    87   1      5.8350000000000009      42.789999999999999      33.064999999999998
    88   1      5.8350000000000009      44.734999999999999      31.119999999999997
    89   1      3.8900000000000001      42.789999999999999      35.009999999999998
    90   1      3.8900000000000001      44.734999999999999      36.954999999999998
    91   1      5.8350000000000009      42.789999999999999      36.954999999999998
    92   1      5.8350000000000009      44.734999999999999      35.009999999999998
    93   1      3.8900000000000001      42.789999999999999      38.899999999999999
    94   1      3.8900000000000001      44.734999999999999      40.844999999999999
    95   1      5.8350000000000009      42.789999999999999      40.844999999999999
    96   1      5.8350000000000009      44.734999999999999      38.899999999999999
    97   1      3.8900000000000001      42.789999999999999      42.789999999999999
    98   1      3.8900000000000001      44.734999999999999      44.734999999999999
    99   1      5.8350000000000009      42.789999999999999      44.734999999999999
   100   1      5.8350000000000009      44.734999999999999      42.789999999999999
   101   1      3.8900000000000001      42.789999999999999                   46.68
   102   1      3.8900000000000001      44.734999999999999                  48.625
   103   1      5.8350000000000009      42.789999999999999                  48.625
   104   1      5.8350000000000009      44.734999999999999                   46.68
   105   1      3.8900000000000001      42.789999999999999                   50.57
   106   1      3.8900000000000001      44.734999999999999      52.515000000000001
   107   1      5.8350000000000009      42.789999999999999      52.515000000000001
   108   1      5.8350000000000009      44.734999999999999                   50.57
   109   1      3.8900000000000001      42.789999999999999      54.459999999999994
   110   1      3.8900000000000001      44.734999999999999      56.404999999999994
   111   1      5.8350000000000009      42.789999999999999      56.404999999999994
   112   1      5.8350000000000009      44.734999999999999      54.459999999999994
   113   1      3.8900000000000001      42.789999999999999      58.349999999999994
   114   1      3.8900000000000001      44.734999999999999      60.294999999999995
   115   1      5.8350000000000009      42.789999999999999      60.294999999999995
   116   1      5.8350000000000009      44.734999999999999      58.349999999999994
   117   1      5.8350000000000009      42.789999999999999      64.184999999999988
   118   1      5.8350000000000009      44.734999999999999      62.239999999999995
   119   1      5.8350000000000009      44.734999999999999      66.129999999999995
   120   1      5.8350000000000009                   46.68                  25.285
   121   1      5.8350000000000009                   46.68      29.174999999999997
   122   1      5.8350000000000009                  48.625      27.229999999999997
   123   1      3.8900000000000001                   46.68      31.119999999999997
   124   1      3.8900000000000001                  48.625      33.064999999999998
   125   1      5.8350000000000009                   46.68      33.064999999999998
   126   1      5.8350000000000009                  48.625      31.119999999999997
   127   1      3.8900000000000001                   46.68      35.009999999999998
   128   1      3.8900000000000001                  48.625      36.954999999999998
   129   1      5.8350000000000009                   46.68      36.954999999999998
   130   1      5.8350000000000009                  48.625      35.009999999999998
   131   1      3.8900000000000001                   46.68      38.899999999999999
   132   1      3.8900000000000001                  48.625      40.844999999999999
   133   1      5.8350000000000009                   46.68      40.844999999999999
   134   1      5.8350000000000009                  48.625      38.899999999999999
   135   1      3.8900000000000001                   46.68      42.789999999999999
   136   1      3.8900000000000001                  48.625      44.734999999999999
   137   1      5.8350000000000009                   46.68      44.734999999999999
   138   1      5.8350000000000009                  48.625      42.789999999999999
   139   1      3.8900000000000001                   46.68                   46.68
   140   1      3.8900000000000001                  48.625                  48.625
   141   1      5.8350000000000009                   46.68                  48.625
   142   1      5.8350000000000009                  48.625                   46.68
   143   1      3.8900000000000001                   46.68                   50.57
   144   1      3.8900000000000001                  48.625      52.515000000000001
   145   1      5.8350000000000009                   46.68      52.515000000000001
   146   1      5.8350000000000009                  48.625                   50.57
   147   1      3.8900000000000001                   46.68      54.459999999999994
   148   1      3.8900000000000001                  48.625      56.404999999999994
   149   1      5.8350000000000009                   46.68      56.404999999999994
   150   1      5.8350000000000009                  48.625      54.459999999999994
   151   1      3.8900000000000001                   46.68      58.349999999999994
   152   1      3.8900000000000001                  48.625      60.294999999999995
   153   1      5.8350000000000009                   46.68      60.294999999999995
   154   1      5.8350000000000009                  48.625      58.349999999999994
   155   1      3.8900000000000001                   46.68      62.239999999999995
   156   1      5.8350000000000009                   46.68      64.184999999999988
   157   1      5.8350000000000009                  48.625      62.239999999999995
   158   1      5.8350000000000009                   46.68      68.074999999999989
   159   1      5.8350000000000009                  48.625      66.129999999999995
   160   1      5.8350000000000009                   50.57      29.174999999999997
   161   1      5.8350000000000009                   50.57      33.064999999999998
   162   1      5.8350000000000009      52.515000000000001      31.119999999999997
   163   1      3.8900000000000001                   50.57      35.009999999999998
   164   1      3.8900000000000001      52.515000000000001      36.954999999999998
   165   1      5.8350000000000009                   50.57      36.954999999999998
   166   1      5.8350000000000009      52.515000000000001      35.009999999999998
   167   1      3.8900000000000001                   50.57      38.899999999999999
   168   1      3.8900000000000001      52.515000000000001      40.844999999999999
   169   1      5.8350000000000009                   50.57      40.844999999999999
   170   1      5.8350000000000009      52.515000000000001      38.899999999999999
   171   1      3.8900000000000001                   50.57      42.789999999999999
   172   1      3.8900000000000001      52.515000000000001      44.734999999999999
   173   1      5.8350000000000009                   50.57      44.734999999999999
   174   1      5.8350000000000009      52.515000000000001      42.789999999999999
   175   1      3.8900000000000001                   50.57                   46.68
   176   1      3.8900000000000001      52.515000000000001                  48.625
   177   1      5.8350000000000009                   50.57                  48.625
   178   1      5.8350000000000009      52.515000000000001                   46.68
   179   1      3.8900000000000001                   50.57                   50.57
   180   1      3.8900000000000001      52.515000000000001      52.515000000000001
   181   1      5.8350000000000009                   50.57      52.515000000000001
   182   1      5.8350000000000009      52.515000000000001                   50.57
   183   1      3.8900000000000001                   50.57      54.459999999999994
   184   1      3.8900000000000001      52.515000000000001      56.404999999999994
   185   1      5.8350000000000009                   50.57      56.404999999999994
   186   1      5.8350000000000009      52.515000000000001      54.459999999999994
   187   1      3.8900000000000001                   50.57      58.349999999999994
   188   1      5.8350000000000009                   50.57      60.294999999999995
   189   1      5.8350000000000009      52.515000000000001      58.349999999999994
   190   1      5.8350000000000009                   50.57      64.184999999999988
   191   1      5.8350000000000009      52.515000000000001      62.239999999999995
   192   1      5.8350000000000009      54.459999999999994      33.064999999999998
   193   1      5.8350000000000009      54.459999999999994      36.954999999999998
   194   1      5.8350000000000009      56.404999999999994      35.009999999999998
   195   1      3.8900000000000001      54.459999999999994      38.899999999999999
   196   1      3.8900000000000001      56.404999999999994      40.844999999999999
   197   1      5.8350000000000009      54.459999999999994      40.844999999999999
   198   1      5.8350000000000009      56.404999999999994      38.899999999999999
   199   1      3.8900000000000001      54.459999999999994      42.789999999999999
   200   1      3.8900000000000001      56.404999999999994      44.734999999999999
   201   1      5.8350000000000009      54.459999999999994      44.734999999999999
   202   1      5.8350000000000009      56.404999999999994      42.789999999999999
   203   1      3.8900000000000001      54.459999999999994                   46.68
   204   1      3.8900000000000001      56.404999999999994                  48.625
   205   1      5.8350000000000009      54.459999999999994                  48.625
   206   1      5.8350000000000009      56.404999999999994                   46.68
   207   1      3.8900000000000001      54.459999999999994                   50.57
   208   1      3.8900000000000001      56.404999999999994      52.515000000000001
   209   1      5.8350000000000009      54.459999999999994      52.515000000000001
   210   1      5.8350000000000009      56.404999999999994                   50.57
   211   1      3.8900000000000001      54.459999999999994      54.459999999999994
   212   1      5.8350000000000009      54.459999999999994      56.404999999999994
   213   1      5.8350000000000009      56.404999999999994      54.459999999999994
   214   1      5.8350000000000009      54.459999999999994      60.294999999999995
   215   1      5.8350000000000009      56.404999999999994      58.349999999999994
   216   1      5.8350000000000009      58.349999999999994      36.954999999999998
   217   1      5.8350000000000009      58.349999999999994      40.844999999999999
   218   1      5.8350000000000009      60.294999999999995      38.899999999999999
   219   1      3.8900000000000001      58.349999999999994      42.789999999999999
   220   1      3.8900000000000001      60.294999999999995      44.734999999999999
   221   1      5.8350000000000009      58.349999999999994      44.734999999999999
   222   1      5.8350000000000009      60.294999999999995      42.789999999999999
   223   1      3.8900000000000001      58.349999999999994                   46.68
   224   1      3.8900000000000001      60.294999999999995                  48.625
   225   1      5.8350000000000009      58.349999999999994                  48.625
   226   1      5.8350000000000009      60.294999999999995                   46.68
   227   1      3.8900000000000001      58.349999999999994                   50.57
   228   1      5.8350000000000009      58.349999999999994      52.515000000000001
   229   1      5.8350000000000009      60.294999999999995                   50.57
   230   1      5.8350000000000009      58.349999999999994      56.404999999999994
   231   1      5.8350000000000009      60.294999999999995      54.459999999999994
   232   1      5.8350000000000009      62.239999999999995      40.844999999999999
   233   1      5.8350000000000009      62.239999999999995      44.734999999999999
   234   1      5.8350000000000009      64.184999999999988      42.789999999999999
   235   1      3.8900000000000001      62.239999999999995                   46.68
   236   1      5.8350000000000009      62.239999999999995                  48.625
   237   1      5.8350000000000009      64.184999999999988                   46.68
   238   1      5.8350000000000009      62.239999999999995      52.515000000000001
   239   1      5.8350000000000009      64.184999999999988                   50.57
   240   1      5.8350000000000009      66.129999999999995      44.734999999999999
   241   1      5.8350000000000009      66.129999999999995                  48.625
   242   1      5.8350000000000009      68.074999999999989                   46.68
   243   1      9.7250000000000014      9.7250000000000014                   46.68
   244   1      9.7250000000000014      11.670000000000002      44.734999999999999
   245   1      9.7250000000000014      13.615000000000002      42.789999999999999
   246   1      9.7250000000000014      11.670000000000002                  48.625
   247   1      9.7250000000000014      13.615000000000002                   46.68
   248   1      9.7250000000000014      13.615000000000002                   50.57
   249   1      9.7250000000000014      15.559999999999999      40.844999999999999
   250   1      9.7250000000000014      17.504999999999999      38.899999999999999
   251   1      7.7800000000000002      17.504999999999999      44.734999999999999
   252   1      9.7250000000000014      15.559999999999999      44.734999999999999
   253   1      9.7250000000000014      17.504999999999999      42.789999999999999
   254   1      7.7800000000000002      15.559999999999999                   46.68
   255   1      7.7800000000000002      17.504999999999999                  48.625
   256   1      9.7250000000000014      15.559999999999999                  48.625
   257   1      9.7250000000000014      17.504999999999999                   46.68
   258   1      9.7250000000000014      15.559999999999999      52.515000000000001
   259   1      9.7250000000000014      17.504999999999999                   50.57
   260   1      9.7250000000000014      17.504999999999999      54.459999999999994
   261   1      9.7250000000000014      19.449999999999999      36.954999999999998
   262   1      9.7250000000000014                  21.395      35.009999999999998
   263   1      7.7800000000000002                  21.395      40.844999999999999
   264   1      9.7250000000000014      19.449999999999999      40.844999999999999
   265   1      9.7250000000000014                  21.395      38.899999999999999
   266   1      7.7800000000000002      19.449999999999999      42.789999999999999
   267   1      7.7800000000000002                  21.395      44.734999999999999
   268   1      9.7250000000000014      19.449999999999999      44.734999999999999
   269   1      9.7250000000000014                  21.395      42.789999999999999
   270   1      7.7800000000000002      19.449999999999999                   46.68
   271   1      7.7800000000000002                  21.395                  48.625
   272   1      9.7250000000000014      19.449999999999999                  48.625
   273   1      9.7250000000000014                  21.395                   46.68
   274   1      7.7800000000000002      19.449999999999999                   50.57
   275   1      7.7800000000000002                  21.395      52.515000000000001
   276   1      9.7250000000000014      19.449999999999999      52.515000000000001
   277   1      9.7250000000000014                  21.395                   50.57
   278   1      9.7250000000000014      19.449999999999999      56.404999999999994
   279   1      9.7250000000000014                  21.395      54.459999999999994
   280   1      9.7250000000000014                  21.395      58.349999999999994
   281   1      9.7250000000000014                   23.34      33.064999999999998
   282   1      9.7250000000000014                  25.285      31.119999999999997
   283   1      7.7800000000000002                  25.285      36.954999999999998
   284   1      9.7250000000000014                   23.34      36.954999999999998
   285   1      9.7250000000000014                  25.285      35.009999999999998
   286   1      7.7800000000000002                   23.34      38.899999999999999
   287   1      7.7800000000000002                  25.285      40.844999999999999
   288   1      9.7250000000000014                   23.34      40.844999999999999
   289   1      9.7250000000000014                  25.285      38.899999999999999
   290   1      7.7800000000000002                   23.34      42.789999999999999
   291   1      7.7800000000000002                  25.285      44.734999999999999
   292   1      9.7250000000000014                   23.34      44.734999999999999
   293   1      9.7250000000000014                  25.285      42.789999999999999
   294   1      7.7800000000000002                   23.34                   46.68
   295   1      7.7800000000000002                  25.285                  48.625
   296   1      9.7250000000000014                   23.34                  48.625
   297   1      9.7250000000000014                  25.285                   46.68
   298   1      7.7800000000000002                   23.34                   50.57
   299   1      7.7800000000000002                  25.285      52.515000000000001
   300   1      9.7250000000000014                   23.34      52.515000000000001
   301   1      9.7250000000000014                  25.285                   50.57
   302   1      7.7800000000000002                   23.34      54.459999999999994
   303   1      7.7800000000000002                  25.285      56.404999999999994
   304   1      9.7250000000000014                   23.34      56.404999999999994
   305   1      9.7250000000000014                  25.285      54.459999999999994
   306   1      9.7250000000000014                   23.34      60.294999999999995
   307   1      9.7250000000000014                  25.285      58.349999999999994
   308   1      9.7250000000000014                  25.285      62.239999999999995
   309   1      9.7250000000000014      27.229999999999997      29.174999999999997
   310   1      9.7250000000000014      29.174999999999997      27.229999999999997
   311   1      7.7800000000000002      29.174999999999997      33.064999999999998
   312   1      9.7250000000000014      27.229999999999997      33.064999999999998
   313   1      9.7250000000000014      29.174999999999997      31.119999999999997
   314   1      7.7800000000000002      27.229999999999997      35.009999999999998
   315   1      7.7800000000000002      29.174999999999997      36.954999999999998
   316   1      9.7250000000000014      27.229999999999997      36.954999999999998
   317   1      9.7250000000000014      29.174999999999997      35.009999999999998
   318   1      7.7800000000000002      27.229999999999997      38.899999999999999
   319   1      7.7800000000000002      29.174999999999997      40.844999999999999
   320   1      9.7250000000000014      27.229999999999997      40.844999999999999
   321   1      9.7250000000000014      29.174999999999997      38.899999999999999
   322   1      7.7800000000000002      27.229999999999997      42.789999999999999
   323   1      7.7800000000000002      29.174999999999997      44.734999999999999
   324   1      9.7250000000000014      27.229999999999997      44.734999999999999
   325   1      9.7250000000000014      29.174999999999997      42.789999999999999
   326   1      7.7800000000000002      27.229999999999997                   46.68
   327   1      7.7800000000000002      29.174999999999997                  48.625
   328   1      9.7250000000000014      27.229999999999997                  48.625
   329   1      9.7250000000000014      29.174999999999997                   46.68
   330   1      7.7800000000000002      27.229999999999997                   50.57
   331   1      7.7800000000000002      29.174999999999997      52.515000000000001
   332   1      9.7250000000000014      27.229999999999997      52.515000000000001
   333   1      9.7250000000000014      29.174999999999997                   50.57
   334   1      7.7800000000000002      27.229999999999997      54.459999999999994
   335   1      7.7800000000000002      29.174999999999997      56.404999999999994
   336   1      9.7250000000000014      27.229999999999997      56.404999999999994
   337   1      9.7250000000000014      29.174999999999997      54.459999999999994
   338   1      7.7800000000000002      27.229999999999997      58.349999999999994
   339   1      7.7800000000000002      29.174999999999997      60.294999999999995
   340   1      9.7250000000000014      27.229999999999997      60.294999999999995
   341   1      9.7250000000000014      29.174999999999997      58.349999999999994
   342   1      9.7250000000000014      27.229999999999997      64.184999999999988
   343   1      9.7250000000000014      29.174999999999997      62.239999999999995
   344   1      9.7250000000000014      29.174999999999997      66.129999999999995
   345   1      9.7250000000000014      31.119999999999997                  25.285
   346   1      9.7250000000000014      33.064999999999998                   23.34
   347   1      7.7800000000000002      33.064999999999998      29.174999999999997
   348   1      9.7250000000000014      31.119999999999997      29.174999999999997
   349   1      9.7250000000000014      33.064999999999998      27.229999999999997
   350   1      7.7800000000000002      31.119999999999997      31.119999999999997
   351   1      7.7800000000000002      33.064999999999998      33.064999999999998
   352   1      9.7250000000000014      31.119999999999997      33.064999999999998
   353   1      9.7250000000000014      33.064999999999998      31.119999999999997
   354   1      7.7800000000000002      31.119999999999997      35.009999999999998
   355   1      7.7800000000000002      33.064999999999998      36.954999999999998
   356   1      9.7250000000000014      31.119999999999997      36.954999999999998
   357   1      9.7250000000000014      33.064999999999998      35.009999999999998
   358   1      7.7800000000000002      31.119999999999997      38.899999999999999