model_files/CuFeNi/CuFeNi_30000/CuFeNi_511/CuFeNi_511_fcc_30527_temp.data (written by ASE) 

30527 	 atoms 
3  atom types
0.0                      82  xlo xhi
0.0                      82  ylo yhi
0.0                      82  zlo zhi


Atoms 

     1   1  7.1054273576010019e-15       39.38000000000001      41.170000000000009
     2   1  7.1054273576010019e-15      41.170000000000009       39.38000000000001
     3   1  7.1054273576010019e-15      41.170000000000009      42.960000000000008
     4   1  7.1054273576010019e-15      42.960000000000008      41.170000000000009
     5   1      3.5800000000000054      21.480000000000011      41.170000000000009
     6   1      3.5800000000000054       23.27000000000001       39.38000000000001
     7   1      3.5800000000000054      25.060000000000009      37.590000000000011
     8   1      3.5800000000000054       23.27000000000001      42.960000000000008
     9   1      3.5800000000000054      25.060000000000009      41.170000000000009
    10   1      3.5800000000000054      25.060000000000009      44.750000000000014
    11   1      3.5800000000000054      26.850000000000009      35.800000000000004
    12   1      3.5800000000000054      28.640000000000008      34.010000000000005
    13   1      3.5800000000000054      26.850000000000009       39.38000000000001
    14   1      3.5800000000000054      28.640000000000008      37.590000000000011
    15   1      3.5800000000000054      26.850000000000009      42.960000000000008
    16   1      3.5800000000000054      28.640000000000008      41.170000000000009
    17   1      3.5800000000000054      26.850000000000009      46.540000000000006
    18   1      3.5800000000000054      28.640000000000008      44.750000000000014
    19   1      3.5800000000000054      28.640000000000008      48.330000000000013
    20   1      3.5800000000000054       30.43000000000001      32.220000000000006
    21   1      3.5800000000000054      32.220000000000006       30.43000000000001
    22   1      3.5800000000000054       30.43000000000001      35.800000000000004
    23   1      3.5800000000000054      32.220000000000006      34.010000000000005
    24   1      1.7900000000000065      32.220000000000006       39.38000000000001
    25   1      3.5800000000000054       30.43000000000001       39.38000000000001
    26   1      3.5800000000000054      32.220000000000006      37.590000000000011
    27   1      1.7900000000000065       30.43000000000001      41.170000000000009
    28   1      1.7900000000000065      32.220000000000006      42.960000000000008
    29   1      3.5800000000000054       30.43000000000001      42.960000000000008
    30   1      3.5800000000000054      32.220000000000006      41.170000000000009
    31   1      3.5800000000000054       30.43000000000001      46.540000000000006
    32   1      3.5800000000000054      32.220000000000006      44.750000000000014
    33   1      3.5800000000000054       30.43000000000001      50.120000000000019
    34   1      3.5800000000000054      32.220000000000006      48.330000000000013
    35   1      3.5800000000000054      32.220000000000006      51.910000000000011
    36   1      3.5800000000000054      34.010000000000005      28.640000000000008
    37   1      3.5800000000000054      35.800000000000004      26.850000000000009
    38   1      3.5800000000000054      34.010000000000005      32.220000000000006
    39   1      3.5800000000000054      35.800000000000004       30.43000000000001
    40   1      1.7900000000000065      35.800000000000004      35.800000000000004
    41   1      3.5800000000000054      34.010000000000005      35.800000000000004
    42   1      3.5800000000000054      35.800000000000004      34.010000000000005
    43   1      1.7900000000000065      34.010000000000005      37.590000000000011
    44   1      1.7900000000000065      35.800000000000004       39.38000000000001
    45   1      3.5800000000000054      34.010000000000005       39.38000000000001
    46   1      3.5800000000000054      35.800000000000004      37.590000000000011
    47   1      1.7900000000000065      34.010000000000005      41.170000000000009
    48   1      1.7900000000000065      35.800000000000004      42.960000000000008
    49   1      3.5800000000000054      34.010000000000005      42.960000000000008
    50   1      3.5800000000000054      35.800000000000004      41.170000000000009
    51   1      1.7900000000000065      34.010000000000005      44.750000000000014
    52   1      1.7900000000000065      35.800000000000004      46.540000000000006
    53   1      3.5800000000000054      34.010000000000005      46.540000000000006
    54   1      3.5800000000000054      35.800000000000004      44.750000000000014
    55   1      3.5800000000000054      34.010000000000005      50.120000000000019
    56   1      3.5800000000000054      35.800000000000004      48.330000000000013
    57   1      3.5800000000000054      34.010000000000005       53.70000000000001
    58   1      3.5800000000000054      35.800000000000004      51.910000000000011
    59   1      3.5800000000000054      35.800000000000004      55.490000000000016
    60   1      3.5800000000000054      37.590000000000011      25.060000000000009
    61   1      3.5800000000000054       39.38000000000001       23.27000000000001
    62   1      3.5800000000000054      37.590000000000011      28.640000000000008
    63   1      3.5800000000000054       39.38000000000001      26.850000000000009
    64   1      1.7900000000000065       39.38000000000001      32.220000000000006
    65   1      3.5800000000000054      37.590000000000011      32.220000000000006
    66   1      3.5800000000000054       39.38000000000001       30.43000000000001
    67   1      1.7900000000000065      37.590000000000011      34.010000000000005
    68   1      1.7900000000000065       39.38000000000001      35.800000000000004
    69   1      3.5800000000000054      37.590000000000011      35.800000000000004
    70   1      3.5800000000000054       39.38000000000001      34.010000000000005
    71   1      1.7900000000000065      37.590000000000011      37.590000000000011
    72   1      1.7900000000000065       39.38000000000001       39.38000000000001
    73   1      3.5800000000000054      37.590000000000011       39.38000000000001
    74   1      3.5800000000000054       39.38000000000001      37.590000000000011
    75   1      1.7900000000000065      37.590000000000011      41.170000000000009
    76   1      1.7900000000000065       39.38000000000001      42.960000000000008
    77   1      3.5800000000000054      37.590000000000011      42.960000000000008
    78   1      3.5800000000000054       39.38000000000001      41.170000000000009
    79   1      1.7900000000000065      37.590000000000011      44.750000000000014
    80   1      1.7900000000000065       39.38000000000001      46.540000000000006
    81   1      3.5800000000000054      37.590000000000011      46.540000000000006
    82   1      3.5800000000000054       39.38000000000001      44.750000000000014
    83   1      1.7900000000000065      37.590000000000011      48.330000000000013
    84   1      1.7900000000000065       39.38000000000001      50.120000000000019
    85   1      3.5800000000000054      37.590000000000011      50.120000000000019
    86   1      3.5800000000000054       39.38000000000001      48.330000000000013
    87   1      3.5800000000000054      37.590000000000011       53.70000000000001
    88   1      3.5800000000000054       39.38000000000001      51.910000000000011
    89   1      3.5800000000000054      37.590000000000011      57.280000000000015
    90   1      3.5800000000000054       39.38000000000001      55.490000000000016
    91   1      3.5800000000000054       39.38000000000001      59.070000000000007
    92   1      3.5800000000000054      41.170000000000009      21.480000000000011
    93   1      3.5800000000000054      41.170000000000009      25.060000000000009
    94   1      3.5800000000000054      42.960000000000008       23.27000000000001
    95   1      3.5800000000000054      41.170000000000009      28.640000000000008
    96   1      3.5800000000000054      42.960000000000008      26.850000000000009
    97   1      1.7900000000000065      41.170000000000009       30.43000000000001
    98   1      1.7900000000000065      42.960000000000008      32.220000000000006
    99   1      3.5800000000000054      41.170000000000009      32.220000000000006
   100   1      3.5800000000000054      42.960000000000008       30.43000000000001
   101   1      1.7900000000000065      41.170000000000009      34.010000000000005
   102   1      1.7900000000000065      42.960000000000008      35.800000000000004
   103   1      3.5800000000000054      41.170000000000009      35.800000000000004
   104   1      3.5800000000000054      42.960000000000008      34.010000000000005
   105   1      1.7900000000000065      41.170000000000009      37.590000000000011
   106   1      1.7900000000000065      42.960000000000008       39.38000000000001
   107   1      3.5800000000000054      41.170000000000009       39.38000000000001
   108   1      3.5800000000000054      42.960000000000008      37.590000000000011
   109   1      1.7900000000000065      41.170000000000009      41.170000000000009
   110   1      1.7900000000000065      42.960000000000008      42.960000000000008
   111   1      3.5800000000000054      41.170000000000009      42.960000000000008
   112   1      3.5800000000000054      42.960000000000008      41.170000000000009
   113   1      1.7900000000000065      41.170000000000009      44.750000000000014
   114   1      1.7900000000000065      42.960000000000008      46.540000000000006
   115   1      3.5800000000000054      41.170000000000009      46.540000000000006
   116   1      3.5800000000000054      42.960000000000008      44.750000000000014
   117   1      1.7900000000000065      41.170000000000009      48.330000000000013
   118   1      1.7900000000000065      42.960000000000008      50.120000000000019
   119   1      3.5800000000000054      41.170000000000009      50.120000000000019
   120   1      3.5800000000000054      42.960000000000008      48.330000000000013
   121   1      1.7900000000000065      41.170000000000009      51.910000000000011
   122   1      3.5800000000000054      41.170000000000009       53.70000000000001
   123   1      3.5800000000000054      42.960000000000008      51.910000000000011
   124   1      3.5800000000000054      41.170000000000009      57.280000000000015
   125   1      3.5800000000000054      42.960000000000008      55.490000000000016
   126   1      3.5800000000000054      41.170000000000009      60.860000000000007
   127   1      3.5800000000000054      42.960000000000008      59.070000000000007
   128   1      3.5800000000000054      44.750000000000014      25.060000000000009
   129   1      3.5800000000000054      44.750000000000014      28.640000000000008
   130   1      3.5800000000000054      46.540000000000006      26.850000000000009
   131   1      3.5800000000000054      44.750000000000014      32.220000000000006
   132   1      3.5800000000000054      46.540000000000006       30.43000000000001
   133   1      1.7900000000000065      44.750000000000014      34.010000000000005
   134   1      1.7900000000000065      46.540000000000006      35.800000000000004
   135   1      3.5800000000000054      44.750000000000014      35.800000000000004
   136   1      3.5800000000000054      46.540000000000006      34.010000000000005
   137   1      1.7900000000000065      44.750000000000014      37.590000000000011
   138   1      1.7900000000000065      46.540000000000006       39.38000000000001
   139   1      3.5800000000000054      44.750000000000014       39.38000000000001
   140   1      3.5800000000000054      46.540000000000006      37.590000000000011
   141   1      1.7900000000000065      44.750000000000014      41.170000000000009
   142   1      1.7900000000000065      46.540000000000006      42.960000000000008
   143   1      3.5800000000000054      44.750000000000014      42.960000000000008
   144   1      3.5800000000000054      46.540000000000006      41.170000000000009
   145   1      1.7900000000000065      44.750000000000014      44.750000000000014
   146   1      1.7900000000000065      46.540000000000006      46.540000000000006
   147   1      3.5800000000000054      44.750000000000014      46.540000000000006
   148   1      3.5800000000000054      46.540000000000006      44.750000000000014
   149   1      1.7900000000000065      44.750000000000014      48.330000000000013
   150   1      3.5800000000000054      44.750000000000014      50.120000000000019
   151   1      3.5800000000000054      46.540000000000006      48.330000000000013
   152   1      3.5800000000000054      44.750000000000014       53.70000000000001
   153   1      3.5800000000000054      46.540000000000006      51.910000000000011
   154   1      3.5800000000000054      44.750000000000014      57.280000000000015
   155   1      3.5800000000000054      46.540000000000006      55.490000000000016
   156   1      3.5800000000000054      48.330000000000013      28.640000000000008
   157   1      3.5800000000000054      48.330000000000013      32.220000000000006
   158   1      3.5800000000000054      50.120000000000019       30.43000000000001
   159   1      3.5800000000000054      48.330000000000013      35.800000000000004
   160   1      3.5800000000000054      50.120000000000019      34.010000000000005
   161   1      1.7900000000000065      48.330000000000013      37.590000000000011
   162   1      1.7900000000000065      50.120000000000019       39.38000000000001
   163   1      3.5800000000000054      48.330000000000013       39.38000000000001
   164   1      3.5800000000000054      50.120000000000019      37.590000000000011
   165   1      1.7900000000000065      48.330000000000013      41.170000000000009
   166   1      1.7900000000000065      50.120000000000019      42.960000000000008
   167   1      3.5800000000000054      48.330000000000013      42.960000000000008
   168   1      3.5800000000000054      50.120000000000019      41.170000000000009
   169   1      1.7900000000000065      48.330000000000013      44.750000000000014
   170   1      3.5800000000000054      48.330000000000013      46.540000000000006
   171   1      3.5800000000000054      50.120000000000019      44.750000000000014
   172   1      3.5800000000000054      48.330000000000013      50.120000000000019
   173   1      3.5800000000000054      50.120000000000019      48.330000000000013
   174   1      3.5800000000000054      48.330000000000013       53.70000000000001
   175   1      3.5800000000000054      50.120000000000019      51.910000000000011
   176   1      3.5800000000000054      51.910000000000011      32.220000000000006
   177   1      3.5800000000000054      51.910000000000011      35.800000000000004
   178   1      3.5800000000000054       53.70000000000001      34.010000000000005
   179   1      3.5800000000000054      51.910000000000011       39.38000000000001
   180   1      3.5800000000000054       53.70000000000001      37.590000000000011
   181   1      1.7900000000000065      51.910000000000011      41.170000000000009
   182   1      3.5800000000000054      51.910000000000011      42.960000000000008
   183   1      3.5800000000000054       53.70000000000001      41.170000000000009
   184   1      3.5800000000000054      51.910000000000011      46.540000000000006
   185   1      3.5800000000000054       53.70000000000001      44.750000000000014
   186   1      3.5800000000000054      51.910000000000011      50.120000000000019
   187   1      3.5800000000000054       53.70000000000001      48.330000000000013
   188   1      3.5800000000000054      55.490000000000016      35.800000000000004
   189   1      3.5800000000000054      55.490000000000016       39.38000000000001
   190   1      3.5800000000000054      57.280000000000015      37.590000000000011
   191   1      3.5800000000000054      55.490000000000016      42.960000000000008
   192   1      3.5800000000000054      57.280000000000015      41.170000000000009
   193   1      3.5800000000000054      55.490000000000016      46.540000000000006
   194   1      3.5800000000000054      57.280000000000015      44.750000000000014
   195   1      3.5800000000000054      59.070000000000007       39.38000000000001
   196   1      3.5800000000000054      59.070000000000007      42.960000000000008
   197   1      3.5800000000000054      60.860000000000007      41.170000000000009
   198   1      7.1600000000000037      7.1600000000000037      37.590000000000011
   199   1      7.1600000000000037      7.1600000000000037      41.170000000000009
   200   1      7.1600000000000037      7.1600000000000037      44.750000000000014
   201   1      7.1600000000000037      8.9500000000000099      35.800000000000004
   202   1      7.1600000000000037      10.740000000000009      34.010000000000005
   203   1      7.1600000000000037      8.9500000000000099       39.38000000000001
   204   1      7.1600000000000037      10.740000000000009      37.590000000000011
   205   1      7.1600000000000037      8.9500000000000099      42.960000000000008
   206   1      7.1600000000000037      10.740000000000009      41.170000000000009
   207   1      7.1600000000000037      8.9500000000000099      46.540000000000006
   208   1      7.1600000000000037      10.740000000000009      44.750000000000014
   209   1      7.1600000000000037      10.740000000000009      48.330000000000013
   210   1      7.1600000000000037      12.530000000000008      32.220000000000006
   211   1      7.1600000000000037      14.320000000000007       30.43000000000001
   212   1      7.1600000000000037      12.530000000000008      35.800000000000004
   213   1      7.1600000000000037      14.320000000000007      34.010000000000005
   214   1      5.3700000000000117      14.320000000000007       39.38000000000001
   215   1      7.1600000000000037      12.530000000000008       39.38000000000001
   216   1      7.1600000000000037      14.320000000000007      37.590000000000011
   217   1      5.3700000000000117      12.530000000000008      41.170000000000009
   218   1      5.3700000000000117      14.320000000000007      42.960000000000008
   219   1      7.1600000000000037      12.530000000000008      42.960000000000008
   220   1      7.1600000000000037      14.320000000000007      41.170000000000009
   221   1      7.1600000000000037      12.530000000000008      46.540000000000006
   222   1      7.1600000000000037      14.320000000000007      44.750000000000014
   223   1      7.1600000000000037      12.530000000000008      50.120000000000019
   224   1      7.1600000000000037      14.320000000000007      48.330000000000013
   225   1      7.1600000000000037      14.320000000000007      51.910000000000011
   226   1      7.1600000000000037      16.110000000000007      28.640000000000008
   227   1      7.1600000000000037      17.900000000000006      26.850000000000009
   228   1      7.1600000000000037      16.110000000000007      32.220000000000006
   229   1      7.1600000000000037      17.900000000000006       30.43000000000001
   230   1      5.3700000000000117      17.900000000000006      35.800000000000004
   231   1      7.1600000000000037      16.110000000000007      35.800000000000004
   232   1      7.1600000000000037      17.900000000000006      34.010000000000005
   233   1      5.3700000000000117      16.110000000000007      37.590000000000011
   234   1      5.3700000000000117      17.900000000000006       39.38000000000001
   235   1      7.1600000000000037      16.110000000000007       39.38000000000001
   236   1      7.1600000000000037      17.900000000000006      37.590000000000011
   237   1      5.3700000000000117      16.110000000000007      41.170000000000009
   238   1      5.3700000000000117      17.900000000000006      42.960000000000008
   239   1      7.1600000000000037      16.110000000000007      42.960000000000008
   240   1      7.1600000000000037      17.900000000000006      41.170000000000009
   241   1      5.3700000000000117      16.110000000000007      44.750000000000014
   242   1      5.3700000000000117      17.900000000000006      46.540000000000006
   243   1      7.1600000000000037      16.110000000000007      46.540000000000006
   244   1      7.1600000000000037      17.900000000000006      44.750000000000014
   245   1      7.1600000000000037      16.110000000000007      50.120000000000019
   246   1      7.1600000000000037      17.900000000000006      48.330000000000013
   247   1      7.1600000000000037      16.110000000000007       53.70000000000001
   248   1      7.1600000000000037      17.900000000000006      51.910000000000011
   249   1      7.1600000000000037      17.900000000000006      55.490000000000016
   250   1      7.1600000000000037      19.690000000000008      25.060000000000009
   251   1      7.1600000000000037      21.480000000000011       23.27000000000001
   252   1      7.1600000000000037      19.690000000000008      28.640000000000008
   253   1      7.1600000000000037      21.480000000000011      26.850000000000009
   254   1      5.3700000000000117      21.480000000000011      32.220000000000006
   255   1      7.1600000000000037      19.690000000000008      32.220000000000006
   256   1      7.1600000000000037      21.480000000000011       30.43000000000001
   257   1      5.3700000000000117      19.690000000000008      34.010000000000005
   258   1      5.3700000000000117      21.480000000000011      35.800000000000004
   259   1      7.1600000000000037      19.690000000000008      35.800000000000004
   260   1      7.1600000000000037      21.480000000000011      34.010000000000005
   261   1      5.3700000000000117      19.690000000000008      37.590000000000011
   262   1      5.3700000000000117      21.480000000000011       39.38000000000001
   263   1      7.1600000000000037      19.690000000000008       39.38000000000001
   264   1      7.1600000000000037      21.480000000000011      37.590000000000011
   265   1      5.3700000000000117      19.690000000000008      41.170000000000009
   266   1      5.3700000000000117      21.480000000000011      42.960000000000008
   267   1      7.1600000000000037      19.690000000000008      42.960000000000008
   268   1      7.1600000000000037      21.480000000000011      41.170000000000009
   269   1      5.3700000000000117      19.690000000000008      44.750000000000014
   270   1      5.3700000000000117      21.480000000000011      46.540000000000006
   271   1      7.1600000000000037      19.690000000000008      46.540000000000006
   272   1      7.1600000000000037      21.480000000000011      44.750000000000014
   273   1      5.3700000000000117      19.690000000000008      48.330000000000013
   274   1      5.3700000000000117      21.480000000000011      50.120000000000019
   275   1      7.1600000000000037      19.690000000000008      50.120000000000019
   276   1      7.1600000000000037      21.480000000000011      48.330000000000013
   277   1      7.1600000000000037      19.690000000000008       53.70000000000001
   278   1      7.1600000000000037      21.480000000000011      51.910000000000011
   279   1      7.1600000000000037      19.690000000000008      57.280000000000015
   280   1      7.1600000000000037      21.480000000000011      55.490000000000016
   281   1      7.1600000000000037      21.480000000000011      59.070000000000007
   282   1      7.1600000000000037       23.27000000000001      21.480000000000011
   283   1      7.1600000000000037      25.060000000000009      19.690000000000008
   284   1      7.1600000000000037       23.27000000000001      25.060000000000009
   285   1      7.1600000000000037      25.060000000000009       23.27000000000001
   286   1      5.3700000000000117      25.060000000000009      28.640000000000008
   287   1      7.1600000000000037       23.27000000000001      28.640000000000008
   288   1      7.1600000000000037      25.060000000000009      26.850000000000009
   289   1      5.3700000000000117       23.27000000000001       30.43000000000001
   290   1      5.3700000000000117      25.060000000000009      32.220000000000006
   291   1      7.1600000000000037       23.27000000000001      32.220000000000006
   292   1      7.1600000000000037      25.060000000000009       30.43000000000001
   293   1      5.3700000000000117       23.27000000000001      34.010000000000005
   294   1      5.3700000000000117      25.060000000000009      35.800000000000004
   295   1      7.1600000000000037       23.27000000000001      35.800000000000004
   296   1      7.1600000000000037      25.060000000000009      34.010000000000005
   297   1      5.3700000000000117       23.27000000000001      37.590000000000011
   298   1      5.3700000000000117      25.060000000000009       39.38000000000001
   299   1      7.1600000000000037       23.27000000000001       39.38000000000001
   300   1      7.1600000000000037      25.060000000000009      37.590000000000011
   301   1      5.3700000000000117       23.27000000000001      41.170000000000009
   302   1      5.3700000000000117      25.060000000000009      42.960000000000008
   303   1      7.1600000000000037       23.27000000000001      42.960000000000008
   304   1      7.1600000000000037      25.060000000000009      41.170000000000009
   305   1      5.3700000000000117       23.27000000000001      44.750000000000014
   306   1      5.3700000000000117      25.060000000000009      46.540000000000006
   307   1      7.1600000000000037       23.27000000000001      46.540000000000006
   308   1      7.1600000000000037      25.060000000000009      44.750000000000014
   309   1      5.3700000000000117       23.27000000000001      48.330000000000013
   310   1      5.3700000000000117      25.060000000000009      50.120000000000019
   311   1      7.1600000000000037       23.27000000000001      50.120000000000019
   312   1      7.1600000000000037      25.060000000000009      48.330000000000013
   313   1      5.3700000000000117       23.27000000000001      51.910000000000011
   314   1      5.3700000000000117      25.060000000000009       53.70000000000001
   315   1      7.1600000000000037       23.27000000000001       53.70000000000001
   316   1      7.1600000000000037      25.060000000000009      51.910000000000011
   317   1      7.1600000000000037       23.27000000000001      57.280000000000015
   318   1      7.1600000000000037      25.060000000000009      55.490000000000016
   319   1      7.1600000000000037       23.27000000000001      60.860000000000007
   320   1      7.1600000000000037      25.060000000000009      59.070000000000007
   321   1      7.1600000000000037      25.060000000000009      62.650000000000013
   322   1      7.1600000000000037      26.850000000000009      17.900000000000006
   323   1      7.1600000000000037      28.640000000000008      16.110000000000007
   324   1      7.1600000000000037      26.850000000000009      21.480000000000011
   325   1      7.1600000000000037      28.640000000000008      19.690000000000008
   326   1      5.3700000000000117      28.640000000000008      25.060000000000009
   327   1      7.1600000000000037      26.850000000000009      25.060000000000009
   328   1      7.1600000000000037      28.640000000000008       23.27000000000001
   329   1      5.3700000000000117      26.850000000000009      26.850000000000009
   330   1      5.3700000000000117      28.640000000000008      28.640000000000008
   331   1      7.1600000000000037      26.850000000000009      28.640000000000008
   332   1      7.1600000000000037      28.640000000000008      26.850000000000009
   333   1      5.3700000000000117      26.850000000000009       30.43000000000001
   334   1      5.3700000000000117      28.640000000000008      32.220000000000006
   335   1      7.1600000000000037      26.850000000000009      32.220000000000006
   336   1      7.1600000000000037      28.640000000000008       30.43000000000001
   337   1      5.3700000000000117      26.850000000000009      34.010000000000005
   338   1      5.3700000000000117      28.640000000000008      35.800000000000004
   339   1      7.1600000000000037      26.850000000000009      35.800000000000004
   340   1      7.1600000000000037      28.640000000000008      34.010000000000005
   341   1      5.3700000000000117      26.850000000000009      37.590000000000011
   342   1      5.3700000000000117      28.640000000000008       39.38000000000001
   343   1      7.1600000000000037      26.850000000000009       39.38000000000001
   344   1      7.1600000000000037      28.640000000000008      37.590000000000011
   345   1      5.3700000000000117      26.850000000000009      41.170000000000009
   346   1      5.3700000000000117      28.640000000000008      42.960000000000008
   347   1      7.1600000000000037      26.850000000000009      42.960000000000008
   348   1      7.1600000000000037      28.640000000000008      41.170000000000009
   349   1      5.3700000000000117      26.850000000000009      44.750000000000014
   350   1      5.3700000000000117      28.640000000000008      46.540000000000006
   351   1      7.1600000000000037      26.850000000000009      46.540000000000006
   352   1      7.1600000000000037      28.640000000000008      44.750000000000014
   353   1      5.3700000000000117      26.850000000000009      48.330000000000013
   354   1      5.3700000000000117      28.640000000000008      50.120000000000019
   355   1      7.1600000000000037      26.850000000000009      50.120000000000019
   356   1      7.1600000000000037      28.640000000000008      48.330000000000013
   357   1      5.3700000000000117      26.850000000000009      51.910000000000011
   358   1      5.3700000000000117      28.640000000000008       53.70000000000001