model_files/PtCo/PtCo_30000/PtCo_540/PtCo_540_fcc_29765_temp.data (written by ASE) 

29765 	 atoms 
2  atom types
0.0                     102  xlo xhi
0.0                     102  ylo yhi
0.0                     102  zlo zhi


Atoms 

     1   1      101.99999999999999      49.274999999999999      49.274999999999999
     2   1      1.8249999999999957      47.449999999999996      49.274999999999999
     3   1      1.8249999999999957      49.274999999999999      47.449999999999996
     4   1      101.99999999999999      49.274999999999999       52.92499999999999
     5   1      1.8249999999999957      47.449999999999996       52.92499999999999
     6   1      1.8249999999999957      49.274999999999999      51.099999999999987
     7   1      1.8249999999999957      49.274999999999999      54.749999999999986
     8   1      101.99999999999999       52.92499999999999      49.274999999999999
     9   1      1.8249999999999957      51.099999999999987      49.274999999999999
    10   1      1.8249999999999957       52.92499999999999      47.449999999999996
    11   1      101.99999999999999      51.099999999999987      51.099999999999987
    12   1      101.99999999999999       52.92499999999999       52.92499999999999
    13   1      1.8249999999999957      51.099999999999987       52.92499999999999
    14   1      1.8249999999999957       52.92499999999999      51.099999999999987
    15   1      1.8249999999999957       52.92499999999999      54.749999999999986
    16   1      1.8249999999999957      54.749999999999986      49.274999999999999
    17   1      1.8249999999999957      54.749999999999986       52.92499999999999
    18   1      3.6499999999999915      45.624999999999993      45.624999999999993
    19   1      5.4749999999999943       43.79999999999999      45.624999999999993
    20   1      5.4749999999999943      45.624999999999993       43.79999999999999
    21   1      3.6499999999999915      45.624999999999993      49.274999999999999
    22   1      5.4749999999999943       43.79999999999999      49.274999999999999
    23   1      5.4749999999999943      45.624999999999993      47.449999999999996
    24   1      3.6499999999999915      45.624999999999993       52.92499999999999
    25   1      5.4749999999999943       43.79999999999999       52.92499999999999
    26   1      5.4749999999999943      45.624999999999993      51.099999999999987
    27   1      3.6499999999999915      45.624999999999993      56.574999999999989
    28   1      5.4749999999999943       43.79999999999999      56.574999999999989
    29   1      5.4749999999999943      45.624999999999993      54.749999999999986
    30   1      5.4749999999999943      45.624999999999993      58.399999999999984
    31   1      3.6499999999999915      49.274999999999999      45.624999999999993
    32   1      5.4749999999999943      47.449999999999996      45.624999999999993
    33   1      5.4749999999999943      49.274999999999999       43.79999999999999
    34   1      3.6499999999999915      47.449999999999996      47.449999999999996
    35   1      3.6499999999999915      49.274999999999999      49.274999999999999
    36   1      5.4749999999999943      47.449999999999996      49.274999999999999
    37   1      5.4749999999999943      49.274999999999999      47.449999999999996
    38   1      3.6499999999999915      47.449999999999996      51.099999999999987
    39   1      3.6499999999999915      49.274999999999999       52.92499999999999
    40   1      5.4749999999999943      47.449999999999996       52.92499999999999
    41   1      5.4749999999999943      49.274999999999999      51.099999999999987
    42   1      3.6499999999999915      47.449999999999996      54.749999999999986
    43   1      3.6499999999999915      49.274999999999999      56.574999999999989
    44   1      5.4749999999999943      47.449999999999996      56.574999999999989
    45   1      5.4749999999999943      49.274999999999999      54.749999999999986
    46   1      5.4749999999999943      49.274999999999999      58.399999999999984
    47   1      3.6499999999999915       52.92499999999999      45.624999999999993
    48   1      5.4749999999999943      51.099999999999987      45.624999999999993
    49   1      5.4749999999999943       52.92499999999999       43.79999999999999
    50   1      3.6499999999999915      51.099999999999987      47.449999999999996
    51   1      3.6499999999999915       52.92499999999999      49.274999999999999
    52   1      5.4749999999999943      51.099999999999987      49.274999999999999
    53   1      5.4749999999999943       52.92499999999999      47.449999999999996
    54   1      3.6499999999999915      51.099999999999987      51.099999999999987
    55   1      3.6499999999999915       52.92499999999999       52.92499999999999
    56   1      5.4749999999999943      51.099999999999987       52.92499999999999
    57   1      5.4749999999999943       52.92499999999999      51.099999999999987
    58   1      3.6499999999999915      51.099999999999987      54.749999999999986
    59   1      3.6499999999999915       52.92499999999999      56.574999999999989
    60   1      5.4749999999999943      51.099999999999987      56.574999999999989
    61   1      5.4749999999999943       52.92499999999999      54.749999999999986
    62   1      5.4749999999999943       52.92499999999999      58.399999999999984
    63   1      3.6499999999999915      56.574999999999989      45.624999999999993
    64   1      5.4749999999999943      54.749999999999986      45.624999999999993
    65   1      5.4749999999999943      56.574999999999989       43.79999999999999
    66   1      3.6499999999999915      54.749999999999986      47.449999999999996
    67   1      3.6499999999999915      56.574999999999989      49.274999999999999
    68   1      5.4749999999999943      54.749999999999986      49.274999999999999
    69   1      5.4749999999999943      56.574999999999989      47.449999999999996
    70   1      3.6499999999999915      54.749999999999986      51.099999999999987
    71   1      3.6499999999999915      56.574999999999989       52.92499999999999
    72   1      5.4749999999999943      54.749999999999986       52.92499999999999
    73   1      5.4749999999999943      56.574999999999989      51.099999999999987
    74   1      3.6499999999999915      54.749999999999986      54.749999999999986
    75   1      3.6499999999999915      56.574999999999989      56.574999999999989
    76   1      5.4749999999999943      54.749999999999986      56.574999999999989
    77   1      5.4749999999999943      56.574999999999989      54.749999999999986
    78   1      5.4749999999999943      56.574999999999989      58.399999999999984
    79   1      5.4749999999999943      58.399999999999984      45.624999999999993
    80   1      5.4749999999999943      58.399999999999984      49.274999999999999
    81   1      5.4749999999999943      58.399999999999984       52.92499999999999
    82   1      5.4749999999999943      58.399999999999984      56.574999999999989
    83   1      9.1249999999999929      38.324999999999996      40.149999999999991
    84   1      9.1249999999999929      38.324999999999996       43.79999999999999
    85   1      9.1249999999999929      38.324999999999996      47.449999999999996
    86   1      9.1249999999999929      38.324999999999996      51.099999999999987
    87   1      9.1249999999999929      38.324999999999996      54.749999999999986
    88   1      9.1249999999999929      38.324999999999996      58.399999999999984
    89   1      9.1249999999999929      38.324999999999996      62.049999999999997
    90   1      9.1249999999999929      40.149999999999991      38.324999999999996
    91   1      7.2999999999999972      40.149999999999991      40.149999999999991
    92   1      7.2999999999999972      41.974999999999994      41.974999999999994
    93   1      9.1249999999999929      40.149999999999991      41.974999999999994
    94   1      9.1249999999999929      41.974999999999994      40.149999999999991
    95   1      7.2999999999999972      40.149999999999991       43.79999999999999
    96   1      7.2999999999999972      41.974999999999994      45.624999999999993
    97   1      9.1249999999999929      40.149999999999991      45.624999999999993
    98   1      9.1249999999999929      41.974999999999994       43.79999999999999
    99   1      7.2999999999999972      40.149999999999991      47.449999999999996
   100   1      7.2999999999999972      41.974999999999994      49.274999999999999
   101   1      9.1249999999999929      40.149999999999991      49.274999999999999
   102   1      9.1249999999999929      41.974999999999994      47.449999999999996
   103   1      7.2999999999999972      40.149999999999991      51.099999999999987
   104   1      7.2999999999999972      41.974999999999994       52.92499999999999
   105   1      9.1249999999999929      40.149999999999991       52.92499999999999
   106   1      9.1249999999999929      41.974999999999994      51.099999999999987
   107   1      7.2999999999999972      40.149999999999991      54.749999999999986
   108   1      7.2999999999999972      41.974999999999994      56.574999999999989
   109   1      9.1249999999999929      40.149999999999991      56.574999999999989
   110   1      9.1249999999999929      41.974999999999994      54.749999999999986
   111   1      7.2999999999999972      40.149999999999991      58.399999999999984
   112   1      7.2999999999999972      41.974999999999994      60.224999999999987
   113   1      9.1249999999999929      40.149999999999991      60.224999999999987
   114   1      9.1249999999999929      41.974999999999994      58.399999999999984
   115   1      7.2999999999999972      40.149999999999991      62.049999999999997
   116   1      9.1249999999999929      40.149999999999991                  63.875
   117   1      9.1249999999999929      41.974999999999994      62.049999999999997
   118   1      9.1249999999999929       43.79999999999999      38.324999999999996
   119   1      7.2999999999999972       43.79999999999999      40.149999999999991
   120   1      7.2999999999999972      45.624999999999993      41.974999999999994
   121   1      9.1249999999999929       43.79999999999999      41.974999999999994
   122   1      9.1249999999999929      45.624999999999993      40.149999999999991
   123   1      7.2999999999999972       43.79999999999999       43.79999999999999
   124   1      7.2999999999999972      45.624999999999993      45.624999999999993
   125   1      9.1249999999999929       43.79999999999999      45.624999999999993
   126   1      9.1249999999999929      45.624999999999993       43.79999999999999
   127   1      7.2999999999999972       43.79999999999999      47.449999999999996
   128   1      7.2999999999999972      45.624999999999993      49.274999999999999
   129   1      9.1249999999999929       43.79999999999999      49.274999999999999
   130   1      9.1249999999999929      45.624999999999993      47.449999999999996
   131   1      7.2999999999999972       43.79999999999999      51.099999999999987
   132   1      7.2999999999999972      45.624999999999993       52.92499999999999
   133   1      9.1249999999999929       43.79999999999999       52.92499999999999
   134   1      9.1249999999999929      45.624999999999993      51.099999999999987
   135   1      7.2999999999999972       43.79999999999999      54.749999999999986
   136   1      7.2999999999999972      45.624999999999993      56.574999999999989
   137   1      9.1249999999999929       43.79999999999999      56.574999999999989
   138   1      9.1249999999999929      45.624999999999993      54.749999999999986
   139   1      7.2999999999999972       43.79999999999999      58.399999999999984
   140   1      7.2999999999999972      45.624999999999993      60.224999999999987
   141   1      9.1249999999999929       43.79999999999999      60.224999999999987
   142   1      9.1249999999999929      45.624999999999993      58.399999999999984
   143   1      7.2999999999999972       43.79999999999999      62.049999999999997
   144   1      9.1249999999999929       43.79999999999999                  63.875
   145   1      9.1249999999999929      45.624999999999993      62.049999999999997
   146   1      9.1249999999999929      47.449999999999996      38.324999999999996
   147   1      7.2999999999999972      47.449999999999996      40.149999999999991
   148   1      7.2999999999999972      49.274999999999999      41.974999999999994
   149   1      9.1249999999999929      47.449999999999996      41.974999999999994
   150   1      9.1249999999999929      49.274999999999999      40.149999999999991
   151   1      7.2999999999999972      47.449999999999996       43.79999999999999
   152   1      7.2999999999999972      49.274999999999999      45.624999999999993
   153   1      9.1249999999999929      47.449999999999996      45.624999999999993
   154   1      9.1249999999999929      49.274999999999999       43.79999999999999
   155   1      7.2999999999999972      47.449999999999996      47.449999999999996
   156   1      7.2999999999999972      49.274999999999999      49.274999999999999
   157   1      9.1249999999999929      47.449999999999996      49.274999999999999
   158   1      9.1249999999999929      49.274999999999999      47.449999999999996
   159   1      7.2999999999999972      47.449999999999996      51.099999999999987
   160   1      7.2999999999999972      49.274999999999999       52.92499999999999
   161   1      9.1249999999999929      47.449999999999996       52.92499999999999
   162   1      9.1249999999999929      49.274999999999999      51.099999999999987
   163   1      7.2999999999999972      47.449999999999996      54.749999999999986
   164   1      7.2999999999999972      49.274999999999999      56.574999999999989
   165   1      9.1249999999999929      47.449999999999996      56.574999999999989
   166   1      9.1249999999999929      49.274999999999999      54.749999999999986
   167   1      7.2999999999999972      47.449999999999996      58.399999999999984
   168   1      7.2999999999999972      49.274999999999999      60.224999999999987
   169   1      9.1249999999999929      47.449999999999996      60.224999999999987
   170   1      9.1249999999999929      49.274999999999999      58.399999999999984
   171   1      7.2999999999999972      47.449999999999996      62.049999999999997
   172   1      9.1249999999999929      47.449999999999996                  63.875
   173   1      9.1249999999999929      49.274999999999999      62.049999999999997
   174   1      9.1249999999999929      51.099999999999987      38.324999999999996
   175   1      7.2999999999999972      51.099999999999987      40.149999999999991
   176   1      7.2999999999999972       52.92499999999999      41.974999999999994
   177   1      9.1249999999999929      51.099999999999987      41.974999999999994
   178   1      9.1249999999999929       52.92499999999999      40.149999999999991
   179   1      7.2999999999999972      51.099999999999987       43.79999999999999
   180   1      7.2999999999999972       52.92499999999999      45.624999999999993
   181   1      9.1249999999999929      51.099999999999987      45.624999999999993
   182   1      9.1249999999999929       52.92499999999999       43.79999999999999
   183   1      7.2999999999999972      51.099999999999987      47.449999999999996
   184   1      7.2999999999999972       52.92499999999999      49.274999999999999
   185   1      9.1249999999999929      51.099999999999987      49.274999999999999
   186   1      9.1249999999999929       52.92499999999999      47.449999999999996
   187   1      7.2999999999999972      51.099999999999987      51.099999999999987
   188   1      7.2999999999999972       52.92499999999999       52.92499999999999
   189   1      9.1249999999999929      51.099999999999987       52.92499999999999
   190   1      9.1249999999999929       52.92499999999999      51.099999999999987
   191   1      7.2999999999999972      51.099999999999987      54.749999999999986
   192   1      7.2999999999999972       52.92499999999999      56.574999999999989
   193   1      9.1249999999999929      51.099999999999987      56.574999999999989
   194   1      9.1249999999999929       52.92499999999999      54.749999999999986
   195   1      7.2999999999999972      51.099999999999987      58.399999999999984
   196   1      7.2999999999999972       52.92499999999999      60.224999999999987
   197   1      9.1249999999999929      51.099999999999987      60.224999999999987
   198   1      9.1249999999999929       52.92499999999999      58.399999999999984
   199   1      7.2999999999999972      51.099999999999987      62.049999999999997
   200   1      9.1249999999999929      51.099999999999987                  63.875
   201   1      9.1249999999999929       52.92499999999999      62.049999999999997
   202   1      9.1249999999999929      54.749999999999986      38.324999999999996
   203   1      7.2999999999999972      54.749999999999986      40.149999999999991
   204   1      7.2999999999999972      56.574999999999989      41.974999999999994
   205   1      9.1249999999999929      54.749999999999986      41.974999999999994
   206   1      9.1249999999999929      56.574999999999989      40.149999999999991
   207   1      7.2999999999999972      54.749999999999986       43.79999999999999
   208   1      7.2999999999999972      56.574999999999989      45.624999999999993
   209   1      9.1249999999999929      54.749999999999986      45.624999999999993
   210   1      9.1249999999999929      56.574999999999989       43.79999999999999
   211   1      7.2999999999999972      54.749999999999986      47.449999999999996
   212   1      7.2999999999999972      56.574999999999989      49.274999999999999
   213   1      9.1249999999999929      54.749999999999986      49.274999999999999
   214   1      9.1249999999999929      56.574999999999989      47.449999999999996
   215   1      7.2999999999999972      54.749999999999986      51.099999999999987
   216   1      7.2999999999999972      56.574999999999989       52.92499999999999
   217   1      9.1249999999999929      54.749999999999986       52.92499999999999
   218   1      9.1249999999999929      56.574999999999989      51.099999999999987
   219   1      7.2999999999999972      54.749999999999986      54.749999999999986
   220   1      7.2999999999999972      56.574999999999989      56.574999999999989
   221   1      9.1249999999999929      54.749999999999986      56.574999999999989
   222   1      9.1249999999999929      56.574999999999989      54.749999999999986
   223   1      7.2999999999999972      54.749999999999986      58.399999999999984
   224   1      7.2999999999999972      56.574999999999989      60.224999999999987
   225   1      9.1249999999999929      54.749999999999986      60.224999999999987
   226   1      9.1249999999999929      56.574999999999989      58.399999999999984
   227   1      7.2999999999999972      54.749999999999986      62.049999999999997
   228   1      9.1249999999999929      54.749999999999986                  63.875
   229   1      9.1249999999999929      56.574999999999989      62.049999999999997
   230   1      9.1249999999999929      58.399999999999984      38.324999999999996
   231   1      7.2999999999999972      58.399999999999984      40.149999999999991
   232   1      7.2999999999999972      60.224999999999987      41.974999999999994
   233   1      9.1249999999999929      58.399999999999984      41.974999999999994
   234   1      9.1249999999999929      60.224999999999987      40.149999999999991
   235   1      7.2999999999999972      58.399999999999984       43.79999999999999
   236   1      7.2999999999999972      60.224999999999987      45.624999999999993
   237   1      9.1249999999999929      58.399999999999984      45.624999999999993
   238   1      9.1249999999999929      60.224999999999987       43.79999999999999
   239   1      7.2999999999999972      58.399999999999984      47.449999999999996
   240   1      7.2999999999999972      60.224999999999987      49.274999999999999
   241   1      9.1249999999999929      58.399999999999984      49.274999999999999
   242   1      9.1249999999999929      60.224999999999987      47.449999999999996
   243   1      7.2999999999999972      58.399999999999984      51.099999999999987
   244   1      7.2999999999999972      60.224999999999987       52.92499999999999
   245   1      9.1249999999999929      58.399999999999984       52.92499999999999
   246   1      9.1249999999999929      60.224999999999987      51.099999999999987
   247   1      7.2999999999999972      58.399999999999984      54.749999999999986
   248   1      7.2999999999999972      60.224999999999987      56.574999999999989
   249   1      9.1249999999999929      58.399999999999984      56.574999999999989
   250   1      9.1249999999999929      60.224999999999987      54.749999999999986
   251   1      7.2999999999999972      58.399999999999984      58.399999999999984
   252   1      7.2999999999999972      60.224999999999987      60.224999999999987
   253   1      9.1249999999999929      58.399999999999984      60.224999999999987
   254   1      9.1249999999999929      60.224999999999987      58.399999999999984
   255   1      7.2999999999999972      58.399999999999984      62.049999999999997
   256   1      9.1249999999999929      58.399999999999984                  63.875
   257   1      9.1249999999999929      60.224999999999987      62.049999999999997
   258   1      9.1249999999999929      62.049999999999997      38.324999999999996
   259   1      7.2999999999999972      62.049999999999997      40.149999999999991
   260   1      9.1249999999999929      62.049999999999997      41.974999999999994
   261   1      9.1249999999999929                  63.875      40.149999999999991
   262   1      7.2999999999999972      62.049999999999997       43.79999999999999
   263   1      9.1249999999999929      62.049999999999997      45.624999999999993
   264   1      9.1249999999999929                  63.875       43.79999999999999
   265   1      7.2999999999999972      62.049999999999997      47.449999999999996
   266   1      9.1249999999999929      62.049999999999997      49.274999999999999
   267   1      9.1249999999999929                  63.875      47.449999999999996
   268   1      7.2999999999999972      62.049999999999997      51.099999999999987
   269   1      9.1249999999999929      62.049999999999997       52.92499999999999
   270   1      9.1249999999999929                  63.875      51.099999999999987
   271   1      7.2999999999999972      62.049999999999997      54.749999999999986
   272   1      9.1249999999999929      62.049999999999997      56.574999999999989
   273   1      9.1249999999999929                  63.875      54.749999999999986
   274   1      7.2999999999999972      62.049999999999997      58.399999999999984
   275   1      9.1249999999999929      62.049999999999997      60.224999999999987
   276   1      9.1249999999999929                  63.875      58.399999999999984
   277   1      7.2999999999999972      62.049999999999997      62.049999999999997
   278   1      9.1249999999999929      62.049999999999997                  63.875
   279   1      9.1249999999999929                  63.875      62.049999999999997
   280   1      12.774999999999991      34.674999999999997      36.499999999999993
   281   1      12.774999999999991      34.674999999999997      40.149999999999991
   282   1      12.774999999999991      34.674999999999997       43.79999999999999
   283   1      12.774999999999991      34.674999999999997      47.449999999999996
   284   1      12.774999999999991      34.674999999999997      51.099999999999987
   285   1      12.774999999999991      34.674999999999997      54.749999999999986
   286   1      12.774999999999991      34.674999999999997      58.399999999999984
   287   1      12.774999999999991      34.674999999999997      62.049999999999997
   288   1      12.774999999999991      34.674999999999997      65.699999999999989
   289   1      12.774999999999991      36.499999999999993      34.674999999999997
   290   1      10.949999999999996      36.499999999999993      36.499999999999993
   291   1      10.949999999999996      38.324999999999996      38.324999999999996
   292   1      12.774999999999991      36.499999999999993      38.324999999999996
   293   1      12.774999999999991      38.324999999999996      36.499999999999993
   294   1      10.949999999999996      36.499999999999993      40.149999999999991
   295   1      10.949999999999996      38.324999999999996      41.974999999999994
   296   1      12.774999999999991      36.499999999999993      41.974999999999994
   297   1      12.774999999999991      38.324999999999996      40.149999999999991
   298   1      10.949999999999996      36.499999999999993       43.79999999999999
   299   1      10.949999999999996      38.324999999999996      45.624999999999993
   300   1      12.774999999999991      36.499999999999993      45.624999999999993
   301   1      12.774999999999991      38.324999999999996       43.79999999999999
   302   1      10.949999999999996      36.499999999999993      47.449999999999996
   303   1      10.949999999999996      38.324999999999996      49.274999999999999
   304   1      12.774999999999991      36.499999999999993      49.274999999999999
   305   1      12.774999999999991      38.324999999999996      47.449999999999996
   306   1      10.949999999999996      36.499999999999993      51.099999999999987
   307   1      10.949999999999996      38.324999999999996       52.92499999999999
   308   1      12.774999999999991      36.499999999999993       52.92499999999999
   309   1      12.774999999999991      38.324999999999996      51.099999999999987
   310   1      10.949999999999996      36.499999999999993      54.749999999999986
   311   1      10.949999999999996      38.324999999999996      56.574999999999989
   312   1      12.774999999999991      36.499999999999993      56.574999999999989
   313   1      12.774999999999991      38.324999999999996      54.749999999999986
   314   1      10.949999999999996      36.499999999999993      58.399999999999984
   315   1      10.949999999999996      38.324999999999996      60.224999999999987
   316   1      12.774999999999991      36.499999999999993      60.224999999999987
   317   1      12.774999999999991      38.324999999999996      58.399999999999984
   318   1      10.949999999999996      36.499999999999993      62.049999999999997
   319   1      10.949999999999996      38.324999999999996                  63.875
   320   1      12.774999999999991      36.499999999999993                  63.875
   321   1      12.774999999999991      38.324999999999996      62.049999999999997
   322   1      10.949999999999996      36.499999999999993      65.699999999999989
   323   1      12.774999999999991      36.499999999999993      67.524999999999991
   324   1      12.774999999999991      38.324999999999996      65.699999999999989
   325   1      12.774999999999991      40.149999999999991      34.674999999999997
   326   1      10.949999999999996      40.149999999999991      36.499999999999993
   327   1      10.949999999999996      41.974999999999994      38.324999999999996
   328   1      12.774999999999991      40.149999999999991      38.324999999999996
   329   1      12.774999999999991      41.974999999999994      36.499999999999993
   330   1      10.949999999999996      40.149999999999991      40.149999999999991
   331   1      10.949999999999996      41.974999999999994      41.974999999999994
   332   1      12.774999999999991      40.149999999999991      41.974999999999994
   333   1      12.774999999999991      41.974999999999994      40.149999999999991
   334   1      10.949999999999996      40.149999999999991       43.79999999999999
   335   1      10.949999999999996      41.974999999999994      45.624999999999993
   336   1      12.774999999999991      40.149999999999991      45.624999999999993
   337   1      12.774999999999991      41.974999999999994       43.79999999999999
   338   1      10.949999999999996      40.149999999999991      47.449999999999996
   339   1      10.949999999999996      41.974999999999994      49.274999999999999
   340   1      12.774999999999991      40.149999999999991      49.274999999999999
   341   1      12.774999999999991      41.974999999999994      47.449999999999996
   342   1      10.949999999999996      40.149999999999991      51.099999999999987
   343   1      10.949999999999996      41.974999999999994       52.92499999999999
   344   1      12.774999999999991      40.149999999999991       52.92499999999999
   345   1      12.774999999999991      41.974999999999994      51.099999999999987
   346   1      10.949999999999996      40.149999999999991      54.749999999999986
   347   1      10.949999999999996      41.974999999999994      56.574999999999989
   348   1      12.774999999999991      40.149999999999991      56.574999999999989
   349   1      12.774999999999991      41.974999999999994      54.749999999999986
   350   1      10.949999999999996      40.149999999999991      58.399999999999984
   351   1      10.949999999999996      41.974999999999994      60.224999999999987
   352   1      12.774999999999991      40.149999999999991      60.224999999999987
   353   1      12.774999999999991      41.974999999999994      58.399999999999984
   354   1      10.949999999999996      40.149999999999991      62.049999999999997
   355   1      10.949999999999996      41.974999999999994                  63.875
   356   1      12.774999999999991      40.149999999999991                  63.875
   357   1      12.774999999999991      41.974999999999994      62.049999999999997
   358   1      10.949999999999996      40.149999999999991      65.699999999999989