model_files/NiFeCrCoAl/NiFeCrCoAl_30000/NiFeCrCoAl_431/NiFeCrCoAl_431_fcc_29685_temp.data (written by ASE) 

29685 	 atoms 
5  atom types
0.0                     103  xlo xhi
0.0                     103  ylo yhi
0.0                     103  zlo zhi


Atoms 

     1   1      1.8049999999999995                  45.125      50.539999999999999
     2   1                       0      48.734999999999992      48.734999999999992
     3   1      1.8049999999999995      46.929999999999993      48.734999999999992
     4   1      1.8049999999999995      48.734999999999992      46.929999999999993
     5   1                       0      46.929999999999993      50.539999999999999
     6   1                       0      48.734999999999992      52.344999999999992
     7   1      1.8049999999999995      46.929999999999993      52.344999999999992
     8   1      1.8049999999999995      48.734999999999992      50.539999999999999
     9   1      1.8049999999999995      48.734999999999992      54.149999999999991
    10   1      1.8049999999999995      50.539999999999999                  45.125
    11   1                       0      50.539999999999999      46.929999999999993
    12   1                       0      52.344999999999992      48.734999999999992
    13   1      1.8049999999999995      50.539999999999999      48.734999999999992
    14   1      1.8049999999999995      52.344999999999992      46.929999999999993
    15   1                       0      50.539999999999999      50.539999999999999
    16   1                       0      52.344999999999992      52.344999999999992
    17   1      1.8049999999999995      50.539999999999999      52.344999999999992
    18   1      1.8049999999999995      52.344999999999992      50.539999999999999
    19   1                       0      50.539999999999999      54.149999999999991
    20   1      1.8049999999999995      50.539999999999999      55.954999999999998
    21   1      1.8049999999999995      52.344999999999992      54.149999999999991
    22   1      1.8049999999999995      54.149999999999991      48.734999999999992
    23   1                       0      54.149999999999991      50.539999999999999
    24   1      1.8049999999999995      54.149999999999991      52.344999999999992
    25   1      1.8049999999999995      55.954999999999998      50.539999999999999
    26   1      5.4149999999999991      41.515000000000001      46.929999999999993
    27   1      5.4149999999999991      41.515000000000001      50.539999999999999
    28   1      5.4149999999999991      41.515000000000001      54.149999999999991
    29   1       3.609999999999999                  45.125                  45.125
    30   1      5.4149999999999991      43.319999999999993                  45.125
    31   1      5.4149999999999991                  45.125      43.319999999999993
    32   1       3.609999999999999      43.319999999999993      46.929999999999993
    33   1       3.609999999999999                  45.125      48.734999999999992
    34   1      5.4149999999999991      43.319999999999993      48.734999999999992
    35   1      5.4149999999999991                  45.125      46.929999999999993
    36   1       3.609999999999999      43.319999999999993      50.539999999999999
    37   1       3.609999999999999                  45.125      52.344999999999992
    38   1      5.4149999999999991      43.319999999999993      52.344999999999992
    39   1      5.4149999999999991                  45.125      50.539999999999999
    40   1       3.609999999999999      43.319999999999993      54.149999999999991
    41   1       3.609999999999999                  45.125      55.954999999999998
    42   1      5.4149999999999991      43.319999999999993      55.954999999999998
    43   1      5.4149999999999991                  45.125      54.149999999999991
    44   1      5.4149999999999991                  45.125      57.759999999999998
    45   1      5.4149999999999991      46.929999999999993      41.515000000000001
    46   1       3.609999999999999      46.929999999999993      43.319999999999993
    47   1       3.609999999999999      48.734999999999992                  45.125
    48   1      5.4149999999999991      46.929999999999993                  45.125
    49   1      5.4149999999999991      48.734999999999992      43.319999999999993
    50   1       3.609999999999999      46.929999999999993      46.929999999999993
    51   1       3.609999999999999      48.734999999999992      48.734999999999992
    52   1      5.4149999999999991      46.929999999999993      48.734999999999992
    53   1      5.4149999999999991      48.734999999999992      46.929999999999993
    54   1       3.609999999999999      46.929999999999993      50.539999999999999
    55   1       3.609999999999999      48.734999999999992      52.344999999999992
    56   1      5.4149999999999991      46.929999999999993      52.344999999999992
    57   1      5.4149999999999991      48.734999999999992      50.539999999999999
    58   1       3.609999999999999      46.929999999999993      54.149999999999991
    59   1       3.609999999999999      48.734999999999992      55.954999999999998
    60   1      5.4149999999999991      46.929999999999993      55.954999999999998
    61   1      5.4149999999999991      48.734999999999992      54.149999999999991
    62   1       3.609999999999999      46.929999999999993      57.759999999999998
    63   1      5.4149999999999991      46.929999999999993      59.564999999999991
    64   1      5.4149999999999991      48.734999999999992      57.759999999999998
    65   1      5.4149999999999991      50.539999999999999      41.515000000000001
    66   1       3.609999999999999      50.539999999999999      43.319999999999993
    67   1       3.609999999999999      52.344999999999992                  45.125
    68   1      5.4149999999999991      50.539999999999999                  45.125
    69   1      5.4149999999999991      52.344999999999992      43.319999999999993
    70   1       3.609999999999999      50.539999999999999      46.929999999999993
    71   1       3.609999999999999      52.344999999999992      48.734999999999992
    72   1      5.4149999999999991      50.539999999999999      48.734999999999992
    73   1      5.4149999999999991      52.344999999999992      46.929999999999993
    74   1       3.609999999999999      50.539999999999999      50.539999999999999
    75   1       3.609999999999999      52.344999999999992      52.344999999999992
    76   1      5.4149999999999991      50.539999999999999      52.344999999999992
    77   1      5.4149999999999991      52.344999999999992      50.539999999999999
    78   1       3.609999999999999      50.539999999999999      54.149999999999991
    79   1       3.609999999999999      52.344999999999992      55.954999999999998
    80   1      5.4149999999999991      50.539999999999999      55.954999999999998
    81   1      5.4149999999999991      52.344999999999992      54.149999999999991
    82   1       3.609999999999999      50.539999999999999      57.759999999999998
    83   1      5.4149999999999991      50.539999999999999      59.564999999999991
    84   1      5.4149999999999991      52.344999999999992      57.759999999999998
    85   1      5.4149999999999991      54.149999999999991      41.515000000000001
    86   1       3.609999999999999      54.149999999999991      43.319999999999993
    87   1       3.609999999999999      55.954999999999998                  45.125
    88   1      5.4149999999999991      54.149999999999991                  45.125
    89   1      5.4149999999999991      55.954999999999998      43.319999999999993
    90   1       3.609999999999999      54.149999999999991      46.929999999999993
    91   1       3.609999999999999      55.954999999999998      48.734999999999992
    92   1      5.4149999999999991      54.149999999999991      48.734999999999992
    93   1      5.4149999999999991      55.954999999999998      46.929999999999993
    94   1       3.609999999999999      54.149999999999991      50.539999999999999
    95   1       3.609999999999999      55.954999999999998      52.344999999999992
    96   1      5.4149999999999991      54.149999999999991      52.344999999999992
    97   1      5.4149999999999991      55.954999999999998      50.539999999999999
    98   1       3.609999999999999      54.149999999999991      54.149999999999991
    99   1       3.609999999999999      55.954999999999998      55.954999999999998
   100   1      5.4149999999999991      54.149999999999991      55.954999999999998
   101   1      5.4149999999999991      55.954999999999998      54.149999999999991
   102   1       3.609999999999999      54.149999999999991      57.759999999999998
   103   1      5.4149999999999991      54.149999999999991      59.564999999999991
   104   1      5.4149999999999991      55.954999999999998      57.759999999999998
   105   1      5.4149999999999991      57.759999999999998                  45.125
   106   1       3.609999999999999      57.759999999999998      46.929999999999993
   107   1      5.4149999999999991      57.759999999999998      48.734999999999992
   108   1      5.4149999999999991      59.564999999999991      46.929999999999993
   109   1       3.609999999999999      57.759999999999998      50.539999999999999
   110   1      5.4149999999999991      57.759999999999998      52.344999999999992
   111   1      5.4149999999999991      59.564999999999991      50.539999999999999
   112   1       3.609999999999999      57.759999999999998      54.149999999999991
   113   1      5.4149999999999991      57.759999999999998      55.954999999999998
   114   1      5.4149999999999991      59.564999999999991      54.149999999999991
   115   1      9.0249999999999968      37.904999999999994      43.319999999999993
   116   1       7.219999999999998      37.904999999999994      48.734999999999992
   117   1      9.0249999999999968      36.100000000000001      48.734999999999992
   118   1      9.0249999999999968      37.904999999999994      46.929999999999993
   119   1       7.219999999999998      37.904999999999994      52.344999999999992
   120   1      9.0249999999999968      36.100000000000001      52.344999999999992
   121   1      9.0249999999999968      37.904999999999994      50.539999999999999
   122   1      9.0249999999999968      37.904999999999994      54.149999999999991
   123   1      9.0249999999999968      37.904999999999994      57.759999999999998
   124   1       7.219999999999998      41.515000000000001      41.515000000000001
   125   1      9.0249999999999968      39.710000000000001      41.515000000000001
   126   1      9.0249999999999968      41.515000000000001      39.710000000000001
   127   1       7.219999999999998      39.710000000000001      43.319999999999993
   128   1       7.219999999999998      41.515000000000001                  45.125
   129   1      9.0249999999999968      39.710000000000001                  45.125
   130   1      9.0249999999999968      41.515000000000001      43.319999999999993
   131   1       7.219999999999998      39.710000000000001      46.929999999999993
   132   1       7.219999999999998      41.515000000000001      48.734999999999992
   133   1      9.0249999999999968      39.710000000000001      48.734999999999992
   134   1      9.0249999999999968      41.515000000000001      46.929999999999993
   135   1       7.219999999999998      39.710000000000001      50.539999999999999
   136   1       7.219999999999998      41.515000000000001      52.344999999999992
   137   1      9.0249999999999968      39.710000000000001      52.344999999999992
   138   1      9.0249999999999968      41.515000000000001      50.539999999999999
   139   1       7.219999999999998      39.710000000000001      54.149999999999991
   140   1       7.219999999999998      41.515000000000001      55.954999999999998
   141   1      9.0249999999999968      39.710000000000001      55.954999999999998
   142   1      9.0249999999999968      41.515000000000001      54.149999999999991
   143   1       7.219999999999998      39.710000000000001      57.759999999999998
   144   1       7.219999999999998      41.515000000000001      59.564999999999991
   145   1      9.0249999999999968      39.710000000000001      59.564999999999991
   146   1      9.0249999999999968      41.515000000000001      57.759999999999998
   147   1      9.0249999999999968      41.515000000000001      61.370000000000005
   148   1      9.0249999999999968      43.319999999999993      37.904999999999994
   149   1       7.219999999999998      43.319999999999993      39.710000000000001
   150   1       7.219999999999998                  45.125      41.515000000000001
   151   1      9.0249999999999968      43.319999999999993      41.515000000000001
   152   1      9.0249999999999968                  45.125      39.710000000000001
   153   1       7.219999999999998      43.319999999999993      43.319999999999993
   154   1       7.219999999999998                  45.125                  45.125
   155   1      9.0249999999999968      43.319999999999993                  45.125
   156   1      9.0249999999999968                  45.125      43.319999999999993
   157   1       7.219999999999998      43.319999999999993      46.929999999999993
   158   1       7.219999999999998                  45.125      48.734999999999992
   159   1      9.0249999999999968      43.319999999999993      48.734999999999992
   160   1      9.0249999999999968                  45.125      46.929999999999993
   161   1       7.219999999999998      43.319999999999993      50.539999999999999
   162   1       7.219999999999998                  45.125      52.344999999999992
   163   1      9.0249999999999968      43.319999999999993      52.344999999999992
   164   1      9.0249999999999968                  45.125      50.539999999999999
   165   1       7.219999999999998      43.319999999999993      54.149999999999991
   166   1       7.219999999999998                  45.125      55.954999999999998
   167   1      9.0249999999999968      43.319999999999993      55.954999999999998
   168   1      9.0249999999999968                  45.125      54.149999999999991
   169   1       7.219999999999998      43.319999999999993      57.759999999999998
   170   1       7.219999999999998                  45.125      59.564999999999991
   171   1      9.0249999999999968      43.319999999999993      59.564999999999991
   172   1      9.0249999999999968                  45.125      57.759999999999998
   173   1       7.219999999999998      43.319999999999993      61.370000000000005
   174   1      9.0249999999999968      43.319999999999993      63.175000000000004
   175   1      9.0249999999999968                  45.125      61.370000000000005
   176   1       7.219999999999998      48.734999999999992      37.904999999999994
   177   1      9.0249999999999968      46.929999999999993      37.904999999999994
   178   1      9.0249999999999968      48.734999999999992      36.100000000000001
   179   1       7.219999999999998      46.929999999999993      39.710000000000001
   180   1       7.219999999999998      48.734999999999992      41.515000000000001
   181   1      9.0249999999999968      46.929999999999993      41.515000000000001
   182   1      9.0249999999999968      48.734999999999992      39.710000000000001
   183   1       7.219999999999998      46.929999999999993      43.319999999999993
   184   1       7.219999999999998      48.734999999999992                  45.125
   185   1      9.0249999999999968      46.929999999999993                  45.125
   186   1      9.0249999999999968      48.734999999999992      43.319999999999993
   187   1       7.219999999999998      46.929999999999993      46.929999999999993
   188   1       7.219999999999998      48.734999999999992      48.734999999999992
   189   1      9.0249999999999968      46.929999999999993      48.734999999999992
   190   1      9.0249999999999968      48.734999999999992      46.929999999999993
   191   1       7.219999999999998      46.929999999999993      50.539999999999999
   192   1       7.219999999999998      48.734999999999992      52.344999999999992
   193   1      9.0249999999999968      46.929999999999993      52.344999999999992
   194   1      9.0249999999999968      48.734999999999992      50.539999999999999
   195   1       7.219999999999998      46.929999999999993      54.149999999999991
   196   1       7.219999999999998      48.734999999999992      55.954999999999998
   197   1      9.0249999999999968      46.929999999999993      55.954999999999998
   198   1      9.0249999999999968      48.734999999999992      54.149999999999991
   199   1       7.219999999999998      46.929999999999993      57.759999999999998
   200   1       7.219999999999998      48.734999999999992      59.564999999999991
   201   1      9.0249999999999968      46.929999999999993      59.564999999999991
   202   1      9.0249999999999968      48.734999999999992      57.759999999999998
   203   1       7.219999999999998      46.929999999999993      61.370000000000005
   204   1       7.219999999999998      48.734999999999992      63.175000000000004
   205   1      9.0249999999999968      46.929999999999993      63.175000000000004
   206   1      9.0249999999999968      48.734999999999992      61.370000000000005
   207   1      9.0249999999999968      48.734999999999992       64.97999999999999
   208   1       7.219999999999998      52.344999999999992      37.904999999999994
   209   1      9.0249999999999968      50.539999999999999      37.904999999999994
   210   1      9.0249999999999968      52.344999999999992      36.100000000000001
   211   1       7.219999999999998      50.539999999999999      39.710000000000001
   212   1       7.219999999999998      52.344999999999992      41.515000000000001
   213   1      9.0249999999999968      50.539999999999999      41.515000000000001
   214   1      9.0249999999999968      52.344999999999992      39.710000000000001
   215   1       7.219999999999998      50.539999999999999      43.319999999999993
   216   1       7.219999999999998      52.344999999999992                  45.125
   217   1      9.0249999999999968      50.539999999999999                  45.125
   218   1      9.0249999999999968      52.344999999999992      43.319999999999993
   219   1       7.219999999999998      50.539999999999999      46.929999999999993
   220   1       7.219999999999998      52.344999999999992      48.734999999999992
   221   1      9.0249999999999968      50.539999999999999      48.734999999999992
   222   1      9.0249999999999968      52.344999999999992      46.929999999999993
   223   1       7.219999999999998      50.539999999999999      50.539999999999999
   224   1       7.219999999999998      52.344999999999992      52.344999999999992
   225   1      9.0249999999999968      50.539999999999999      52.344999999999992
   226   1      9.0249999999999968      52.344999999999992      50.539999999999999
   227   1       7.219999999999998      50.539999999999999      54.149999999999991
   228   1       7.219999999999998      52.344999999999992      55.954999999999998
   229   1      9.0249999999999968      50.539999999999999      55.954999999999998
   230   1      9.0249999999999968      52.344999999999992      54.149999999999991
   231   1       7.219999999999998      50.539999999999999      57.759999999999998
   232   1       7.219999999999998      52.344999999999992      59.564999999999991
   233   1      9.0249999999999968      50.539999999999999      59.564999999999991
   234   1      9.0249999999999968      52.344999999999992      57.759999999999998
   235   1       7.219999999999998      50.539999999999999      61.370000000000005
   236   1       7.219999999999998      52.344999999999992      63.175000000000004
   237   1      9.0249999999999968      50.539999999999999      63.175000000000004
   238   1      9.0249999999999968      52.344999999999992      61.370000000000005
   239   1      9.0249999999999968      52.344999999999992       64.97999999999999
   240   1      9.0249999999999968      54.149999999999991      37.904999999999994
   241   1       7.219999999999998      54.149999999999991      39.710000000000001
   242   1       7.219999999999998      55.954999999999998      41.515000000000001
   243   1      9.0249999999999968      54.149999999999991      41.515000000000001
   244   1      9.0249999999999968      55.954999999999998      39.710000000000001
   245   1       7.219999999999998      54.149999999999991      43.319999999999993
   246   1       7.219999999999998      55.954999999999998                  45.125
   247   1      9.0249999999999968      54.149999999999991                  45.125
   248   1      9.0249999999999968      55.954999999999998      43.319999999999993
   249   1       7.219999999999998      54.149999999999991      46.929999999999993
   250   1       7.219999999999998      55.954999999999998      48.734999999999992
   251   1      9.0249999999999968      54.149999999999991      48.734999999999992
   252   1      9.0249999999999968      55.954999999999998      46.929999999999993
   253   1       7.219999999999998      54.149999999999991      50.539999999999999
   254   1       7.219999999999998      55.954999999999998      52.344999999999992
   255   1      9.0249999999999968      54.149999999999991      52.344999999999992
   256   1      9.0249999999999968      55.954999999999998      50.539999999999999
   257   1       7.219999999999998      54.149999999999991      54.149999999999991
   258   1       7.219999999999998      55.954999999999998      55.954999999999998
   259   1      9.0249999999999968      54.149999999999991      55.954999999999998
   260   1      9.0249999999999968      55.954999999999998      54.149999999999991
   261   1       7.219999999999998      54.149999999999991      57.759999999999998
   262   1       7.219999999999998      55.954999999999998      59.564999999999991
   263   1      9.0249999999999968      54.149999999999991      59.564999999999991
   264   1      9.0249999999999968      55.954999999999998      57.759999999999998
   265   1       7.219999999999998      54.149999999999991      61.370000000000005
   266   1      9.0249999999999968      54.149999999999991      63.175000000000004
   267   1      9.0249999999999968      55.954999999999998      61.370000000000005
   268   1      9.0249999999999968      57.759999999999998      37.904999999999994
   269   1       7.219999999999998      57.759999999999998      39.710000000000001
   270   1       7.219999999999998      59.564999999999991      41.515000000000001
   271   1      9.0249999999999968      57.759999999999998      41.515000000000001
   272   1      9.0249999999999968      59.564999999999991      39.710000000000001
   273   1       7.219999999999998      57.759999999999998      43.319999999999993
   274   1       7.219999999999998      59.564999999999991                  45.125
   275   1      9.0249999999999968      57.759999999999998                  45.125
   276   1      9.0249999999999968      59.564999999999991      43.319999999999993
   277   1       7.219999999999998      57.759999999999998      46.929999999999993
   278   1       7.219999999999998      59.564999999999991      48.734999999999992
   279   1      9.0249999999999968      57.759999999999998      48.734999999999992
   280   1      9.0249999999999968      59.564999999999991      46.929999999999993
   281   1       7.219999999999998      57.759999999999998      50.539999999999999
   282   1       7.219999999999998      59.564999999999991      52.344999999999992
   283   1      9.0249999999999968      57.759999999999998      52.344999999999992
   284   1      9.0249999999999968      59.564999999999991      50.539999999999999
   285   1       7.219999999999998      57.759999999999998      54.149999999999991
   286   1       7.219999999999998      59.564999999999991      55.954999999999998
   287   1      9.0249999999999968      57.759999999999998      55.954999999999998
   288   1      9.0249999999999968      59.564999999999991      54.149999999999991
   289   1       7.219999999999998      57.759999999999998      57.759999999999998
   290   1       7.219999999999998      59.564999999999991      59.564999999999991
   291   1      9.0249999999999968      57.759999999999998      59.564999999999991
   292   1      9.0249999999999968      59.564999999999991      57.759999999999998
   293   1       7.219999999999998      57.759999999999998      61.370000000000005
   294   1      9.0249999999999968      57.759999999999998      63.175000000000004
   295   1      9.0249999999999968      59.564999999999991      61.370000000000005
   296   1      9.0249999999999968      61.370000000000005      41.515000000000001
   297   1       7.219999999999998      61.370000000000005      43.319999999999993
   298   1      9.0249999999999968      61.370000000000005                  45.125
   299   1      9.0249999999999968      63.175000000000004      43.319999999999993
   300   1       7.219999999999998      61.370000000000005      46.929999999999993
   301   1       7.219999999999998      63.175000000000004      48.734999999999992
   302   1      9.0249999999999968      61.370000000000005      48.734999999999992
   303   1      9.0249999999999968      63.175000000000004      46.929999999999993
   304   1       7.219999999999998      61.370000000000005      50.539999999999999
   305   1       7.219999999999998      63.175000000000004      52.344999999999992
   306   1      9.0249999999999968      61.370000000000005      52.344999999999992
   307   1      9.0249999999999968      63.175000000000004      50.539999999999999
   308   1       7.219999999999998      61.370000000000005      54.149999999999991
   309   1      9.0249999999999968      61.370000000000005      55.954999999999998
   310   1      9.0249999999999968      63.175000000000004      54.149999999999991
   311   1       7.219999999999998      61.370000000000005      57.759999999999998
   312   1      9.0249999999999968      61.370000000000005      59.564999999999991
   313   1      9.0249999999999968      63.175000000000004      57.759999999999998
   314   1      9.0249999999999968       64.97999999999999      48.734999999999992
   315   1      9.0249999999999968       64.97999999999999      52.344999999999992
   316   1      12.634999999999996      30.685000000000002      50.539999999999999
   317   1      12.634999999999996      34.295000000000002      39.710000000000001
   318   1      10.829999999999998      34.295000000000002                  45.125
   319   1      12.634999999999996      32.489999999999995                  45.125
   320   1      12.634999999999996      34.295000000000002      43.319999999999993
   321   1      10.829999999999998      34.295000000000002      48.734999999999992
   322   1      12.634999999999996      32.489999999999995      48.734999999999992
   323   1      12.634999999999996      34.295000000000002      46.929999999999993
   324   1      10.829999999999998      32.489999999999995      50.539999999999999
   325   1      10.829999999999998      34.295000000000002      52.344999999999992
   326   1      12.634999999999996      32.489999999999995      52.344999999999992
   327   1      12.634999999999996      34.295000000000002      50.539999999999999
   328   1      10.829999999999998      34.295000000000002      55.954999999999998
   329   1      12.634999999999996      32.489999999999995      55.954999999999998
   330   1      12.634999999999996      34.295000000000002      54.149999999999991
   331   1      12.634999999999996      34.295000000000002      57.759999999999998
   332   1      12.634999999999996      34.295000000000002      61.370000000000005
   333   1      10.829999999999998      37.904999999999994      37.904999999999994
   334   1      12.634999999999996      36.100000000000001      37.904999999999994
   335   1      12.634999999999996      37.904999999999994      36.100000000000001
   336   1      10.829999999999998      36.100000000000001      39.710000000000001
   337   1      10.829999999999998      37.904999999999994      41.515000000000001
   338   1      12.634999999999996      36.100000000000001      41.515000000000001
   339   1      12.634999999999996      37.904999999999994      39.710000000000001
   340   1      10.829999999999998      36.100000000000001      43.319999999999993
   341   1      10.829999999999998      37.904999999999994                  45.125
   342   1      12.634999999999996      36.100000000000001                  45.125
   343   1      12.634999999999996      37.904999999999994      43.319999999999993
   344   1      10.829999999999998      36.100000000000001      46.929999999999993
   345   1      10.829999999999998      37.904999999999994      48.734999999999992
   346   1      12.634999999999996      36.100000000000001      48.734999999999992
   347   1      12.634999999999996      37.904999999999994      46.929999999999993
   348   1      10.829999999999998      36.100000000000001      50.539999999999999
   349   1      10.829999999999998      37.904999999999994      52.344999999999992
   350   1      12.634999999999996      36.100000000000001      52.344999999999992
   351   1      12.634999999999996      37.904999999999994      50.539999999999999
   352   1      10.829999999999998      36.100000000000001      54.149999999999991
   353   1      10.829999999999998      37.904999999999994      55.954999999999998
   354   1      12.634999999999996      36.100000000000001      55.954999999999998
   355   1      12.634999999999996      37.904999999999994      54.149999999999991
   356   1      10.829999999999998      36.100000000000001      57.759999999999998
   357   1      10.829999999999998      37.904999999999994      59.564999999999991
   358   1      12.634999999999996      36.100000000000001      59.564999999999991