model_files/PtAu/PtAu_30000/PtAu_322/PtAu_322_fcc_30187_temp.data (written by ASE) 

30187 	 atoms 
2  atom types
0.0                     123  xlo xhi
0.0                     123  ylo yhi
0.0                     123  zlo zhi


Atoms 

     1   1      2.0214999999999961      58.623500000000007      60.644999999999996
     2   1      2.0214999999999961      60.644999999999996      58.623500000000007
     3   1      122.99999999999999      60.644999999999996      60.644999999999996
     4   1      2.0214999999999961      60.644999999999996      62.666500000000013
     5   1      2.0214999999999961      62.666500000000013      60.644999999999996
     6   1      6.0644999999999962      50.537500000000009      60.644999999999996
     7   1      4.0429999999999922      54.580500000000008      58.623500000000007
     8   1      6.0644999999999962      52.559000000000005      58.623500000000007
     9   1      6.0644999999999962      54.580500000000008      56.601999999999997
    10   1      4.0429999999999922      52.559000000000005      60.644999999999996
    11   1      4.0429999999999922      54.580500000000008      62.666500000000013
    12   1      6.0644999999999962      52.559000000000005      62.666500000000013
    13   1      6.0644999999999962      54.580500000000008      60.644999999999996
    14   1      6.0644999999999962      54.580500000000008      64.688000000000017
    15   1      4.0429999999999922      58.623500000000007      54.580500000000008
    16   1      6.0644999999999962      56.601999999999997      54.580500000000008
    17   1      6.0644999999999962      58.623500000000007      52.559000000000005
    18   1      4.0429999999999922      56.601999999999997      56.601999999999997
    19   1      4.0429999999999922      58.623500000000007      58.623500000000007
    20   1      6.0644999999999962      56.601999999999997      58.623500000000007
    21   1      6.0644999999999962      58.623500000000007      56.601999999999997
    22   1      4.0429999999999922      56.601999999999997      60.644999999999996
    23   1      4.0429999999999922      58.623500000000007      62.666500000000013
    24   1      6.0644999999999962      56.601999999999997      62.666500000000013
    25   1      6.0644999999999962      58.623500000000007      60.644999999999996
    26   1      4.0429999999999922      56.601999999999997      64.688000000000017
    27   1      4.0429999999999922      58.623500000000007      66.709500000000006
    28   1      6.0644999999999962      56.601999999999997      66.709500000000006
    29   1      6.0644999999999962      58.623500000000007      64.688000000000017
    30   1      6.0644999999999962      58.623500000000007      68.730999999999995
    31   1      6.0644999999999962      60.644999999999996      50.537500000000009
    32   1      4.0429999999999922      60.644999999999996      52.559000000000005
    33   1      4.0429999999999922      62.666500000000013      54.580500000000008
    34   1      6.0644999999999962      60.644999999999996      54.580500000000008
    35   1      6.0644999999999962      62.666500000000013      52.559000000000005
    36   1      4.0429999999999922      60.644999999999996      56.601999999999997
    37   1      4.0429999999999922      62.666500000000013      58.623500000000007
    38   1      6.0644999999999962      60.644999999999996      58.623500000000007
    39   1      6.0644999999999962      62.666500000000013      56.601999999999997
    40   1      4.0429999999999922      60.644999999999996      60.644999999999996
    41   1      4.0429999999999922      62.666500000000013      62.666500000000013
    42   1      6.0644999999999962      60.644999999999996      62.666500000000013
    43   1      6.0644999999999962      62.666500000000013      60.644999999999996
    44   1      4.0429999999999922      60.644999999999996      64.688000000000017
    45   1      4.0429999999999922      62.666500000000013      66.709500000000006
    46   1      6.0644999999999962      60.644999999999996      66.709500000000006
    47   1      6.0644999999999962      62.666500000000013      64.688000000000017
    48   1      4.0429999999999922      60.644999999999996      68.730999999999995
    49   1      6.0644999999999962      60.644999999999996      70.752500000000012
    50   1      6.0644999999999962      62.666500000000013      68.730999999999995
    51   1      6.0644999999999962      64.688000000000017      54.580500000000008
    52   1      4.0429999999999922      64.688000000000017      56.601999999999997
    53   1      4.0429999999999922      66.709500000000006      58.623500000000007
    54   1      6.0644999999999962      64.688000000000017      58.623500000000007
    55   1      6.0644999999999962      66.709500000000006      56.601999999999997
    56   1      4.0429999999999922      64.688000000000017      60.644999999999996
    57   1      4.0429999999999922      66.709500000000006      62.666500000000013
    58   1      6.0644999999999962      64.688000000000017      62.666500000000013
    59   1      6.0644999999999962      66.709500000000006      60.644999999999996
    60   1      4.0429999999999922      64.688000000000017      64.688000000000017
    61   1      6.0644999999999962      64.688000000000017      66.709500000000006
    62   1      6.0644999999999962      66.709500000000006      64.688000000000017
    63   1      6.0644999999999962      68.730999999999995      58.623500000000007
    64   1      4.0429999999999922      68.730999999999995      60.644999999999996
    65   1      6.0644999999999962      68.730999999999995      62.666500000000013
    66   1      6.0644999999999962      70.752500000000012      60.644999999999996
    67   1      10.107499999999996      46.494500000000009      60.644999999999996
    68   1      8.0860000000000003      50.537500000000009      58.623500000000007
    69   1      10.107499999999996      48.516000000000005      58.623500000000007
    70   1      10.107499999999996      50.537500000000009      56.601999999999997
    71   1      8.0860000000000003      48.516000000000005      60.644999999999996
    72   1      8.0860000000000003      50.537500000000009      62.666500000000013
    73   1      10.107499999999996      48.516000000000005      62.666500000000013
    74   1      10.107499999999996      50.537500000000009      60.644999999999996
    75   1      10.107499999999996      50.537500000000009      64.688000000000017
    76   1      8.0860000000000003      54.580500000000008      54.580500000000008
    77   1      10.107499999999996      52.559000000000005      54.580500000000008
    78   1      10.107499999999996      54.580500000000008      52.559000000000005
    79   1      8.0860000000000003      52.559000000000005      56.601999999999997
    80   1      8.0860000000000003      54.580500000000008      58.623500000000007
    81   1      10.107499999999996      52.559000000000005      58.623500000000007
    82   1      10.107499999999996      54.580500000000008      56.601999999999997
    83   1      8.0860000000000003      52.559000000000005      60.644999999999996
    84   1      8.0860000000000003      54.580500000000008      62.666500000000013
    85   1      10.107499999999996      52.559000000000005      62.666500000000013
    86   1      10.107499999999996      54.580500000000008      60.644999999999996
    87   1      8.0860000000000003      52.559000000000005      64.688000000000017
    88   1      8.0860000000000003      54.580500000000008      66.709500000000006
    89   1      10.107499999999996      52.559000000000005      66.709500000000006
    90   1      10.107499999999996      54.580500000000008      64.688000000000017
    91   1      10.107499999999996      54.580500000000008      68.730999999999995
    92   1      8.0860000000000003      58.623500000000007      50.537500000000009
    93   1      10.107499999999996      56.601999999999997      50.537500000000009
    94   1      10.107499999999996      58.623500000000007      48.516000000000005
    95   1      8.0860000000000003      56.601999999999997      52.559000000000005
    96   1      8.0860000000000003      58.623500000000007      54.580500000000008
    97   1      10.107499999999996      56.601999999999997      54.580500000000008
    98   1      10.107499999999996      58.623500000000007      52.559000000000005
    99   1      8.0860000000000003      56.601999999999997      56.601999999999997
   100   1      8.0860000000000003      58.623500000000007      58.623500000000007
   101   1      10.107499999999996      56.601999999999997      58.623500000000007
   102   1      10.107499999999996      58.623500000000007      56.601999999999997
   103   1      8.0860000000000003      56.601999999999997      60.644999999999996
   104   1      8.0860000000000003      58.623500000000007      62.666500000000013
   105   1      10.107499999999996      56.601999999999997      62.666500000000013
   106   1      10.107499999999996      58.623500000000007      60.644999999999996
   107   1      8.0860000000000003      56.601999999999997      64.688000000000017
   108   1      8.0860000000000003      58.623500000000007      66.709500000000006
   109   1      10.107499999999996      56.601999999999997      66.709500000000006
   110   1      10.107499999999996      58.623500000000007      64.688000000000017
   111   1      8.0860000000000003      56.601999999999997      68.730999999999995
   112   1      8.0860000000000003      58.623500000000007      70.752500000000012
   113   1      10.107499999999996      56.601999999999997      70.752500000000012
   114   1      10.107499999999996      58.623500000000007      68.730999999999995
   115   1      10.107499999999996      58.623500000000007      72.774000000000015
   116   1      10.107499999999996      60.644999999999996      46.494500000000009
   117   1      8.0860000000000003      60.644999999999996      48.516000000000005
   118   1      8.0860000000000003      62.666500000000013      50.537500000000009
   119   1      10.107499999999996      60.644999999999996      50.537500000000009
   120   1      10.107499999999996      62.666500000000013      48.516000000000005
   121   1      8.0860000000000003      60.644999999999996      52.559000000000005
   122   1      8.0860000000000003      62.666500000000013      54.580500000000008
   123   1      10.107499999999996      60.644999999999996      54.580500000000008
   124   1      10.107499999999996      62.666500000000013      52.559000000000005
   125   1      8.0860000000000003      60.644999999999996      56.601999999999997
   126   1      8.0860000000000003      62.666500000000013      58.623500000000007
   127   1      10.107499999999996      60.644999999999996      58.623500000000007
   128   1      10.107499999999996      62.666500000000013      56.601999999999997
   129   1      8.0860000000000003      60.644999999999996      60.644999999999996
   130   1      8.0860000000000003      62.666500000000013      62.666500000000013
   131   1      10.107499999999996      60.644999999999996      62.666500000000013
   132   1      10.107499999999996      62.666500000000013      60.644999999999996
   133   1      8.0860000000000003      60.644999999999996      64.688000000000017
   134   1      8.0860000000000003      62.666500000000013      66.709500000000006
   135   1      10.107499999999996      60.644999999999996      66.709500000000006
   136   1      10.107499999999996      62.666500000000013      64.688000000000017
   137   1      8.0860000000000003      60.644999999999996      68.730999999999995
   138   1      8.0860000000000003      62.666500000000013      70.752500000000012
   139   1      10.107499999999996      60.644999999999996      70.752500000000012
   140   1      10.107499999999996      62.666500000000013      68.730999999999995
   141   1      8.0860000000000003      60.644999999999996      72.774000000000015
   142   1      10.107499999999996      60.644999999999996      74.795500000000004
   143   1      10.107499999999996      62.666500000000013      72.774000000000015
   144   1      10.107499999999996      64.688000000000017      50.537500000000009
   145   1      8.0860000000000003      64.688000000000017      52.559000000000005
   146   1      8.0860000000000003      66.709500000000006      54.580500000000008
   147   1      10.107499999999996      64.688000000000017      54.580500000000008
   148   1      10.107499999999996      66.709500000000006      52.559000000000005
   149   1      8.0860000000000003      64.688000000000017      56.601999999999997
   150   1      8.0860000000000003      66.709500000000006      58.623500000000007
   151   1      10.107499999999996      64.688000000000017      58.623500000000007
   152   1      10.107499999999996      66.709500000000006      56.601999999999997
   153   1      8.0860000000000003      64.688000000000017      60.644999999999996
   154   1      8.0860000000000003      66.709500000000006      62.666500000000013
   155   1      10.107499999999996      64.688000000000017      62.666500000000013
   156   1      10.107499999999996      66.709500000000006      60.644999999999996
   157   1      8.0860000000000003      64.688000000000017      64.688000000000017
   158   1      8.0860000000000003      66.709500000000006      66.709500000000006
   159   1      10.107499999999996      64.688000000000017      66.709500000000006
   160   1      10.107499999999996      66.709500000000006      64.688000000000017
   161   1      8.0860000000000003      64.688000000000017      68.730999999999995
   162   1      10.107499999999996      64.688000000000017      70.752500000000012
   163   1      10.107499999999996      66.709500000000006      68.730999999999995
   164   1      10.107499999999996      68.730999999999995      54.580500000000008
   165   1      8.0860000000000003      68.730999999999995      56.601999999999997
   166   1      8.0860000000000003      70.752500000000012      58.623500000000007
   167   1      10.107499999999996      68.730999999999995      58.623500000000007
   168   1      10.107499999999996      70.752500000000012      56.601999999999997
   169   1      8.0860000000000003      68.730999999999995      60.644999999999996
   170   1      8.0860000000000003      70.752500000000012      62.666500000000013
   171   1      10.107499999999996      68.730999999999995      62.666500000000013
   172   1      10.107499999999996      70.752500000000012      60.644999999999996
   173   1      8.0860000000000003      68.730999999999995      64.688000000000017
   174   1      10.107499999999996      68.730999999999995      66.709500000000006
   175   1      10.107499999999996      70.752500000000012      64.688000000000017
   176   1      10.107499999999996      72.774000000000015      58.623500000000007
   177   1      8.0860000000000003      72.774000000000015      60.644999999999996
   178   1      10.107499999999996      72.774000000000015      62.666500000000013
   179   1      10.107499999999996      74.795500000000004      60.644999999999996
   180   1      14.150499999999996      38.408499999999997      60.644999999999996
   181   1      12.128999999999992      42.451500000000003      58.623500000000007
   182   1      14.150499999999996                   40.43      58.623500000000007
   183   1      14.150499999999996      42.451500000000003      56.601999999999997
   184   1      12.128999999999992                   40.43      60.644999999999996
   185   1      12.128999999999992      42.451500000000003      62.666500000000013
   186   1      14.150499999999996                   40.43      62.666500000000013
   187   1      14.150499999999996      42.451500000000003      60.644999999999996
   188   1      14.150499999999996      42.451500000000003      64.688000000000017
   189   1      12.128999999999992      46.494500000000009      54.580500000000008
   190   1      14.150499999999996      44.473000000000006      54.580500000000008
   191   1      14.150499999999996      46.494500000000009      52.559000000000005
   192   1      12.128999999999992      44.473000000000006      56.601999999999997
   193   1      12.128999999999992      46.494500000000009      58.623500000000007
   194   1      14.150499999999996      44.473000000000006      58.623500000000007
   195   1      14.150499999999996      46.494500000000009      56.601999999999997
   196   1      12.128999999999992      44.473000000000006      60.644999999999996
   197   1      12.128999999999992      46.494500000000009      62.666500000000013
   198   1      14.150499999999996      44.473000000000006      62.666500000000013
   199   1      14.150499999999996      46.494500000000009      60.644999999999996
   200   1      12.128999999999992      44.473000000000006      64.688000000000017
   201   1      12.128999999999992      46.494500000000009      66.709500000000006
   202   1      14.150499999999996      44.473000000000006      66.709500000000006
   203   1      14.150499999999996      46.494500000000009      64.688000000000017
   204   1      14.150499999999996      46.494500000000009      68.730999999999995
   205   1      12.128999999999992      50.537500000000009      50.537500000000009
   206   1      14.150499999999996      48.516000000000005      50.537500000000009
   207   1      14.150499999999996      50.537500000000009      48.516000000000005
   208   1      12.128999999999992      48.516000000000005      52.559000000000005
   209   1      12.128999999999992      50.537500000000009      54.580500000000008
   210   1      14.150499999999996      48.516000000000005      54.580500000000008
   211   1      14.150499999999996      50.537500000000009      52.559000000000005
   212   1      12.128999999999992      48.516000000000005      56.601999999999997
   213   1      12.128999999999992      50.537500000000009      58.623500000000007
   214   1      14.150499999999996      48.516000000000005      58.623500000000007
   215   1      14.150499999999996      50.537500000000009      56.601999999999997
   216   1      12.128999999999992      48.516000000000005      60.644999999999996
   217   1      12.128999999999992      50.537500000000009      62.666500000000013
   218   1      14.150499999999996      48.516000000000005      62.666500000000013
   219   1      14.150499999999996      50.537500000000009      60.644999999999996
   220   1      12.128999999999992      48.516000000000005      64.688000000000017
   221   1      12.128999999999992      50.537500000000009      66.709500000000006
   222   1      14.150499999999996      48.516000000000005      66.709500000000006
   223   1      14.150499999999996      50.537500000000009      64.688000000000017
   224   1      12.128999999999992      48.516000000000005      68.730999999999995
   225   1      12.128999999999992      50.537500000000009      70.752500000000012
   226   1      14.150499999999996      48.516000000000005      70.752500000000012
   227   1      14.150499999999996      50.537500000000009      68.730999999999995
   228   1      14.150499999999996      50.537500000000009      72.774000000000015
   229   1      12.128999999999992      54.580500000000008      46.494500000000009
   230   1      14.150499999999996      52.559000000000005      46.494500000000009
   231   1      14.150499999999996      54.580500000000008      44.473000000000006
   232   1      12.128999999999992      52.559000000000005      48.516000000000005
   233   1      12.128999999999992      54.580500000000008      50.537500000000009
   234   1      14.150499999999996      52.559000000000005      50.537500000000009
   235   1      14.150499999999996      54.580500000000008      48.516000000000005
   236   1      12.128999999999992      52.559000000000005      52.559000000000005
   237   1      12.128999999999992      54.580500000000008      54.580500000000008
   238   1      14.150499999999996      52.559000000000005      54.580500000000008
   239   1      14.150499999999996      54.580500000000008      52.559000000000005
   240   1      12.128999999999992      52.559000000000005      56.601999999999997
   241   1      12.128999999999992      54.580500000000008      58.623500000000007
   242   1      14.150499999999996      52.559000000000005      58.623500000000007
   243   1      14.150499999999996      54.580500000000008      56.601999999999997
   244   1      12.128999999999992      52.559000000000005      60.644999999999996
   245   1      12.128999999999992      54.580500000000008      62.666500000000013
   246   1      14.150499999999996      52.559000000000005      62.666500000000013
   247   1      14.150499999999996      54.580500000000008      60.644999999999996
   248   1      12.128999999999992      52.559000000000005      64.688000000000017
   249   1      12.128999999999992      54.580500000000008      66.709500000000006
   250   1      14.150499999999996      52.559000000000005      66.709500000000006
   251   1      14.150499999999996      54.580500000000008      64.688000000000017
   252   1      12.128999999999992      52.559000000000005      68.730999999999995
   253   1      12.128999999999992      54.580500000000008      70.752500000000012
   254   1      14.150499999999996      52.559000000000005      70.752500000000012
   255   1      14.150499999999996      54.580500000000008      68.730999999999995
   256   1      12.128999999999992      52.559000000000005      72.774000000000015
   257   1      12.128999999999992      54.580500000000008      74.795500000000004
   258   1      14.150499999999996      52.559000000000005      74.795500000000004
   259   1      14.150499999999996      54.580500000000008      72.774000000000015
   260   1      14.150499999999996      54.580500000000008      76.816999999999993
   261   1      12.128999999999992      58.623500000000007      42.451500000000003
   262   1      14.150499999999996      56.601999999999997      42.451500000000003
   263   1      14.150499999999996      58.623500000000007                   40.43
   264   1      12.128999999999992      56.601999999999997      44.473000000000006
   265   1      12.128999999999992      58.623500000000007      46.494500000000009
   266   1      14.150499999999996      56.601999999999997      46.494500000000009
   267   1      14.150499999999996      58.623500000000007      44.473000000000006
   268   1      12.128999999999992      56.601999999999997      48.516000000000005
   269   1      12.128999999999992      58.623500000000007      50.537500000000009
   270   1      14.150499999999996      56.601999999999997      50.537500000000009
   271   1      14.150499999999996      58.623500000000007      48.516000000000005
   272   1      12.128999999999992      56.601999999999997      52.559000000000005
   273   1      12.128999999999992      58.623500000000007      54.580500000000008
   274   1      14.150499999999996      56.601999999999997      54.580500000000008
   275   1      14.150499999999996      58.623500000000007      52.559000000000005
   276   1      12.128999999999992      56.601999999999997      56.601999999999997
   277   1      12.128999999999992      58.623500000000007      58.623500000000007
   278   1      14.150499999999996      56.601999999999997      58.623500000000007
   279   1      14.150499999999996      58.623500000000007      56.601999999999997
   280   1      12.128999999999992      56.601999999999997      60.644999999999996
   281   1      12.128999999999992      58.623500000000007      62.666500000000013
   282   1      14.150499999999996      56.601999999999997      62.666500000000013
   283   1      14.150499999999996      58.623500000000007      60.644999999999996
   284   1      12.128999999999992      56.601999999999997      64.688000000000017
   285   1      12.128999999999992      58.623500000000007      66.709500000000006
   286   1      14.150499999999996      56.601999999999997      66.709500000000006
   287   1      14.150499999999996      58.623500000000007      64.688000000000017
   288   1      12.128999999999992      56.601999999999997      68.730999999999995
   289   1      12.128999999999992      58.623500000000007      70.752500000000012
   290   1      14.150499999999996      56.601999999999997      70.752500000000012
   291   1      14.150499999999996      58.623500000000007      68.730999999999995
   292   1      12.128999999999992      56.601999999999997      72.774000000000015
   293   1      12.128999999999992      58.623500000000007      74.795500000000004
   294   1      14.150499999999996      56.601999999999997      74.795500000000004
   295   1      14.150499999999996      58.623500000000007      72.774000000000015
   296   1      12.128999999999992      56.601999999999997      76.816999999999993
   297   1      12.128999999999992      58.623500000000007       78.83850000000001
   298   1      14.150499999999996      56.601999999999997       78.83850000000001
   299   1      14.150499999999996      58.623500000000007      76.816999999999993
   300   1      14.150499999999996      58.623500000000007      80.860000000000014
   301   1      14.150499999999996      60.644999999999996      38.408499999999997
   302   1      12.128999999999992      60.644999999999996                   40.43
   303   1      12.128999999999992      62.666500000000013      42.451500000000003
   304   1      14.150499999999996      60.644999999999996      42.451500000000003
   305   1      14.150499999999996      62.666500000000013                   40.43
   306   1      12.128999999999992      60.644999999999996      44.473000000000006
   307   1      12.128999999999992      62.666500000000013      46.494500000000009
   308   1      14.150499999999996      60.644999999999996      46.494500000000009
   309   1      14.150499999999996      62.666500000000013      44.473000000000006
   310   1      12.128999999999992      60.644999999999996      48.516000000000005
   311   1      12.128999999999992      62.666500000000013      50.537500000000009
   312   1      14.150499999999996      60.644999999999996      50.537500000000009
   313   1      14.150499999999996      62.666500000000013      48.516000000000005
   314   1      12.128999999999992      60.644999999999996      52.559000000000005
   315   1      12.128999999999992      62.666500000000013      54.580500000000008
   316   1      14.150499999999996      60.644999999999996      54.580500000000008
   317   1      14.150499999999996      62.666500000000013      52.559000000000005
   318   1      12.128999999999992      60.644999999999996      56.601999999999997
   319   1      12.128999999999992      62.666500000000013      58.623500000000007
   320   1      14.150499999999996      60.644999999999996      58.623500000000007
   321   1      14.150499999999996      62.666500000000013      56.601999999999997
   322   1      12.128999999999992      60.644999999999996      60.644999999999996
   323   1      12.128999999999992      62.666500000000013      62.666500000000013
   324   1      14.150499999999996      60.644999999999996      62.666500000000013
   325   1      14.150499999999996      62.666500000000013      60.644999999999996
   326   1      12.128999999999992      60.644999999999996      64.688000000000017
   327   1      12.128999999999992      62.666500000000013      66.709500000000006
   328   1      14.150499999999996      60.644999999999996      66.709500000000006
   329   1      14.150499999999996      62.666500000000013      64.688000000000017
   330   1      12.128999999999992      60.644999999999996      68.730999999999995
   331   1      12.128999999999992      62.666500000000013      70.752500000000012
   332   1      14.150499999999996      60.644999999999996      70.752500000000012
   333   1      14.150499999999996      62.666500000000013      68.730999999999995
   334   1      12.128999999999992      60.644999999999996      72.774000000000015
   335   1      12.128999999999992      62.666500000000013      74.795500000000004
   336   1      14.150499999999996      60.644999999999996      74.795500000000004
   337   1      14.150499999999996      62.666500000000013      72.774000000000015
   338   1      12.128999999999992      60.644999999999996      76.816999999999993
   339   1      12.128999999999992      62.666500000000013       78.83850000000001
   340   1      14.150499999999996      60.644999999999996       78.83850000000001
   341   1      14.150499999999996      62.666500000000013      76.816999999999993
   342   1      12.128999999999992      60.644999999999996      80.860000000000014
   343   1      14.150499999999996      60.644999999999996      82.881500000000003
   344   1      14.150499999999996      62.666500000000013      80.860000000000014
   345   1      14.150499999999996      64.688000000000017      42.451500000000003
   346   1      12.128999999999992      64.688000000000017      44.473000000000006
   347   1      12.128999999999992      66.709500000000006      46.494500000000009
   348   1      14.150499999999996      64.688000000000017      46.494500000000009
   349   1      14.150499999999996      66.709500000000006      44.473000000000006
   350   1      12.128999999999992      64.688000000000017      48.516000000000005
   351   1      12.128999999999992      66.709500000000006      50.537500000000009
   352   1      14.150499999999996      64.688000000000017      50.537500000000009
   353   1      14.150499999999996      66.709500000000006      48.516000000000005
   354   1      12.128999999999992      64.688000000000017      52.559000000000005
   355   1      12.128999999999992      66.709500000000006      54.580500000000008
   356   1      14.150499999999996      64.688000000000017      54.580500000000008
   357   1      14.150499999999996      66.709500000000006      52.559000000000005
   358   1      12.128999999999992      64.688000000000017      56.601999999999997