model_files/Pt/Pt_3000/Pt_532/data.Pt_532_fcc_2965 (written by ASE) 

2965 	 atoms 
1  atom types
0.0                      49  xlo xhi
0.0                      49  ylo yhi
0.0                      49  zlo zhi


Atoms 

     1   1      1.9600000000000042      17.640000000000008      23.520000000000003
     2   1  7.1054273576010011e-15      21.560000000000002      21.560000000000002
     3   1      1.9600000000000042      19.600000000000005      21.560000000000002
     4   1      1.9600000000000042      21.560000000000002      19.600000000000005
     5   1  7.1054273576010011e-15      19.600000000000005      23.520000000000003
     6   1  7.1054273576010011e-15      21.560000000000002                   25.48
     7   1      1.9600000000000042      19.600000000000005                   25.48
     8   1      1.9600000000000042      21.560000000000002      23.520000000000003
     9   1      1.9600000000000042      21.560000000000002      27.440000000000001
    10   1      1.9600000000000042      23.520000000000003      17.640000000000008
    11   1  7.1054273576010011e-15      23.520000000000003      19.600000000000005
    12   1  7.1054273576010011e-15                   25.48      21.560000000000002
    13   1      1.9600000000000042      23.520000000000003      21.560000000000002
    14   1      1.9600000000000042                   25.48      19.600000000000005
    15   1  7.1054273576010011e-15      23.520000000000003      23.520000000000003
    16   1  7.1054273576010011e-15                   25.48                   25.48
    17   1      1.9600000000000042      23.520000000000003                   25.48
    18   1      1.9600000000000042                   25.48      23.520000000000003
    19   1  7.1054273576010011e-15      23.520000000000003      27.440000000000001
    20   1      1.9600000000000042      23.520000000000003      29.400000000000006
    21   1      1.9600000000000042                   25.48      27.440000000000001
    22   1      1.9600000000000042      27.440000000000001      21.560000000000002
    23   1  7.1054273576010011e-15      27.440000000000001      23.520000000000003
    24   1      1.9600000000000042      27.440000000000001                   25.48
    25   1      1.9600000000000042      29.400000000000006      23.520000000000003
    26   1      5.8800000000000061      9.8000000000000025      23.520000000000003
    27   1      5.8800000000000061      11.760000000000003      21.560000000000002
    28   1      5.8800000000000061      13.720000000000004      19.600000000000005
    29   1      5.8800000000000061      11.760000000000003                   25.48
    30   1      5.8800000000000061      13.720000000000004      23.520000000000003
    31   1      5.8800000000000061      13.720000000000004      27.440000000000001
    32   1      3.9200000000000048      17.640000000000008      17.640000000000008
    33   1      5.8800000000000061      15.680000000000005      17.640000000000008
    34   1      5.8800000000000061      17.640000000000008      15.680000000000005
    35   1      3.9200000000000048      15.680000000000005      19.600000000000005
    36   1      3.9200000000000048      17.640000000000008      21.560000000000002
    37   1      5.8800000000000061      15.680000000000005      21.560000000000002
    38   1      5.8800000000000061      17.640000000000008      19.600000000000005
    39   1      3.9200000000000048      15.680000000000005      23.520000000000003
    40   1      3.9200000000000048      17.640000000000008                   25.48
    41   1      5.8800000000000061      15.680000000000005                   25.48
    42   1      5.8800000000000061      17.640000000000008      23.520000000000003
    43   1      3.9200000000000048      15.680000000000005      27.440000000000001
    44   1      3.9200000000000048      17.640000000000008      29.400000000000006
    45   1      5.8800000000000061      15.680000000000005      29.400000000000006
    46   1      5.8800000000000061      17.640000000000008      27.440000000000001
    47   1      5.8800000000000061      17.640000000000008      31.360000000000007
    48   1      5.8800000000000061      19.600000000000005      13.720000000000004
    49   1      5.8800000000000061      21.560000000000002      11.760000000000003
    50   1      3.9200000000000048      19.600000000000005      15.680000000000005
    51   1      3.9200000000000048      21.560000000000002      17.640000000000008
    52   1      5.8800000000000061      19.600000000000005      17.640000000000008
    53   1      5.8800000000000061      21.560000000000002      15.680000000000005
    54   1      3.9200000000000048      19.600000000000005      19.600000000000005
    55   1      3.9200000000000048      21.560000000000002      21.560000000000002
    56   1      5.8800000000000061      19.600000000000005      21.560000000000002
    57   1      5.8800000000000061      21.560000000000002      19.600000000000005
    58   1      3.9200000000000048      19.600000000000005      23.520000000000003
    59   1      3.9200000000000048      21.560000000000002                   25.48
    60   1      5.8800000000000061      19.600000000000005                   25.48
    61   1      5.8800000000000061      21.560000000000002      23.520000000000003
    62   1      3.9200000000000048      19.600000000000005      27.440000000000001
    63   1      3.9200000000000048      21.560000000000002      29.400000000000006
    64   1      5.8800000000000061      19.600000000000005      29.400000000000006
    65   1      5.8800000000000061      21.560000000000002      27.440000000000001
    66   1      3.9200000000000048      19.600000000000005      31.360000000000007
    67   1      5.8800000000000061      19.600000000000005                   33.32
    68   1      5.8800000000000061      21.560000000000002      31.360000000000007
    69   1      5.8800000000000061      21.560000000000002      35.280000000000001
    70   1      5.8800000000000061      23.520000000000003      9.8000000000000025
    71   1      5.8800000000000061      23.520000000000003      13.720000000000004
    72   1      5.8800000000000061                   25.48      11.760000000000003
    73   1      3.9200000000000048      23.520000000000003      15.680000000000005
    74   1      3.9200000000000048                   25.48      17.640000000000008
    75   1      5.8800000000000061      23.520000000000003      17.640000000000008
    76   1      5.8800000000000061                   25.48      15.680000000000005
    77   1      3.9200000000000048      23.520000000000003      19.600000000000005
    78   1      3.9200000000000048                   25.48      21.560000000000002
    79   1      5.8800000000000061      23.520000000000003      21.560000000000002
    80   1      5.8800000000000061                   25.48      19.600000000000005
    81   1      3.9200000000000048      23.520000000000003      23.520000000000003
    82   1      3.9200000000000048                   25.48                   25.48
    83   1      5.8800000000000061      23.520000000000003                   25.48
    84   1      5.8800000000000061                   25.48      23.520000000000003
    85   1      3.9200000000000048      23.520000000000003      27.440000000000001
    86   1      3.9200000000000048                   25.48      29.400000000000006
    87   1      5.8800000000000061      23.520000000000003      29.400000000000006
    88   1      5.8800000000000061                   25.48      27.440000000000001
    89   1      3.9200000000000048      23.520000000000003      31.360000000000007
    90   1      5.8800000000000061      23.520000000000003                   33.32
    91   1      5.8800000000000061                   25.48      31.360000000000007
    92   1      5.8800000000000061      23.520000000000003      37.240000000000009
    93   1      5.8800000000000061                   25.48      35.280000000000001
    94   1      5.8800000000000061      27.440000000000001      13.720000000000004
    95   1      3.9200000000000048      27.440000000000001      15.680000000000005
    96   1      3.9200000000000048      29.400000000000006      17.640000000000008
    97   1      5.8800000000000061      27.440000000000001      17.640000000000008
    98   1      5.8800000000000061      29.400000000000006      15.680000000000005
    99   1      3.9200000000000048      27.440000000000001      19.600000000000005
   100   1      3.9200000000000048      29.400000000000006      21.560000000000002
   101   1      5.8800000000000061      27.440000000000001      21.560000000000002
   102   1      5.8800000000000061      29.400000000000006      19.600000000000005
   103   1      3.9200000000000048      27.440000000000001      23.520000000000003
   104   1      3.9200000000000048      29.400000000000006                   25.48
   105   1      5.8800000000000061      27.440000000000001                   25.48
   106   1      5.8800000000000061      29.400000000000006      23.520000000000003
   107   1      3.9200000000000048      27.440000000000001      27.440000000000001
   108   1      3.9200000000000048      29.400000000000006      29.400000000000006
   109   1      5.8800000000000061      27.440000000000001      29.400000000000006
   110   1      5.8800000000000061      29.400000000000006      27.440000000000001
   111   1      3.9200000000000048      27.440000000000001      31.360000000000007
   112   1      5.8800000000000061      27.440000000000001                   33.32
   113   1      5.8800000000000061      29.400000000000006      31.360000000000007
   114   1      5.8800000000000061      31.360000000000007      17.640000000000008
   115   1      3.9200000000000048      31.360000000000007      19.600000000000005
   116   1      5.8800000000000061      31.360000000000007      21.560000000000002
   117   1      5.8800000000000061                   33.32      19.600000000000005
   118   1      3.9200000000000048      31.360000000000007      23.520000000000003
   119   1      5.8800000000000061      31.360000000000007                   25.48
   120   1      5.8800000000000061                   33.32      23.520000000000003
   121   1      3.9200000000000048      31.360000000000007      27.440000000000001
   122   1      5.8800000000000061      31.360000000000007      29.400000000000006
   123   1      5.8800000000000061                   33.32      27.440000000000001
   124   1      5.8800000000000061      35.280000000000001      21.560000000000002
   125   1      5.8800000000000061      35.280000000000001                   25.48
   126   1      5.8800000000000061      37.240000000000009      23.520000000000003
   127   1      9.8000000000000025      5.8800000000000061      23.520000000000003
   128   1      9.8000000000000025      9.8000000000000025      15.680000000000005
   129   1      7.8400000000000043      9.8000000000000025      21.560000000000002
   130   1      9.8000000000000025      7.8400000000000043      21.560000000000002
   131   1      9.8000000000000025      9.8000000000000025      19.600000000000005
   132   1      7.8400000000000043      7.8400000000000043      23.520000000000003
   133   1      7.8400000000000043      9.8000000000000025                   25.48
   134   1      9.8000000000000025      7.8400000000000043                   25.48
   135   1      9.8000000000000025      9.8000000000000025      23.520000000000003
   136   1      9.8000000000000025      9.8000000000000025      27.440000000000001
   137   1      9.8000000000000025      9.8000000000000025      31.360000000000007
   138   1      7.8400000000000043      13.720000000000004      13.720000000000004
   139   1      9.8000000000000025      11.760000000000003      13.720000000000004
   140   1      9.8000000000000025      13.720000000000004      11.760000000000003
   141   1      7.8400000000000043      11.760000000000003      15.680000000000005
   142   1      7.8400000000000043      13.720000000000004      17.640000000000008
   143   1      9.8000000000000025      11.760000000000003      17.640000000000008
   144   1      9.8000000000000025      13.720000000000004      15.680000000000005
   145   1      7.8400000000000043      11.760000000000003      19.600000000000005
   146   1      7.8400000000000043      13.720000000000004      21.560000000000002
   147   1      9.8000000000000025      11.760000000000003      21.560000000000002
   148   1      9.8000000000000025      13.720000000000004      19.600000000000005
   149   1      7.8400000000000043      11.760000000000003      23.520000000000003
   150   1      7.8400000000000043      13.720000000000004                   25.48
   151   1      9.8000000000000025      11.760000000000003                   25.48
   152   1      9.8000000000000025      13.720000000000004      23.520000000000003
   153   1      7.8400000000000043      11.760000000000003      27.440000000000001
   154   1      7.8400000000000043      13.720000000000004      29.400000000000006
   155   1      9.8000000000000025      11.760000000000003      29.400000000000006
   156   1      9.8000000000000025      13.720000000000004      27.440000000000001
   157   1      7.8400000000000043      11.760000000000003      31.360000000000007
   158   1      7.8400000000000043      13.720000000000004                   33.32
   159   1      9.8000000000000025      11.760000000000003                   33.32
   160   1      9.8000000000000025      13.720000000000004      31.360000000000007
   161   1      9.8000000000000025      13.720000000000004      35.280000000000001
   162   1      9.8000000000000025      15.680000000000005      9.8000000000000025
   163   1      7.8400000000000043      15.680000000000005      11.760000000000003
   164   1      7.8400000000000043      17.640000000000008      13.720000000000004
   165   1      9.8000000000000025      15.680000000000005      13.720000000000004
   166   1      9.8000000000000025      17.640000000000008      11.760000000000003
   167   1      7.8400000000000043      15.680000000000005      15.680000000000005
   168   1      7.8400000000000043      17.640000000000008      17.640000000000008
   169   1      9.8000000000000025      15.680000000000005      17.640000000000008
   170   1      9.8000000000000025      17.640000000000008      15.680000000000005
   171   1      7.8400000000000043      15.680000000000005      19.600000000000005
   172   1      7.8400000000000043      17.640000000000008      21.560000000000002
   173   1      9.8000000000000025      15.680000000000005      21.560000000000002
   174   1      9.8000000000000025      17.640000000000008      19.600000000000005
   175   1      7.8400000000000043      15.680000000000005      23.520000000000003
   176   1      7.8400000000000043      17.640000000000008                   25.48
   177   1      9.8000000000000025      15.680000000000005                   25.48
   178   1      9.8000000000000025      17.640000000000008      23.520000000000003
   179   1      7.8400000000000043      15.680000000000005      27.440000000000001
   180   1      7.8400000000000043      17.640000000000008      29.400000000000006
   181   1      9.8000000000000025      15.680000000000005      29.400000000000006
   182   1      9.8000000000000025      17.640000000000008      27.440000000000001
   183   1      7.8400000000000043      15.680000000000005      31.360000000000007
   184   1      7.8400000000000043      17.640000000000008                   33.32
   185   1      9.8000000000000025      15.680000000000005                   33.32
   186   1      9.8000000000000025      17.640000000000008      31.360000000000007
   187   1      7.8400000000000043      15.680000000000005      35.280000000000001
   188   1      9.8000000000000025      15.680000000000005      37.240000000000009
   189   1      9.8000000000000025      17.640000000000008      35.280000000000001
   190   1      7.8400000000000043      21.560000000000002      9.8000000000000025
   191   1      9.8000000000000025      19.600000000000005      9.8000000000000025
   192   1      9.8000000000000025      21.560000000000002      7.8400000000000043
   193   1      7.8400000000000043      19.600000000000005      11.760000000000003
   194   1      7.8400000000000043      21.560000000000002      13.720000000000004
   195   1      9.8000000000000025      19.600000000000005      13.720000000000004
   196   1      9.8000000000000025      21.560000000000002      11.760000000000003
   197   1      7.8400000000000043      19.600000000000005      15.680000000000005
   198   1      7.8400000000000043      21.560000000000002      17.640000000000008
   199   1      9.8000000000000025      19.600000000000005      17.640000000000008
   200   1      9.8000000000000025      21.560000000000002      15.680000000000005
   201   1      7.8400000000000043      19.600000000000005      19.600000000000005
   202   1      7.8400000000000043      21.560000000000002      21.560000000000002
   203   1      9.8000000000000025      19.600000000000005      21.560000000000002
   204   1      9.8000000000000025      21.560000000000002      19.600000000000005
   205   1      7.8400000000000043      19.600000000000005      23.520000000000003
   206   1      7.8400000000000043      21.560000000000002                   25.48
   207   1      9.8000000000000025      19.600000000000005                   25.48
   208   1      9.8000000000000025      21.560000000000002      23.520000000000003
   209   1      7.8400000000000043      19.600000000000005      27.440000000000001
   210   1      7.8400000000000043      21.560000000000002      29.400000000000006
   211   1      9.8000000000000025      19.600000000000005      29.400000000000006
   212   1      9.8000000000000025      21.560000000000002      27.440000000000001
   213   1      7.8400000000000043      19.600000000000005      31.360000000000007
   214   1      7.8400000000000043      21.560000000000002                   33.32
   215   1      9.8000000000000025      19.600000000000005                   33.32
   216   1      9.8000000000000025      21.560000000000002      31.360000000000007
   217   1      7.8400000000000043      19.600000000000005      35.280000000000001
   218   1      7.8400000000000043      21.560000000000002      37.240000000000009
   219   1      9.8000000000000025      19.600000000000005      37.240000000000009
   220   1      9.8000000000000025      21.560000000000002      35.280000000000001
   221   1      9.8000000000000025      21.560000000000002      39.200000000000003
   222   1      9.8000000000000025      23.520000000000003      5.8800000000000061
   223   1      7.8400000000000043      23.520000000000003      7.8400000000000043
   224   1      7.8400000000000043                   25.48      9.8000000000000025
   225   1      9.8000000000000025      23.520000000000003      9.8000000000000025
   226   1      9.8000000000000025                   25.48      7.8400000000000043
   227   1      7.8400000000000043      23.520000000000003      11.760000000000003
   228   1      7.8400000000000043                   25.48      13.720000000000004
   229   1      9.8000000000000025      23.520000000000003      13.720000000000004
   230   1      9.8000000000000025                   25.48      11.760000000000003
   231   1      7.8400000000000043      23.520000000000003      15.680000000000005
   232   1      7.8400000000000043                   25.48      17.640000000000008
   233   1      9.8000000000000025      23.520000000000003      17.640000000000008
   234   1      9.8000000000000025                   25.48      15.680000000000005
   235   1      7.8400000000000043      23.520000000000003      19.600000000000005
   236   1      7.8400000000000043                   25.48      21.560000000000002
   237   1      9.8000000000000025      23.520000000000003      21.560000000000002
   238   1      9.8000000000000025                   25.48      19.600000000000005
   239   1      7.8400000000000043      23.520000000000003      23.520000000000003
   240   1      7.8400000000000043                   25.48                   25.48
   241   1      9.8000000000000025      23.520000000000003                   25.48
   242   1      9.8000000000000025                   25.48      23.520000000000003
   243   1      7.8400000000000043      23.520000000000003      27.440000000000001
   244   1      7.8400000000000043                   25.48      29.400000000000006
   245   1      9.8000000000000025      23.520000000000003      29.400000000000006
   246   1      9.8000000000000025                   25.48      27.440000000000001
   247   1      7.8400000000000043      23.520000000000003      31.360000000000007
   248   1      7.8400000000000043                   25.48                   33.32
   249   1      9.8000000000000025      23.520000000000003                   33.32
   250   1      9.8000000000000025                   25.48      31.360000000000007
   251   1      7.8400000000000043      23.520000000000003      35.280000000000001
   252   1      7.8400000000000043                   25.48      37.240000000000009
   253   1      9.8000000000000025      23.520000000000003      37.240000000000009
   254   1      9.8000000000000025                   25.48      35.280000000000001
   255   1      7.8400000000000043      23.520000000000003      39.200000000000003
   256   1      9.8000000000000025      23.520000000000003      41.159999999999997
   257   1      9.8000000000000025                   25.48      39.200000000000003
   258   1      9.8000000000000025      27.440000000000001      9.8000000000000025
   259   1      7.8400000000000043      27.440000000000001      11.760000000000003
   260   1      7.8400000000000043      29.400000000000006      13.720000000000004
   261   1      9.8000000000000025      27.440000000000001      13.720000000000004
   262   1      9.8000000000000025      29.400000000000006      11.760000000000003
   263   1      7.8400000000000043      27.440000000000001      15.680000000000005
   264   1      7.8400000000000043      29.400000000000006      17.640000000000008
   265   1      9.8000000000000025      27.440000000000001      17.640000000000008
   266   1      9.8000000000000025      29.400000000000006      15.680000000000005
   267   1      7.8400000000000043      27.440000000000001      19.600000000000005
   268   1      7.8400000000000043      29.400000000000006      21.560000000000002
   269   1      9.8000000000000025      27.440000000000001      21.560000000000002
   270   1      9.8000000000000025      29.400000000000006      19.600000000000005
   271   1      7.8400000000000043      27.440000000000001      23.520000000000003
   272   1      7.8400000000000043      29.400000000000006                   25.48
   273   1      9.8000000000000025      27.440000000000001                   25.48
   274   1      9.8000000000000025      29.400000000000006      23.520000000000003
   275   1      7.8400000000000043      27.440000000000001      27.440000000000001
   276   1      7.8400000000000043      29.400000000000006      29.400000000000006
   277   1      9.8000000000000025      27.440000000000001      29.400000000000006
   278   1      9.8000000000000025      29.400000000000006      27.440000000000001
   279   1      7.8400000000000043      27.440000000000001      31.360000000000007
   280   1      7.8400000000000043      29.400000000000006                   33.32
   281   1      9.8000000000000025      27.440000000000001                   33.32
   282   1      9.8000000000000025      29.400000000000006      31.360000000000007
   283   1      7.8400000000000043      27.440000000000001      35.280000000000001
   284   1      9.8000000000000025      27.440000000000001      37.240000000000009
   285   1      9.8000000000000025      29.400000000000006      35.280000000000001
   286   1      9.8000000000000025      31.360000000000007      9.8000000000000025
   287   1      7.8400000000000043      31.360000000000007      11.760000000000003
   288   1      7.8400000000000043                   33.32      13.720000000000004
   289   1      9.8000000000000025      31.360000000000007      13.720000000000004
   290   1      9.8000000000000025                   33.32      11.760000000000003
   291   1      7.8400000000000043      31.360000000000007      15.680000000000005
   292   1      7.8400000000000043                   33.32      17.640000000000008
   293   1      9.8000000000000025      31.360000000000007      17.640000000000008
   294   1      9.8000000000000025                   33.32      15.680000000000005
   295   1      7.8400000000000043      31.360000000000007      19.600000000000005
   296   1      7.8400000000000043                   33.32      21.560000000000002
   297   1      9.8000000000000025      31.360000000000007      21.560000000000002
   298   1      9.8000000000000025                   33.32      19.600000000000005
   299   1      7.8400000000000043      31.360000000000007      23.520000000000003
   300   1      7.8400000000000043                   33.32                   25.48
   301   1      9.8000000000000025      31.360000000000007                   25.48
   302   1      9.8000000000000025                   33.32      23.520000000000003
   303   1      7.8400000000000043      31.360000000000007      27.440000000000001
   304   1      7.8400000000000043                   33.32      29.400000000000006
   305   1      9.8000000000000025      31.360000000000007      29.400000000000006
   306   1      9.8000000000000025                   33.32      27.440000000000001
   307   1      7.8400000000000043      31.360000000000007      31.360000000000007
   308   1      7.8400000000000043                   33.32                   33.32
   309   1      9.8000000000000025      31.360000000000007                   33.32
   310   1      9.8000000000000025                   33.32      31.360000000000007
   311   1      7.8400000000000043      31.360000000000007      35.280000000000001
   312   1      9.8000000000000025      31.360000000000007      37.240000000000009
   313   1      9.8000000000000025                   33.32      35.280000000000001
   314   1      9.8000000000000025      35.280000000000001      13.720000000000004
   315   1      7.8400000000000043      35.280000000000001      15.680000000000005
   316   1      9.8000000000000025      35.280000000000001      17.640000000000008
   317   1      9.8000000000000025      37.240000000000009      15.680000000000005
   318   1      7.8400000000000043      35.280000000000001      19.600000000000005
   319   1      7.8400000000000043      37.240000000000009      21.560000000000002
   320   1      9.8000000000000025      35.280000000000001      21.560000000000002
   321   1      9.8000000000000025      37.240000000000009      19.600000000000005
   322   1      7.8400000000000043      35.280000000000001      23.520000000000003
   323   1      7.8400000000000043      37.240000000000009                   25.48
   324   1      9.8000000000000025      35.280000000000001                   25.48
   325   1      9.8000000000000025      37.240000000000009      23.520000000000003
   326   1      7.8400000000000043      35.280000000000001      27.440000000000001
   327   1      9.8000000000000025      35.280000000000001      29.400000000000006
   328   1      9.8000000000000025      37.240000000000009      27.440000000000001
   329   1      7.8400000000000043      35.280000000000001      31.360000000000007
   330   1      9.8000000000000025      35.280000000000001                   33.32
   331   1      9.8000000000000025      37.240000000000009      31.360000000000007
   332   1      9.8000000000000025      39.200000000000003      21.560000000000002
   333   1      7.8400000000000043      39.200000000000003      23.520000000000003
   334   1      9.8000000000000025      39.200000000000003                   25.48
   335   1      9.8000000000000025      41.159999999999997      23.520000000000003
   336   1      11.760000000000003      5.8800000000000061      21.560000000000002
   337   1      13.720000000000004      5.8800000000000061      19.600000000000005
   338   1      11.760000000000003      5.8800000000000061                   25.48
   339   1      13.720000000000004      5.8800000000000061      23.520000000000003
   340   1      13.720000000000004      5.8800000000000061      27.440000000000001
   341   1      11.760000000000003      9.8000000000000025      13.720000000000004
   342   1      13.720000000000004      7.8400000000000043      13.720000000000004
   343   1      13.720000000000004      9.8000000000000025      11.760000000000003
   344   1      11.760000000000003      7.8400000000000043      15.680000000000005
   345   1      11.760000000000003      9.8000000000000025      17.640000000000008
   346   1      13.720000000000004      7.8400000000000043      17.640000000000008
   347   1      13.720000000000004      9.8000000000000025      15.680000000000005
   348   1      11.760000000000003      7.8400000000000043      19.600000000000005
   349   1      11.760000000000003      9.8000000000000025      21.560000000000002
   350   1      13.720000000000004      7.8400000000000043      21.560000000000002
   351   1      13.720000000000004      9.8000000000000025      19.600000000000005
   352   1      11.760000000000003      7.8400000000000043      23.520000000000003
   353   1      11.760000000000003      9.8000000000000025                   25.48
   354   1      13.720000000000004      7.8400000000000043                   25.48
   355   1      13.720000000000004      9.8000000000000025      23.520000000000003
   356   1      11.760000000000003      7.8400000000000043      27.440000000000001
   357   1      11.760000000000003      9.8000000000000025      29.400000000000006
   358   1      13.720000000000004      7.8400000000000043      29.400000000000006