model_files/NiFeCrCoCu/NiFeCrCoCu_30000/NiFeCrCoCu_100/NiFeCrCoCu_100_fcc_29659_temp.data (written by ASE) 

29659 	 atoms 
5  atom types
0.0                      69  xlo xhi
0.0                      69  ylo yhi
0.0                      69  zlo zhi


Atoms 

     1   1                       0                       0      1.7850000000000037
     2   1                       0                       0       5.355000000000004
     3   1                       0                       0      8.9250000000000043
     4   1                       0                       0      12.495000000000005
     5   1                       0                       0      16.065000000000001
     6   1                       0                       0      19.635000000000002
     7   1                       0                       0      23.205000000000002
     8   1                       0                       0      26.775000000000002
     9   1                       0                       0      30.344999999999999
    10   1                       0                       0      33.914999999999999
    11   1                       0                       0      37.484999999999999
    12   1                       0                       0                  41.055
    13   1                       0                       0                  44.625
    14   1                       0                       0                  48.195
    15   1                       0                       0      51.765000000000001
    16   1                       0                       0      55.335000000000001
    17   1                       0                       0      58.905000000000001
    18   1                       0                       0      62.474999999999994
    19   1                       0                       0      66.045000000000002
    20   1                       0      1.7850000000000037                       0
    21   1                       0      1.7850000000000037      3.5700000000000038
    22   1                       0      3.5700000000000038      1.7850000000000037
    23   1                       0      1.7850000000000037      7.1400000000000006
    24   1                       0      3.5700000000000038       5.355000000000004
    25   1                       0      1.7850000000000037      10.710000000000001
    26   1                       0      3.5700000000000038      8.9250000000000043
    27   1                       0      1.7850000000000037      14.280000000000001
    28   1                       0      3.5700000000000038      12.495000000000005
    29   1                       0      1.7850000000000037      17.850000000000001
    30   1                       0      3.5700000000000038      16.065000000000001
    31   1                       0      1.7850000000000037      21.420000000000002
    32   1                       0      3.5700000000000038      19.635000000000002
    33   1                       0      1.7850000000000037      24.990000000000002
    34   1                       0      3.5700000000000038      23.205000000000002
    35   1                       0      1.7850000000000037      28.560000000000002
    36   1                       0      3.5700000000000038      26.775000000000002
    37   1                       0      1.7850000000000037      32.129999999999995
    38   1                       0      3.5700000000000038      30.344999999999999
    39   1                       0      1.7850000000000037      35.699999999999996
    40   1                       0      3.5700000000000038      33.914999999999999
    41   1                       0      1.7850000000000037      39.269999999999996
    42   1                       0      3.5700000000000038      37.484999999999999
    43   1                       0      1.7850000000000037      42.839999999999996
    44   1                       0      3.5700000000000038                  41.055
    45   1                       0      1.7850000000000037      46.409999999999997
    46   1                       0      3.5700000000000038                  44.625
    47   1                       0      1.7850000000000037      49.979999999999997
    48   1                       0      3.5700000000000038                  48.195
    49   1                       0      1.7850000000000037      53.549999999999997
    50   1                       0      3.5700000000000038      51.765000000000001
    51   1                       0      1.7850000000000037      57.119999999999997
    52   1                       0      3.5700000000000038      55.335000000000001
    53   1                       0      1.7850000000000037      60.689999999999998
    54   1                       0      3.5700000000000038      58.905000000000001
    55   1                       0      1.7850000000000037      64.259999999999991
    56   1                       0      3.5700000000000038      62.474999999999994
    57   1                       0      1.7850000000000037      67.829999999999998
    58   1                       0      3.5700000000000038      66.045000000000002
    59   1                       0       5.355000000000004                       0
    60   1                       0       5.355000000000004      3.5700000000000038
    61   1                       0      7.1400000000000006      1.7850000000000037
    62   1                       0       5.355000000000004      7.1400000000000006
    63   1                       0      7.1400000000000006       5.355000000000004
    64   1                       0       5.355000000000004      10.710000000000001
    65   1                       0      7.1400000000000006      8.9250000000000043
    66   1                       0       5.355000000000004      14.280000000000001
    67   1                       0      7.1400000000000006      12.495000000000005
    68   1                       0       5.355000000000004      17.850000000000001
    69   1                       0      7.1400000000000006      16.065000000000001
    70   1                       0       5.355000000000004      21.420000000000002
    71   1                       0      7.1400000000000006      19.635000000000002
    72   1                       0       5.355000000000004      24.990000000000002
    73   1                       0      7.1400000000000006      23.205000000000002
    74   1                       0       5.355000000000004      28.560000000000002
    75   1                       0      7.1400000000000006      26.775000000000002
    76   1                       0       5.355000000000004      32.129999999999995
    77   1                       0      7.1400000000000006      30.344999999999999
    78   1                       0       5.355000000000004      35.699999999999996
    79   1                       0      7.1400000000000006      33.914999999999999
    80   1                       0       5.355000000000004      39.269999999999996
    81   1                       0      7.1400000000000006      37.484999999999999
    82   1                       0       5.355000000000004      42.839999999999996
    83   1                       0      7.1400000000000006                  41.055
    84   1                       0       5.355000000000004      46.409999999999997
    85   1                       0      7.1400000000000006                  44.625
    86   1                       0       5.355000000000004      49.979999999999997
    87   1                       0      7.1400000000000006                  48.195
    88   1                       0       5.355000000000004      53.549999999999997
    89   1                       0      7.1400000000000006      51.765000000000001
    90   1                       0       5.355000000000004      57.119999999999997
    91   1                       0      7.1400000000000006      55.335000000000001
    92   1                       0       5.355000000000004      60.689999999999998
    93   1                       0      7.1400000000000006      58.905000000000001
    94   1                       0       5.355000000000004      64.259999999999991
    95   1                       0      7.1400000000000006      62.474999999999994
    96   1                       0       5.355000000000004      67.829999999999998
    97   1                       0      7.1400000000000006      66.045000000000002
    98   1                       0      8.9250000000000043                       0
    99   1                       0      8.9250000000000043      3.5700000000000038
   100   1                       0      10.710000000000001      1.7850000000000037
   101   1                       0      8.9250000000000043      7.1400000000000006
   102   1                       0      10.710000000000001       5.355000000000004
   103   1                       0      8.9250000000000043      10.710000000000001
   104   1                       0      10.710000000000001      8.9250000000000043
   105   1                       0      8.9250000000000043      14.280000000000001
   106   1                       0      10.710000000000001      12.495000000000005
   107   1                       0      8.9250000000000043      17.850000000000001
   108   1                       0      10.710000000000001      16.065000000000001
   109   1                       0      8.9250000000000043      21.420000000000002
   110   1                       0      10.710000000000001      19.635000000000002
   111   1                       0      8.9250000000000043      24.990000000000002
   112   1                       0      10.710000000000001      23.205000000000002
   113   1                       0      8.9250000000000043      28.560000000000002
   114   1                       0      10.710000000000001      26.775000000000002
   115   1                       0      8.9250000000000043      32.129999999999995
   116   1                       0      10.710000000000001      30.344999999999999
   117   1                       0      8.9250000000000043      35.699999999999996
   118   1                       0      10.710000000000001      33.914999999999999
   119   1                       0      8.9250000000000043      39.269999999999996
   120   1                       0      10.710000000000001      37.484999999999999
   121   1                       0      8.9250000000000043      42.839999999999996
   122   1                       0      10.710000000000001                  41.055
   123   1                       0      8.9250000000000043      46.409999999999997
   124   1                       0      10.710000000000001                  44.625
   125   1                       0      8.9250000000000043      49.979999999999997
   126   1                       0      10.710000000000001                  48.195
   127   1                       0      8.9250000000000043      53.549999999999997
   128   1                       0      10.710000000000001      51.765000000000001
   129   1                       0      8.9250000000000043      57.119999999999997
   130   1                       0      10.710000000000001      55.335000000000001
   131   1                       0      8.9250000000000043      60.689999999999998
   132   1                       0      10.710000000000001      58.905000000000001
   133   1                       0      8.9250000000000043      64.259999999999991
   134   1                       0      10.710000000000001      62.474999999999994
   135   1                       0      8.9250000000000043      67.829999999999998
   136   1                       0      10.710000000000001      66.045000000000002
   137   1                       0      12.495000000000005                       0
   138   1                       0      12.495000000000005      3.5700000000000038
   139   1                       0      14.280000000000001      1.7850000000000037
   140   1                       0      12.495000000000005      7.1400000000000006
   141   1                       0      14.280000000000001       5.355000000000004
   142   1                       0      12.495000000000005      10.710000000000001
   143   1                       0      14.280000000000001      8.9250000000000043
   144   1                       0      12.495000000000005      14.280000000000001
   145   1                       0      14.280000000000001      12.495000000000005
   146   1                       0      12.495000000000005      17.850000000000001
   147   1                       0      14.280000000000001      16.065000000000001
   148   1                       0      12.495000000000005      21.420000000000002
   149   1                       0      14.280000000000001      19.635000000000002
   150   1                       0      12.495000000000005      24.990000000000002
   151   1                       0      14.280000000000001      23.205000000000002
   152   1                       0      12.495000000000005      28.560000000000002
   153   1                       0      14.280000000000001      26.775000000000002
   154   1                       0      12.495000000000005      32.129999999999995
   155   1                       0      14.280000000000001      30.344999999999999
   156   1                       0      12.495000000000005      35.699999999999996
   157   1                       0      14.280000000000001      33.914999999999999
   158   1                       0      12.495000000000005      39.269999999999996
   159   1                       0      14.280000000000001      37.484999999999999
   160   1                       0      12.495000000000005      42.839999999999996
   161   1                       0      14.280000000000001                  41.055
   162   1                       0      12.495000000000005      46.409999999999997
   163   1                       0      14.280000000000001                  44.625
   164   1                       0      12.495000000000005      49.979999999999997
   165   1                       0      14.280000000000001                  48.195
   166   1                       0      12.495000000000005      53.549999999999997
   167   1                       0      14.280000000000001      51.765000000000001
   168   1                       0      12.495000000000005      57.119999999999997
   169   1                       0      14.280000000000001      55.335000000000001
   170   1                       0      12.495000000000005      60.689999999999998
   171   1                       0      14.280000000000001      58.905000000000001
   172   1                       0      12.495000000000005      64.259999999999991
   173   1                       0      14.280000000000001      62.474999999999994
   174   1                       0      12.495000000000005      67.829999999999998
   175   1                       0      14.280000000000001      66.045000000000002
   176   1                       0      16.065000000000001                       0
   177   1                       0      16.065000000000001      3.5700000000000038
   178   1                       0      17.850000000000001      1.7850000000000037
   179   1                       0      16.065000000000001      7.1400000000000006
   180   1                       0      17.850000000000001       5.355000000000004
   181   1                       0      16.065000000000001      10.710000000000001
   182   1                       0      17.850000000000001      8.9250000000000043
   183   1                       0      16.065000000000001      14.280000000000001
   184   1                       0      17.850000000000001      12.495000000000005
   185   1                       0      16.065000000000001      17.850000000000001
   186   1                       0      17.850000000000001      16.065000000000001
   187   1                       0      16.065000000000001      21.420000000000002
   188   1                       0      17.850000000000001      19.635000000000002
   189   1                       0      16.065000000000001      24.990000000000002
   190   1                       0      17.850000000000001      23.205000000000002
   191   1                       0      16.065000000000001      28.560000000000002
   192   1                       0      17.850000000000001      26.775000000000002
   193   1                       0      16.065000000000001      32.129999999999995
   194   1                       0      17.850000000000001      30.344999999999999
   195   1                       0      16.065000000000001      35.699999999999996
   196   1                       0      17.850000000000001      33.914999999999999
   197   1                       0      16.065000000000001      39.269999999999996
   198   1                       0      17.850000000000001      37.484999999999999
   199   1                       0      16.065000000000001      42.839999999999996
   200   1                       0      17.850000000000001                  41.055
   201   1                       0      16.065000000000001      46.409999999999997
   202   1                       0      17.850000000000001                  44.625
   203   1                       0      16.065000000000001      49.979999999999997
   204   1                       0      17.850000000000001                  48.195
   205   1                       0      16.065000000000001      53.549999999999997
   206   1                       0      17.850000000000001      51.765000000000001
   207   1                       0      16.065000000000001      57.119999999999997
   208   1                       0      17.850000000000001      55.335000000000001
   209   1                       0      16.065000000000001      60.689999999999998
   210   1                       0      17.850000000000001      58.905000000000001
   211   1                       0      16.065000000000001      64.259999999999991
   212   1                       0      17.850000000000001      62.474999999999994
   213   1                       0      16.065000000000001      67.829999999999998
   214   1                       0      17.850000000000001      66.045000000000002
   215   1                       0      19.635000000000002                       0
   216   1                       0      19.635000000000002      3.5700000000000038
   217   1                       0      21.420000000000002      1.7850000000000037
   218   1                       0      19.635000000000002      7.1400000000000006
   219   1                       0      21.420000000000002       5.355000000000004
   220   1                       0      19.635000000000002      10.710000000000001
   221   1                       0      21.420000000000002      8.9250000000000043
   222   1                       0      19.635000000000002      14.280000000000001
   223   1                       0      21.420000000000002      12.495000000000005
   224   1                       0      19.635000000000002      17.850000000000001
   225   1                       0      21.420000000000002      16.065000000000001
   226   1                       0      19.635000000000002      21.420000000000002
   227   1                       0      21.420000000000002      19.635000000000002
   228   1                       0      19.635000000000002      24.990000000000002
   229   1                       0      21.420000000000002      23.205000000000002
   230   1                       0      19.635000000000002      28.560000000000002
   231   1                       0      21.420000000000002      26.775000000000002
   232   1                       0      19.635000000000002      32.129999999999995
   233   1                       0      21.420000000000002      30.344999999999999
   234   1                       0      19.635000000000002      35.699999999999996
   235   1                       0      21.420000000000002      33.914999999999999
   236   1                       0      19.635000000000002      39.269999999999996
   237   1                       0      21.420000000000002      37.484999999999999
   238   1                       0      19.635000000000002      42.839999999999996
   239   1                       0      21.420000000000002                  41.055
   240   1                       0      19.635000000000002      46.409999999999997
   241   1                       0      21.420000000000002                  44.625
   242   1                       0      19.635000000000002      49.979999999999997
   243   1                       0      21.420000000000002                  48.195
   244   1                       0      19.635000000000002      53.549999999999997
   245   1                       0      21.420000000000002      51.765000000000001
   246   1                       0      19.635000000000002      57.119999999999997
   247   1                       0      21.420000000000002      55.335000000000001
   248   1                       0      19.635000000000002      60.689999999999998
   249   1                       0      21.420000000000002      58.905000000000001
   250   1                       0      19.635000000000002      64.259999999999991
   251   1                       0      21.420000000000002      62.474999999999994
   252   1                       0      19.635000000000002      67.829999999999998
   253   1                       0      21.420000000000002      66.045000000000002
   254   1                       0      23.205000000000002                       0
   255   1                       0      23.205000000000002      3.5700000000000038
   256   1                       0      24.990000000000002      1.7850000000000037
   257   1                       0      23.205000000000002      7.1400000000000006
   258   1                       0      24.990000000000002       5.355000000000004
   259   1                       0      23.205000000000002      10.710000000000001
   260   1                       0      24.990000000000002      8.9250000000000043
   261   1                       0      23.205000000000002      14.280000000000001
   262   1                       0      24.990000000000002      12.495000000000005
   263   1                       0      23.205000000000002      17.850000000000001
   264   1                       0      24.990000000000002      16.065000000000001
   265   1                       0      23.205000000000002      21.420000000000002
   266   1                       0      24.990000000000002      19.635000000000002
   267   1                       0      23.205000000000002      24.990000000000002
   268   1                       0      24.990000000000002      23.205000000000002
   269   1                       0      23.205000000000002      28.560000000000002
   270   1                       0      24.990000000000002      26.775000000000002
   271   1                       0      23.205000000000002      32.129999999999995
   272   1                       0      24.990000000000002      30.344999999999999
   273   1                       0      23.205000000000002      35.699999999999996
   274   1                       0      24.990000000000002      33.914999999999999
   275   1                       0      23.205000000000002      39.269999999999996
   276   1                       0      24.990000000000002      37.484999999999999
   277   1                       0      23.205000000000002      42.839999999999996
   278   1                       0      24.990000000000002                  41.055
   279   1                       0      23.205000000000002      46.409999999999997
   280   1                       0      24.990000000000002                  44.625
   281   1                       0      23.205000000000002      49.979999999999997
   282   1                       0      24.990000000000002                  48.195
   283   1                       0      23.205000000000002      53.549999999999997
   284   1                       0      24.990000000000002      51.765000000000001
   285   1                       0      23.205000000000002      57.119999999999997
   286   1                       0      24.990000000000002      55.335000000000001
   287   1                       0      23.205000000000002      60.689999999999998
   288   1                       0      24.990000000000002      58.905000000000001
   289   1                       0      23.205000000000002      64.259999999999991
   290   1                       0      24.990000000000002      62.474999999999994
   291   1                       0      23.205000000000002      67.829999999999998
   292   1                       0      24.990000000000002      66.045000000000002
   293   1                       0      26.775000000000002                       0
   294   1                       0      26.775000000000002      3.5700000000000038
   295   1                       0      28.560000000000002      1.7850000000000037
   296   1                       0      26.775000000000002      7.1400000000000006
   297   1                       0      28.560000000000002       5.355000000000004
   298   1                       0      26.775000000000002      10.710000000000001
   299   1                       0      28.560000000000002      8.9250000000000043
   300   1                       0      26.775000000000002      14.280000000000001
   301   1                       0      28.560000000000002      12.495000000000005
   302   1                       0      26.775000000000002      17.850000000000001
   303   1                       0      28.560000000000002      16.065000000000001
   304   1                       0      26.775000000000002      21.420000000000002
   305   1                       0      28.560000000000002      19.635000000000002
   306   1                       0      26.775000000000002      24.990000000000002
   307   1                       0      28.560000000000002      23.205000000000002
   308   1                       0      26.775000000000002      28.560000000000002
   309   1                       0      28.560000000000002      26.775000000000002
   310   1                       0      26.775000000000002      32.129999999999995
   311   1                       0      28.560000000000002      30.344999999999999
   312   1                       0      26.775000000000002      35.699999999999996
   313   1                       0      28.560000000000002      33.914999999999999
   314   1                       0      26.775000000000002      39.269999999999996
   315   1                       0      28.560000000000002      37.484999999999999
   316   1                       0      26.775000000000002      42.839999999999996
   317   1                       0      28.560000000000002                  41.055
   318   1                       0      26.775000000000002      46.409999999999997
   319   1                       0      28.560000000000002                  44.625
   320   1                       0      26.775000000000002      49.979999999999997
   321   1                       0      28.560000000000002                  48.195
   322   1                       0      26.775000000000002      53.549999999999997
   323   1                       0      28.560000000000002      51.765000000000001
   324   1                       0      26.775000000000002      57.119999999999997
   325   1                       0      28.560000000000002      55.335000000000001
   326   1                       0      26.775000000000002      60.689999999999998
   327   1                       0      28.560000000000002      58.905000000000001
   328   1                       0      26.775000000000002      64.259999999999991
   329   1                       0      28.560000000000002      62.474999999999994
   330   1                       0      26.775000000000002      67.829999999999998
   331   1                       0      28.560000000000002      66.045000000000002
   332   1                       0      30.344999999999999                       0
   333   1                       0      30.344999999999999      3.5700000000000038
   334   1                       0      32.129999999999995      1.7850000000000037
   335   1                       0      30.344999999999999      7.1400000000000006
   336   1                       0      32.129999999999995       5.355000000000004
   337   1                       0      30.344999999999999      10.710000000000001
   338   1                       0      32.129999999999995      8.9250000000000043
   339   1                       0      30.344999999999999      14.280000000000001
   340   1                       0      32.129999999999995      12.495000000000005
   341   1                       0      30.344999999999999      17.850000000000001
   342   1                       0      32.129999999999995      16.065000000000001
   343   1                       0      30.344999999999999      21.420000000000002
   344   1                       0      32.129999999999995      19.635000000000002
   345   1                       0      30.344999999999999      24.990000000000002
   346   1                       0      32.129999999999995      23.205000000000002
   347   1                       0      30.344999999999999      28.560000000000002
   348   1                       0      32.129999999999995      26.775000000000002
   349   1                       0      30.344999999999999      32.129999999999995
   350   1                       0      32.129999999999995      30.344999999999999
   351   1                       0      30.344999999999999      35.699999999999996
   352   1                       0      32.129999999999995      33.914999999999999
   353   1                       0      30.344999999999999      39.269999999999996
   354   1                       0      32.129999999999995      37.484999999999999
   355   1                       0      30.344999999999999      42.839999999999996
   356   1                       0      32.129999999999995                  41.055
   357   1                       0      30.344999999999999      46.409999999999997
   358   1                       0      32.129999999999995                  44.625