model_files/Ag/Ag_30000/Ag_100/data.Ag_100_fcc_29659 (written by ASE) 

29659 	 atoms 
1  atom types
0.0                      79  xlo xhi
0.0                      79  ylo yhi
0.0                      79  zlo zhi


Atoms 

     1   1                       0                       0      2.0449999999999946
     2   1                       0                       0       6.134999999999998
     3   1                       0                       0      10.224999999999998
     4   1                       0                       0      14.314999999999998
     5   1                       0                       0      18.404999999999998
     6   1                       0                       0      22.494999999999994
     7   1                       0                       0      26.584999999999997
     8   1                       0                       0      30.674999999999997
     9   1                       0                       0      34.765000000000001
    10   1                       0                       0      38.854999999999997
    11   1                       0                       0      42.944999999999993
    12   1                       0                       0      47.034999999999997
    13   1                       0                       0                  51.125
    14   1                       0                       0      55.214999999999989
    15   1                       0                       0      59.304999999999993
    16   1                       0                       0      63.394999999999996
    17   1                       0                       0      67.484999999999999
    18   1                       0                       0      71.575000000000003
    19   1                       0                       0      75.664999999999992
    20   1                       0      2.0449999999999946                       0
    21   1                       0      2.0449999999999946      4.0899999999999963
    22   1                       0      4.0899999999999963      2.0449999999999946
    23   1                       0      2.0449999999999946      8.1799999999999997
    24   1                       0      4.0899999999999963       6.134999999999998
    25   1                       0      2.0449999999999946      12.269999999999996
    26   1                       0      4.0899999999999963      10.224999999999998
    27   1                       0      2.0449999999999946      16.359999999999999
    28   1                       0      4.0899999999999963      14.314999999999998
    29   1                       0      2.0449999999999946      20.449999999999996
    30   1                       0      4.0899999999999963      18.404999999999998
    31   1                       0      2.0449999999999946      24.539999999999999
    32   1                       0      4.0899999999999963      22.494999999999994
    33   1                       0      2.0449999999999946      28.629999999999995
    34   1                       0      4.0899999999999963      26.584999999999997
    35   1                       0      2.0449999999999946      32.719999999999999
    36   1                       0      4.0899999999999963      30.674999999999997
    37   1                       0      2.0449999999999946      36.810000000000002
    38   1                       0      4.0899999999999963      34.765000000000001
    39   1                       0      2.0449999999999946      40.899999999999999
    40   1                       0      4.0899999999999963      38.854999999999997
    41   1                       0      2.0449999999999946      44.989999999999988
    42   1                       0      4.0899999999999963      42.944999999999993
    43   1                       0      2.0449999999999946      49.079999999999998
    44   1                       0      4.0899999999999963      47.034999999999997
    45   1                       0      2.0449999999999946      53.170000000000002
    46   1                       0      4.0899999999999963                  51.125
    47   1                       0      2.0449999999999946      57.259999999999991
    48   1                       0      4.0899999999999963      55.214999999999989
    49   1                       0      2.0449999999999946      61.349999999999994
    50   1                       0      4.0899999999999963      59.304999999999993
    51   1                       0      2.0449999999999946      65.439999999999998
    52   1                       0      4.0899999999999963      63.394999999999996
    53   1                       0      2.0449999999999946      69.530000000000001
    54   1                       0      4.0899999999999963      67.484999999999999
    55   1                       0      2.0449999999999946      73.620000000000005
    56   1                       0      4.0899999999999963      71.575000000000003
    57   1                       0      2.0449999999999946      77.709999999999994
    58   1                       0      4.0899999999999963      75.664999999999992
    59   1                       0       6.134999999999998                       0
    60   1                       0       6.134999999999998      4.0899999999999963
    61   1                       0      8.1799999999999997      2.0449999999999946
    62   1                       0       6.134999999999998      8.1799999999999997
    63   1                       0      8.1799999999999997       6.134999999999998
    64   1                       0       6.134999999999998      12.269999999999996
    65   1                       0      8.1799999999999997      10.224999999999998
    66   1                       0       6.134999999999998      16.359999999999999
    67   1                       0      8.1799999999999997      14.314999999999998
    68   1                       0       6.134999999999998      20.449999999999996
    69   1                       0      8.1799999999999997      18.404999999999998
    70   1                       0       6.134999999999998      24.539999999999999
    71   1                       0      8.1799999999999997      22.494999999999994
    72   1                       0       6.134999999999998      28.629999999999995
    73   1                       0      8.1799999999999997      26.584999999999997
    74   1                       0       6.134999999999998      32.719999999999999
    75   1                       0      8.1799999999999997      30.674999999999997
    76   1                       0       6.134999999999998      36.810000000000002
    77   1                       0      8.1799999999999997      34.765000000000001
    78   1                       0       6.134999999999998      40.899999999999999
    79   1                       0      8.1799999999999997      38.854999999999997
    80   1                       0       6.134999999999998      44.989999999999988
    81   1                       0      8.1799999999999997      42.944999999999993
    82   1                       0       6.134999999999998      49.079999999999998
    83   1                       0      8.1799999999999997      47.034999999999997
    84   1                       0       6.134999999999998      53.170000000000002
    85   1                       0      8.1799999999999997                  51.125
    86   1                       0       6.134999999999998      57.259999999999991
    87   1                       0      8.1799999999999997      55.214999999999989
    88   1                       0       6.134999999999998      61.349999999999994
    89   1                       0      8.1799999999999997      59.304999999999993
    90   1                       0       6.134999999999998      65.439999999999998
    91   1                       0      8.1799999999999997      63.394999999999996
    92   1                       0       6.134999999999998      69.530000000000001
    93   1                       0      8.1799999999999997      67.484999999999999
    94   1                       0       6.134999999999998      73.620000000000005
    95   1                       0      8.1799999999999997      71.575000000000003
    96   1                       0       6.134999999999998      77.709999999999994
    97   1                       0      8.1799999999999997      75.664999999999992
    98   1                       0      10.224999999999998                       0
    99   1                       0      10.224999999999998      4.0899999999999963
   100   1                       0      12.269999999999996      2.0449999999999946
   101   1                       0      10.224999999999998      8.1799999999999997
   102   1                       0      12.269999999999996       6.134999999999998
   103   1                       0      10.224999999999998      12.269999999999996
   104   1                       0      12.269999999999996      10.224999999999998
   105   1                       0      10.224999999999998      16.359999999999999
   106   1                       0      12.269999999999996      14.314999999999998
   107   1                       0      10.224999999999998      20.449999999999996
   108   1                       0      12.269999999999996      18.404999999999998
   109   1                       0      10.224999999999998      24.539999999999999
   110   1                       0      12.269999999999996      22.494999999999994
   111   1                       0      10.224999999999998      28.629999999999995
   112   1                       0      12.269999999999996      26.584999999999997
   113   1                       0      10.224999999999998      32.719999999999999
   114   1                       0      12.269999999999996      30.674999999999997
   115   1                       0      10.224999999999998      36.810000000000002
   116   1                       0      12.269999999999996      34.765000000000001
   117   1                       0      10.224999999999998      40.899999999999999
   118   1                       0      12.269999999999996      38.854999999999997
   119   1                       0      10.224999999999998      44.989999999999988
   120   1                       0      12.269999999999996      42.944999999999993
   121   1                       0      10.224999999999998      49.079999999999998
   122   1                       0      12.269999999999996      47.034999999999997
   123   1                       0      10.224999999999998      53.170000000000002
   124   1                       0      12.269999999999996                  51.125
   125   1                       0      10.224999999999998      57.259999999999991
   126   1                       0      12.269999999999996      55.214999999999989
   127   1                       0      10.224999999999998      61.349999999999994
   128   1                       0      12.269999999999996      59.304999999999993
   129   1                       0      10.224999999999998      65.439999999999998
   130   1                       0      12.269999999999996      63.394999999999996
   131   1                       0      10.224999999999998      69.530000000000001
   132   1                       0      12.269999999999996      67.484999999999999
   133   1                       0      10.224999999999998      73.620000000000005
   134   1                       0      12.269999999999996      71.575000000000003
   135   1                       0      10.224999999999998      77.709999999999994
   136   1                       0      12.269999999999996      75.664999999999992
   137   1                       0      14.314999999999998                       0
   138   1                       0      14.314999999999998      4.0899999999999963
   139   1                       0      16.359999999999999      2.0449999999999946
   140   1                       0      14.314999999999998      8.1799999999999997
   141   1                       0      16.359999999999999       6.134999999999998
   142   1                       0      14.314999999999998      12.269999999999996
   143   1                       0      16.359999999999999      10.224999999999998
   144   1                       0      14.314999999999998      16.359999999999999
   145   1                       0      16.359999999999999      14.314999999999998
   146   1                       0      14.314999999999998      20.449999999999996
   147   1                       0      16.359999999999999      18.404999999999998
   148   1                       0      14.314999999999998      24.539999999999999
   149   1                       0      16.359999999999999      22.494999999999994
   150   1                       0      14.314999999999998      28.629999999999995
   151   1                       0      16.359999999999999      26.584999999999997
   152   1                       0      14.314999999999998      32.719999999999999
   153   1                       0      16.359999999999999      30.674999999999997
   154   1                       0      14.314999999999998      36.810000000000002
   155   1                       0      16.359999999999999      34.765000000000001
   156   1                       0      14.314999999999998      40.899999999999999
   157   1                       0      16.359999999999999      38.854999999999997
   158   1                       0      14.314999999999998      44.989999999999988
   159   1                       0      16.359999999999999      42.944999999999993
   160   1                       0      14.314999999999998      49.079999999999998
   161   1                       0      16.359999999999999      47.034999999999997
   162   1                       0      14.314999999999998      53.170000000000002
   163   1                       0      16.359999999999999                  51.125
   164   1                       0      14.314999999999998      57.259999999999991
   165   1                       0      16.359999999999999      55.214999999999989
   166   1                       0      14.314999999999998      61.349999999999994
   167   1                       0      16.359999999999999      59.304999999999993
   168   1                       0      14.314999999999998      65.439999999999998
   169   1                       0      16.359999999999999      63.394999999999996
   170   1                       0      14.314999999999998      69.530000000000001
   171   1                       0      16.359999999999999      67.484999999999999
   172   1                       0      14.314999999999998      73.620000000000005
   173   1                       0      16.359999999999999      71.575000000000003
   174   1                       0      14.314999999999998      77.709999999999994
   175   1                       0      16.359999999999999      75.664999999999992
   176   1                       0      18.404999999999998                       0
   177   1                       0      18.404999999999998      4.0899999999999963
   178   1                       0      20.449999999999996      2.0449999999999946
   179   1                       0      18.404999999999998      8.1799999999999997
   180   1                       0      20.449999999999996       6.134999999999998
   181   1                       0      18.404999999999998      12.269999999999996
   182   1                       0      20.449999999999996      10.224999999999998
   183   1                       0      18.404999999999998      16.359999999999999
   184   1                       0      20.449999999999996      14.314999999999998
   185   1                       0      18.404999999999998      20.449999999999996
   186   1                       0      20.449999999999996      18.404999999999998
   187   1                       0      18.404999999999998      24.539999999999999
   188   1                       0      20.449999999999996      22.494999999999994
   189   1                       0      18.404999999999998      28.629999999999995
   190   1                       0      20.449999999999996      26.584999999999997
   191   1                       0      18.404999999999998      32.719999999999999
   192   1                       0      20.449999999999996      30.674999999999997
   193   1                       0      18.404999999999998      36.810000000000002
   194   1                       0      20.449999999999996      34.765000000000001
   195   1                       0      18.404999999999998      40.899999999999999
   196   1                       0      20.449999999999996      38.854999999999997
   197   1                       0      18.404999999999998      44.989999999999988
   198   1                       0      20.449999999999996      42.944999999999993
   199   1                       0      18.404999999999998      49.079999999999998
   200   1                       0      20.449999999999996      47.034999999999997
   201   1                       0      18.404999999999998      53.170000000000002
   202   1                       0      20.449999999999996                  51.125
   203   1                       0      18.404999999999998      57.259999999999991
   204   1                       0      20.449999999999996      55.214999999999989
   205   1                       0      18.404999999999998      61.349999999999994
   206   1                       0      20.449999999999996      59.304999999999993
   207   1                       0      18.404999999999998      65.439999999999998
   208   1                       0      20.449999999999996      63.394999999999996
   209   1                       0      18.404999999999998      69.530000000000001
   210   1                       0      20.449999999999996      67.484999999999999
   211   1                       0      18.404999999999998      73.620000000000005
   212   1                       0      20.449999999999996      71.575000000000003
   213   1                       0      18.404999999999998      77.709999999999994
   214   1                       0      20.449999999999996      75.664999999999992
   215   1                       0      22.494999999999994                       0
   216   1                       0      22.494999999999994      4.0899999999999963
   217   1                       0      24.539999999999999      2.0449999999999946
   218   1                       0      22.494999999999994      8.1799999999999997
   219   1                       0      24.539999999999999       6.134999999999998
   220   1                       0      22.494999999999994      12.269999999999996
   221   1                       0      24.539999999999999      10.224999999999998
   222   1                       0      22.494999999999994      16.359999999999999
   223   1                       0      24.539999999999999      14.314999999999998
   224   1                       0      22.494999999999994      20.449999999999996
   225   1                       0      24.539999999999999      18.404999999999998
   226   1                       0      22.494999999999994      24.539999999999999
   227   1                       0      24.539999999999999      22.494999999999994
   228   1                       0      22.494999999999994      28.629999999999995
   229   1                       0      24.539999999999999      26.584999999999997
   230   1                       0      22.494999999999994      32.719999999999999
   231   1                       0      24.539999999999999      30.674999999999997
   232   1                       0      22.494999999999994      36.810000000000002
   233   1                       0      24.539999999999999      34.765000000000001
   234   1                       0      22.494999999999994      40.899999999999999
   235   1                       0      24.539999999999999      38.854999999999997
   236   1                       0      22.494999999999994      44.989999999999988
   237   1                       0      24.539999999999999      42.944999999999993
   238   1                       0      22.494999999999994      49.079999999999998
   239   1                       0      24.539999999999999      47.034999999999997
   240   1                       0      22.494999999999994      53.170000000000002
   241   1                       0      24.539999999999999                  51.125
   242   1                       0      22.494999999999994      57.259999999999991
   243   1                       0      24.539999999999999      55.214999999999989
   244   1                       0      22.494999999999994      61.349999999999994
   245   1                       0      24.539999999999999      59.304999999999993
   246   1                       0      22.494999999999994      65.439999999999998
   247   1                       0      24.539999999999999      63.394999999999996
   248   1                       0      22.494999999999994      69.530000000000001
   249   1                       0      24.539999999999999      67.484999999999999
   250   1                       0      22.494999999999994      73.620000000000005
   251   1                       0      24.539999999999999      71.575000000000003
   252   1                       0      22.494999999999994      77.709999999999994
   253   1                       0      24.539999999999999      75.664999999999992
   254   1                       0      26.584999999999997                       0
   255   1                       0      26.584999999999997      4.0899999999999963
   256   1                       0      28.629999999999995      2.0449999999999946
   257   1                       0      26.584999999999997      8.1799999999999997
   258   1                       0      28.629999999999995       6.134999999999998
   259   1                       0      26.584999999999997      12.269999999999996
   260   1                       0      28.629999999999995      10.224999999999998
   261   1                       0      26.584999999999997      16.359999999999999
   262   1                       0      28.629999999999995      14.314999999999998
   263   1                       0      26.584999999999997      20.449999999999996
   264   1                       0      28.629999999999995      18.404999999999998
   265   1                       0      26.584999999999997      24.539999999999999
   266   1                       0      28.629999999999995      22.494999999999994
   267   1                       0      26.584999999999997      28.629999999999995
   268   1                       0      28.629999999999995      26.584999999999997
   269   1                       0      26.584999999999997      32.719999999999999
   270   1                       0      28.629999999999995      30.674999999999997
   271   1                       0      26.584999999999997      36.810000000000002
   272   1                       0      28.629999999999995      34.765000000000001
   273   1                       0      26.584999999999997      40.899999999999999
   274   1                       0      28.629999999999995      38.854999999999997
   275   1                       0      26.584999999999997      44.989999999999988
   276   1                       0      28.629999999999995      42.944999999999993
   277   1                       0      26.584999999999997      49.079999999999998
   278   1                       0      28.629999999999995      47.034999999999997
   279   1                       0      26.584999999999997      53.170000000000002
   280   1                       0      28.629999999999995                  51.125
   281   1                       0      26.584999999999997      57.259999999999991
   282   1                       0      28.629999999999995      55.214999999999989
   283   1                       0      26.584999999999997      61.349999999999994
   284   1                       0      28.629999999999995      59.304999999999993
   285   1                       0      26.584999999999997      65.439999999999998
   286   1                       0      28.629999999999995      63.394999999999996
   287   1                       0      26.584999999999997      69.530000000000001
   288   1                       0      28.629999999999995      67.484999999999999
   289   1                       0      26.584999999999997      73.620000000000005
   290   1                       0      28.629999999999995      71.575000000000003
   291   1                       0      26.584999999999997      77.709999999999994
   292   1                       0      28.629999999999995      75.664999999999992
   293   1                       0      30.674999999999997                       0
   294   1                       0      30.674999999999997      4.0899999999999963
   295   1                       0      32.719999999999999      2.0449999999999946
   296   1                       0      30.674999999999997      8.1799999999999997
   297   1                       0      32.719999999999999       6.134999999999998
   298   1                       0      30.674999999999997      12.269999999999996
   299   1                       0      32.719999999999999      10.224999999999998
   300   1                       0      30.674999999999997      16.359999999999999
   301   1                       0      32.719999999999999      14.314999999999998
   302   1                       0      30.674999999999997      20.449999999999996
   303   1                       0      32.719999999999999      18.404999999999998
   304   1                       0      30.674999999999997      24.539999999999999
   305   1                       0      32.719999999999999      22.494999999999994
   306   1                       0      30.674999999999997      28.629999999999995
   307   1                       0      32.719999999999999      26.584999999999997
   308   1                       0      30.674999999999997      32.719999999999999
   309   1                       0      32.719999999999999      30.674999999999997
   310   1                       0      30.674999999999997      36.810000000000002
   311   1                       0      32.719999999999999      34.765000000000001
   312   1                       0      30.674999999999997      40.899999999999999
   313   1                       0      32.719999999999999      38.854999999999997
   314   1                       0      30.674999999999997      44.989999999999988
   315   1                       0      32.719999999999999      42.944999999999993
   316   1                       0      30.674999999999997      49.079999999999998
   317   1                       0      32.719999999999999      47.034999999999997
   318   1                       0      30.674999999999997      53.170000000000002
   319   1                       0      32.719999999999999                  51.125
   320   1                       0      30.674999999999997      57.259999999999991
   321   1                       0      32.719999999999999      55.214999999999989
   322   1                       0      30.674999999999997      61.349999999999994
   323   1                       0      32.719999999999999      59.304999999999993
   324   1                       0      30.674999999999997      65.439999999999998
   325   1                       0      32.719999999999999      63.394999999999996
   326   1                       0      30.674999999999997      69.530000000000001
   327   1                       0      32.719999999999999      67.484999999999999
   328   1                       0      30.674999999999997      73.620000000000005
   329   1                       0      32.719999999999999      71.575000000000003
   330   1                       0      30.674999999999997      77.709999999999994
   331   1                       0      32.719999999999999      75.664999999999992
   332   1                       0      34.765000000000001                       0
   333   1                       0      34.765000000000001      4.0899999999999963
   334   1                       0      36.810000000000002      2.0449999999999946
   335   1                       0      34.765000000000001      8.1799999999999997
   336   1                       0      36.810000000000002       6.134999999999998
   337   1                       0      34.765000000000001      12.269999999999996
   338   1                       0      36.810000000000002      10.224999999999998
   339   1                       0      34.765000000000001      16.359999999999999
   340   1                       0      36.810000000000002      14.314999999999998
   341   1                       0      34.765000000000001      20.449999999999996
   342   1                       0      36.810000000000002      18.404999999999998
   343   1                       0      34.765000000000001      24.539999999999999
   344   1                       0      36.810000000000002      22.494999999999994
   345   1                       0      34.765000000000001      28.629999999999995
   346   1                       0      36.810000000000002      26.584999999999997
   347   1                       0      34.765000000000001      32.719999999999999
   348   1                       0      36.810000000000002      30.674999999999997
   349   1                       0      34.765000000000001      36.810000000000002
   350   1                       0      36.810000000000002      34.765000000000001
   351   1                       0      34.765000000000001      40.899999999999999
   352   1                       0      36.810000000000002      38.854999999999997
   353   1                       0      34.765000000000001      44.989999999999988
   354   1                       0      36.810000000000002      42.944999999999993
   355   1                       0      34.765000000000001      49.079999999999998
   356   1                       0      36.810000000000002      47.034999999999997
   357   1                       0      34.765000000000001      53.170000000000002
   358   1                       0      36.810000000000002                  51.125