model_files/Ag/Ag_30000/Ag_530/data.Ag_530_fcc_29831 (written by ASE) 

29831 	 atoms 
1  atom types
0.0                     106  xlo xhi
0.0                     106  ylo yhi
0.0                     106  zlo zhi


Atoms 

     1   1      105.99999999999999      51.124999999999993      51.124999999999993
     2   1      2.0449999999999946      49.079999999999998      51.124999999999993
     3   1      2.0449999999999946      51.124999999999993      49.079999999999998
     4   1      105.99999999999999      51.124999999999993      55.214999999999989
     5   1      2.0449999999999946      49.079999999999998      55.214999999999989
     6   1      2.0449999999999946      51.124999999999993      53.169999999999995
     7   1      2.0449999999999946      51.124999999999993      57.259999999999991
     8   1      105.99999999999999      55.214999999999989      51.124999999999993
     9   1      2.0449999999999946      53.169999999999995      51.124999999999993
    10   1      2.0449999999999946      55.214999999999989      49.079999999999998
    11   1      105.99999999999999      53.169999999999995      53.169999999999995
    12   1      105.99999999999999      55.214999999999989      55.214999999999989
    13   1      2.0449999999999946      53.169999999999995      55.214999999999989
    14   1      2.0449999999999946      55.214999999999989      53.169999999999995
    15   1      2.0449999999999946      55.214999999999989      57.259999999999991
    16   1      2.0449999999999946      57.259999999999991      51.124999999999993
    17   1      2.0449999999999946      57.259999999999991      55.214999999999989
    18   1       6.134999999999998      40.899999999999991      42.944999999999993
    19   1       6.134999999999998      42.944999999999993      40.899999999999991
    20   1       6.134999999999998      40.899999999999991      47.034999999999997
    21   1       6.134999999999998      42.944999999999993      44.989999999999995
    22   1       6.134999999999998      40.899999999999991      51.124999999999993
    23   1       6.134999999999998      42.944999999999993      49.079999999999998
    24   1       6.134999999999998      40.899999999999991      55.214999999999989
    25   1       6.134999999999998      42.944999999999993      53.169999999999995
    26   1       6.134999999999998      40.899999999999991      59.304999999999986
    27   1       6.134999999999998      42.944999999999993      57.259999999999991
    28   1       6.134999999999998      40.899999999999991      63.394999999999996
    29   1       6.134999999999998      42.944999999999993      61.349999999999994
    30   1       6.134999999999998      42.944999999999993      65.439999999999984
    31   1       6.134999999999998      44.989999999999995      42.944999999999993
    32   1       6.134999999999998      47.034999999999997      40.899999999999991
    33   1      4.0899999999999963      44.989999999999995      44.989999999999995
    34   1      4.0899999999999963      47.034999999999997      47.034999999999997
    35   1       6.134999999999998      44.989999999999995      47.034999999999997
    36   1       6.134999999999998      47.034999999999997      44.989999999999995
    37   1      4.0899999999999963      44.989999999999995      49.079999999999998
    38   1      4.0899999999999963      47.034999999999997      51.124999999999993
    39   1       6.134999999999998      44.989999999999995      51.124999999999993
    40   1       6.134999999999998      47.034999999999997      49.079999999999998
    41   1      4.0899999999999963      44.989999999999995      53.169999999999995
    42   1      4.0899999999999963      47.034999999999997      55.214999999999989
    43   1       6.134999999999998      44.989999999999995      55.214999999999989
    44   1       6.134999999999998      47.034999999999997      53.169999999999995
    45   1      4.0899999999999963      44.989999999999995      57.259999999999991
    46   1      4.0899999999999963      47.034999999999997      59.304999999999986
    47   1       6.134999999999998      44.989999999999995      59.304999999999986
    48   1       6.134999999999998      47.034999999999997      57.259999999999991
    49   1      4.0899999999999963      44.989999999999995      61.349999999999994
    50   1       6.134999999999998      44.989999999999995      63.394999999999996
    51   1       6.134999999999998      47.034999999999997      61.349999999999994
    52   1       6.134999999999998      47.034999999999997      65.439999999999984
    53   1       6.134999999999998      49.079999999999998      42.944999999999993
    54   1       6.134999999999998      51.124999999999993      40.899999999999991
    55   1      4.0899999999999963      49.079999999999998      44.989999999999995
    56   1      4.0899999999999963      51.124999999999993      47.034999999999997
    57   1       6.134999999999998      49.079999999999998      47.034999999999997
    58   1       6.134999999999998      51.124999999999993      44.989999999999995
    59   1      4.0899999999999963      49.079999999999998      49.079999999999998
    60   1      4.0899999999999963      51.124999999999993      51.124999999999993
    61   1       6.134999999999998      49.079999999999998      51.124999999999993
    62   1       6.134999999999998      51.124999999999993      49.079999999999998
    63   1      4.0899999999999963      49.079999999999998      53.169999999999995
    64   1      4.0899999999999963      51.124999999999993      55.214999999999989
    65   1       6.134999999999998      49.079999999999998      55.214999999999989
    66   1       6.134999999999998      51.124999999999993      53.169999999999995
    67   1      4.0899999999999963      49.079999999999998      57.259999999999991
    68   1      4.0899999999999963      51.124999999999993      59.304999999999986
    69   1       6.134999999999998      49.079999999999998      59.304999999999986
    70   1       6.134999999999998      51.124999999999993      57.259999999999991
    71   1      4.0899999999999963      49.079999999999998      61.349999999999994
    72   1       6.134999999999998      49.079999999999998      63.394999999999996
    73   1       6.134999999999998      51.124999999999993      61.349999999999994
    74   1       6.134999999999998      51.124999999999993      65.439999999999984
    75   1       6.134999999999998      53.169999999999995      42.944999999999993
    76   1       6.134999999999998      55.214999999999989      40.899999999999991
    77   1      4.0899999999999963      53.169999999999995      44.989999999999995
    78   1      4.0899999999999963      55.214999999999989      47.034999999999997
    79   1       6.134999999999998      53.169999999999995      47.034999999999997
    80   1       6.134999999999998      55.214999999999989      44.989999999999995
    81   1      4.0899999999999963      53.169999999999995      49.079999999999998
    82   1      4.0899999999999963      55.214999999999989      51.124999999999993
    83   1       6.134999999999998      53.169999999999995      51.124999999999993
    84   1       6.134999999999998      55.214999999999989      49.079999999999998
    85   1      4.0899999999999963      53.169999999999995      53.169999999999995
    86   1      4.0899999999999963      55.214999999999989      55.214999999999989
    87   1       6.134999999999998      53.169999999999995      55.214999999999989
    88   1       6.134999999999998      55.214999999999989      53.169999999999995
    89   1      4.0899999999999963      53.169999999999995      57.259999999999991
    90   1      4.0899999999999963      55.214999999999989      59.304999999999986
    91   1       6.134999999999998      53.169999999999995      59.304999999999986
    92   1       6.134999999999998      55.214999999999989      57.259999999999991
    93   1      4.0899999999999963      53.169999999999995      61.349999999999994
    94   1       6.134999999999998      53.169999999999995      63.394999999999996
    95   1       6.134999999999998      55.214999999999989      61.349999999999994
    96   1       6.134999999999998      55.214999999999989      65.439999999999984
    97   1       6.134999999999998      57.259999999999991      42.944999999999993
    98   1       6.134999999999998      59.304999999999986      40.899999999999991
    99   1      4.0899999999999963      57.259999999999991      44.989999999999995
   100   1      4.0899999999999963      59.304999999999986      47.034999999999997
   101   1       6.134999999999998      57.259999999999991      47.034999999999997
   102   1       6.134999999999998      59.304999999999986      44.989999999999995
   103   1      4.0899999999999963      57.259999999999991      49.079999999999998
   104   1      4.0899999999999963      59.304999999999986      51.124999999999993
   105   1       6.134999999999998      57.259999999999991      51.124999999999993
   106   1       6.134999999999998      59.304999999999986      49.079999999999998
   107   1      4.0899999999999963      57.259999999999991      53.169999999999995
   108   1      4.0899999999999963      59.304999999999986      55.214999999999989
   109   1       6.134999999999998      57.259999999999991      55.214999999999989
   110   1       6.134999999999998      59.304999999999986      53.169999999999995
   111   1      4.0899999999999963      57.259999999999991      57.259999999999991
   112   1      4.0899999999999963      59.304999999999986      59.304999999999986
   113   1       6.134999999999998      57.259999999999991      59.304999999999986
   114   1       6.134999999999998      59.304999999999986      57.259999999999991
   115   1      4.0899999999999963      57.259999999999991      61.349999999999994
   116   1       6.134999999999998      57.259999999999991      63.394999999999996
   117   1       6.134999999999998      59.304999999999986      61.349999999999994
   118   1       6.134999999999998      59.304999999999986      65.439999999999984
   119   1       6.134999999999998      61.349999999999994      42.944999999999993
   120   1       6.134999999999998      63.394999999999996      40.899999999999991
   121   1      4.0899999999999963      61.349999999999994      44.989999999999995
   122   1       6.134999999999998      61.349999999999994      47.034999999999997
   123   1       6.134999999999998      63.394999999999996      44.989999999999995
   124   1      4.0899999999999963      61.349999999999994      49.079999999999998
   125   1       6.134999999999998      61.349999999999994      51.124999999999993
   126   1       6.134999999999998      63.394999999999996      49.079999999999998
   127   1      4.0899999999999963      61.349999999999994      53.169999999999995
   128   1       6.134999999999998      61.349999999999994      55.214999999999989
   129   1       6.134999999999998      63.394999999999996      53.169999999999995
   130   1      4.0899999999999963      61.349999999999994      57.259999999999991
   131   1       6.134999999999998      61.349999999999994      59.304999999999986
   132   1       6.134999999999998      63.394999999999996      57.259999999999991
   133   1      4.0899999999999963      61.349999999999994      61.349999999999994
   134   1       6.134999999999998      61.349999999999994      63.394999999999996
   135   1       6.134999999999998      63.394999999999996      61.349999999999994
   136   1       6.134999999999998      63.394999999999996      65.439999999999984
   137   1       6.134999999999998      65.439999999999984      42.944999999999993
   138   1       6.134999999999998      65.439999999999984      47.034999999999997
   139   1       6.134999999999998      65.439999999999984      51.124999999999993
   140   1       6.134999999999998      65.439999999999984      55.214999999999989
   141   1       6.134999999999998      65.439999999999984      59.304999999999986
   142   1       6.134999999999998      65.439999999999984      63.394999999999996
   143   1      10.224999999999993      34.765000000000001      36.809999999999995
   144   1      10.224999999999993      34.765000000000001      40.899999999999991
   145   1      10.224999999999993      34.765000000000001      44.989999999999995
   146   1      10.224999999999993      34.765000000000001      49.079999999999998
   147   1      10.224999999999993      34.765000000000001      53.169999999999995
   148   1      10.224999999999993      34.765000000000001      57.259999999999991
   149   1      10.224999999999993      34.765000000000001      61.349999999999994
   150   1      10.224999999999993      34.765000000000001      65.439999999999984
   151   1      10.224999999999993      34.765000000000001      69.530000000000001
   152   1      10.224999999999993      36.809999999999995      34.765000000000001
   153   1      8.1799999999999979      38.854999999999997      38.854999999999997
   154   1      10.224999999999993      36.809999999999995      38.854999999999997
   155   1      10.224999999999993      38.854999999999997      36.809999999999995
   156   1      8.1799999999999979      38.854999999999997      42.944999999999993
   157   1      10.224999999999993      36.809999999999995      42.944999999999993
   158   1      10.224999999999993      38.854999999999997      40.899999999999991
   159   1      8.1799999999999979      38.854999999999997      47.034999999999997
   160   1      10.224999999999993      36.809999999999995      47.034999999999997
   161   1      10.224999999999993      38.854999999999997      44.989999999999995
   162   1      8.1799999999999979      38.854999999999997      51.124999999999993
   163   1      10.224999999999993      36.809999999999995      51.124999999999993
   164   1      10.224999999999993      38.854999999999997      49.079999999999998
   165   1      8.1799999999999979      38.854999999999997      55.214999999999989
   166   1      10.224999999999993      36.809999999999995      55.214999999999989
   167   1      10.224999999999993      38.854999999999997      53.169999999999995
   168   1      8.1799999999999979      38.854999999999997      59.304999999999986
   169   1      10.224999999999993      36.809999999999995      59.304999999999986
   170   1      10.224999999999993      38.854999999999997      57.259999999999991
   171   1      8.1799999999999979      38.854999999999997      63.394999999999996
   172   1      10.224999999999993      36.809999999999995      63.394999999999996
   173   1      10.224999999999993      38.854999999999997      61.349999999999994
   174   1      8.1799999999999979      38.854999999999997      67.484999999999999
   175   1      10.224999999999993      36.809999999999995      67.484999999999999
   176   1      10.224999999999993      38.854999999999997      65.439999999999984
   177   1      10.224999999999993      36.809999999999995      71.574999999999989
   178   1      10.224999999999993      38.854999999999997      69.530000000000001
   179   1      10.224999999999993      40.899999999999991      34.765000000000001
   180   1      8.1799999999999979      42.944999999999993      38.854999999999997
   181   1      10.224999999999993      40.899999999999991      38.854999999999997
   182   1      10.224999999999993      42.944999999999993      36.809999999999995
   183   1      8.1799999999999979      40.899999999999991      40.899999999999991
   184   1      8.1799999999999979      42.944999999999993      42.944999999999993
   185   1      10.224999999999993      40.899999999999991      42.944999999999993
   186   1      10.224999999999993      42.944999999999993      40.899999999999991
   187   1      8.1799999999999979      40.899999999999991      44.989999999999995
   188   1      8.1799999999999979      42.944999999999993      47.034999999999997
   189   1      10.224999999999993      40.899999999999991      47.034999999999997
   190   1      10.224999999999993      42.944999999999993      44.989999999999995
   191   1      8.1799999999999979      40.899999999999991      49.079999999999998
   192   1      8.1799999999999979      42.944999999999993      51.124999999999993
   193   1      10.224999999999993      40.899999999999991      51.124999999999993
   194   1      10.224999999999993      42.944999999999993      49.079999999999998
   195   1      8.1799999999999979      40.899999999999991      53.169999999999995
   196   1      8.1799999999999979      42.944999999999993      55.214999999999989
   197   1      10.224999999999993      40.899999999999991      55.214999999999989
   198   1      10.224999999999993      42.944999999999993      53.169999999999995
   199   1      8.1799999999999979      40.899999999999991      57.259999999999991
   200   1      8.1799999999999979      42.944999999999993      59.304999999999986
   201   1      10.224999999999993      40.899999999999991      59.304999999999986
   202   1      10.224999999999993      42.944999999999993      57.259999999999991
   203   1      8.1799999999999979      40.899999999999991      61.349999999999994
   204   1      8.1799999999999979      42.944999999999993      63.394999999999996
   205   1      10.224999999999993      40.899999999999991      63.394999999999996
   206   1      10.224999999999993      42.944999999999993      61.349999999999994
   207   1      8.1799999999999979      40.899999999999991      65.439999999999984
   208   1      8.1799999999999979      42.944999999999993      67.484999999999999
   209   1      10.224999999999993      40.899999999999991      67.484999999999999
   210   1      10.224999999999993      42.944999999999993      65.439999999999984
   211   1      10.224999999999993      40.899999999999991      71.574999999999989
   212   1      10.224999999999993      42.944999999999993      69.530000000000001
   213   1      10.224999999999993      44.989999999999995      34.765000000000001
   214   1      8.1799999999999979      47.034999999999997      38.854999999999997
   215   1      10.224999999999993      44.989999999999995      38.854999999999997
   216   1      10.224999999999993      47.034999999999997      36.809999999999995
   217   1      8.1799999999999979      44.989999999999995      40.899999999999991
   218   1      8.1799999999999979      47.034999999999997      42.944999999999993
   219   1      10.224999999999993      44.989999999999995      42.944999999999993
   220   1      10.224999999999993      47.034999999999997      40.899999999999991
   221   1      8.1799999999999979      44.989999999999995      44.989999999999995
   222   1      8.1799999999999979      47.034999999999997      47.034999999999997
   223   1      10.224999999999993      44.989999999999995      47.034999999999997
   224   1      10.224999999999993      47.034999999999997      44.989999999999995
   225   1      8.1799999999999979      44.989999999999995      49.079999999999998
   226   1      8.1799999999999979      47.034999999999997      51.124999999999993
   227   1      10.224999999999993      44.989999999999995      51.124999999999993
   228   1      10.224999999999993      47.034999999999997      49.079999999999998
   229   1      8.1799999999999979      44.989999999999995      53.169999999999995
   230   1      8.1799999999999979      47.034999999999997      55.214999999999989
   231   1      10.224999999999993      44.989999999999995      55.214999999999989
   232   1      10.224999999999993      47.034999999999997      53.169999999999995
   233   1      8.1799999999999979      44.989999999999995      57.259999999999991
   234   1      8.1799999999999979      47.034999999999997      59.304999999999986
   235   1      10.224999999999993      44.989999999999995      59.304999999999986
   236   1      10.224999999999993      47.034999999999997      57.259999999999991
   237   1      8.1799999999999979      44.989999999999995      61.349999999999994
   238   1      8.1799999999999979      47.034999999999997      63.394999999999996
   239   1      10.224999999999993      44.989999999999995      63.394999999999996
   240   1      10.224999999999993      47.034999999999997      61.349999999999994
   241   1      8.1799999999999979      44.989999999999995      65.439999999999984
   242   1      8.1799999999999979      47.034999999999997      67.484999999999999
   243   1      10.224999999999993      44.989999999999995      67.484999999999999
   244   1      10.224999999999993      47.034999999999997      65.439999999999984
   245   1      10.224999999999993      44.989999999999995      71.574999999999989
   246   1      10.224999999999993      47.034999999999997      69.530000000000001
   247   1      10.224999999999993      49.079999999999998      34.765000000000001
   248   1      8.1799999999999979      51.124999999999993      38.854999999999997
   249   1      10.224999999999993      49.079999999999998      38.854999999999997
   250   1      10.224999999999993      51.124999999999993      36.809999999999995
   251   1      8.1799999999999979      49.079999999999998      40.899999999999991
   252   1      8.1799999999999979      51.124999999999993      42.944999999999993
   253   1      10.224999999999993      49.079999999999998      42.944999999999993
   254   1      10.224999999999993      51.124999999999993      40.899999999999991
   255   1      8.1799999999999979      49.079999999999998      44.989999999999995
   256   1      8.1799999999999979      51.124999999999993      47.034999999999997
   257   1      10.224999999999993      49.079999999999998      47.034999999999997
   258   1      10.224999999999993      51.124999999999993      44.989999999999995
   259   1      8.1799999999999979      49.079999999999998      49.079999999999998
   260   1      8.1799999999999979      51.124999999999993      51.124999999999993
   261   1      10.224999999999993      49.079999999999998      51.124999999999993
   262   1      10.224999999999993      51.124999999999993      49.079999999999998
   263   1      8.1799999999999979      49.079999999999998      53.169999999999995
   264   1      8.1799999999999979      51.124999999999993      55.214999999999989
   265   1      10.224999999999993      49.079999999999998      55.214999999999989
   266   1      10.224999999999993      51.124999999999993      53.169999999999995
   267   1      8.1799999999999979      49.079999999999998      57.259999999999991
   268   1      8.1799999999999979      51.124999999999993      59.304999999999986
   269   1      10.224999999999993      49.079999999999998      59.304999999999986
   270   1      10.224999999999993      51.124999999999993      57.259999999999991
   271   1      8.1799999999999979      49.079999999999998      61.349999999999994
   272   1      8.1799999999999979      51.124999999999993      63.394999999999996
   273   1      10.224999999999993      49.079999999999998      63.394999999999996
   274   1      10.224999999999993      51.124999999999993      61.349999999999994
   275   1      8.1799999999999979      49.079999999999998      65.439999999999984
   276   1      8.1799999999999979      51.124999999999993      67.484999999999999
   277   1      10.224999999999993      49.079999999999998      67.484999999999999
   278   1      10.224999999999993      51.124999999999993      65.439999999999984
   279   1      10.224999999999993      49.079999999999998      71.574999999999989
   280   1      10.224999999999993      51.124999999999993      69.530000000000001
   281   1      10.224999999999993      53.169999999999995      34.765000000000001
   282   1      8.1799999999999979      55.214999999999989      38.854999999999997
   283   1      10.224999999999993      53.169999999999995      38.854999999999997
   284   1      10.224999999999993      55.214999999999989      36.809999999999995
   285   1      8.1799999999999979      53.169999999999995      40.899999999999991
   286   1      8.1799999999999979      55.214999999999989      42.944999999999993
   287   1      10.224999999999993      53.169999999999995      42.944999999999993
   288   1      10.224999999999993      55.214999999999989      40.899999999999991
   289   1      8.1799999999999979      53.169999999999995      44.989999999999995
   290   1      8.1799999999999979      55.214999999999989      47.034999999999997
   291   1      10.224999999999993      53.169999999999995      47.034999999999997
   292   1      10.224999999999993      55.214999999999989      44.989999999999995
   293   1      8.1799999999999979      53.169999999999995      49.079999999999998
   294   1      8.1799999999999979      55.214999999999989      51.124999999999993
   295   1      10.224999999999993      53.169999999999995      51.124999999999993
   296   1      10.224999999999993      55.214999999999989      49.079999999999998
   297   1      8.1799999999999979      53.169999999999995      53.169999999999995
   298   1      8.1799999999999979      55.214999999999989      55.214999999999989
   299   1      10.224999999999993      53.169999999999995      55.214999999999989
   300   1      10.224999999999993      55.214999999999989      53.169999999999995
   301   1      8.1799999999999979      53.169999999999995      57.259999999999991
   302   1      8.1799999999999979      55.214999999999989      59.304999999999986
   303   1      10.224999999999993      53.169999999999995      59.304999999999986
   304   1      10.224999999999993      55.214999999999989      57.259999999999991
   305   1      8.1799999999999979      53.169999999999995      61.349999999999994
   306   1      8.1799999999999979      55.214999999999989      63.394999999999996
   307   1      10.224999999999993      53.169999999999995      63.394999999999996
   308   1      10.224999999999993      55.214999999999989      61.349999999999994
   309   1      8.1799999999999979      53.169999999999995      65.439999999999984
   310   1      8.1799999999999979      55.214999999999989      67.484999999999999
   311   1      10.224999999999993      53.169999999999995      67.484999999999999
   312   1      10.224999999999993      55.214999999999989      65.439999999999984
   313   1      10.224999999999993      53.169999999999995      71.574999999999989
   314   1      10.224999999999993      55.214999999999989      69.530000000000001
   315   1      10.224999999999993      57.259999999999991      34.765000000000001
   316   1      8.1799999999999979      59.304999999999986      38.854999999999997
   317   1      10.224999999999993      57.259999999999991      38.854999999999997
   318   1      10.224999999999993      59.304999999999986      36.809999999999995
   319   1      8.1799999999999979      57.259999999999991      40.899999999999991
   320   1      8.1799999999999979      59.304999999999986      42.944999999999993
   321   1      10.224999999999993      57.259999999999991      42.944999999999993
   322   1      10.224999999999993      59.304999999999986      40.899999999999991
   323   1      8.1799999999999979      57.259999999999991      44.989999999999995
   324   1      8.1799999999999979      59.304999999999986      47.034999999999997
   325   1      10.224999999999993      57.259999999999991      47.034999999999997
   326   1      10.224999999999993      59.304999999999986      44.989999999999995
   327   1      8.1799999999999979      57.259999999999991      49.079999999999998
   328   1      8.1799999999999979      59.304999999999986      51.124999999999993
   329   1      10.224999999999993      57.259999999999991      51.124999999999993
   330   1      10.224999999999993      59.304999999999986      49.079999999999998
   331   1      8.1799999999999979      57.259999999999991      53.169999999999995
   332   1      8.1799999999999979      59.304999999999986      55.214999999999989
   333   1      10.224999999999993      57.259999999999991      55.214999999999989
   334   1      10.224999999999993      59.304999999999986      53.169999999999995
   335   1      8.1799999999999979      57.259999999999991      57.259999999999991
   336   1      8.1799999999999979      59.304999999999986      59.304999999999986
   337   1      10.224999999999993      57.259999999999991      59.304999999999986
   338   1      10.224999999999993      59.304999999999986      57.259999999999991
   339   1      8.1799999999999979      57.259999999999991      61.349999999999994
   340   1      8.1799999999999979      59.304999999999986      63.394999999999996
   341   1      10.224999999999993      57.259999999999991      63.394999999999996
   342   1      10.224999999999993      59.304999999999986      61.349999999999994
   343   1      8.1799999999999979      57.259999999999991      65.439999999999984
   344   1      8.1799999999999979      59.304999999999986      67.484999999999999
   345   1      10.224999999999993      57.259999999999991      67.484999999999999
   346   1      10.224999999999993      59.304999999999986      65.439999999999984
   347   1      10.224999999999993      57.259999999999991      71.574999999999989
   348   1      10.224999999999993      59.304999999999986      69.530000000000001
   349   1      10.224999999999993      61.349999999999994      34.765000000000001
   350   1      8.1799999999999979      63.394999999999996      38.854999999999997
   351   1      10.224999999999993      61.349999999999994      38.854999999999997
   352   1      10.224999999999993      63.394999999999996      36.809999999999995
   353   1      8.1799999999999979      61.349999999999994      40.899999999999991
   354   1      8.1799999999999979      63.394999999999996      42.944999999999993
   355   1      10.224999999999993      61.349999999999994      42.944999999999993
   356   1      10.224999999999993      63.394999999999996      40.899999999999991
   357   1      8.1799999999999979      61.349999999999994      44.989999999999995
   358   1      8.1799999999999979      63.394999999999996      47.034999999999997