model_files/Pt/Pt_10000/Pt_431/data.Pt_431_fcc_10001 (written by ASE) 

10001 	 atoms 
1  atom types
0.0                      78  xlo xhi
0.0                      78  ylo yhi
0.0                      78  zlo zhi


Atoms 

     1   1      1.9600000000000009      37.240000000000002      39.199999999999989
     2   1      1.9600000000000009      39.199999999999989      37.240000000000002
     3   1                       0      39.199999999999989      39.199999999999989
     4   1      1.9600000000000009      39.199999999999989      41.159999999999997
     5   1      1.9600000000000009      41.159999999999997      39.199999999999989
     6   1      3.9199999999999946                   33.32      37.240000000000002
     7   1      5.8800000000000017      31.359999999999999      37.240000000000002
     8   1      5.8800000000000017                   33.32      35.280000000000001
     9   1      3.9199999999999946                   33.32      41.159999999999997
    10   1      5.8800000000000017      31.359999999999999      41.159999999999997
    11   1      5.8800000000000017                   33.32      39.199999999999989
    12   1      5.8800000000000017                   33.32      43.119999999999997
    13   1      3.9199999999999946      37.240000000000002                   33.32
    14   1      5.8800000000000017      35.280000000000001                   33.32
    15   1      5.8800000000000017      37.240000000000002      31.359999999999999
    16   1      3.9199999999999946      35.280000000000001      35.280000000000001
    17   1      3.9199999999999946      37.240000000000002      37.240000000000002
    18   1      5.8800000000000017      35.280000000000001      37.240000000000002
    19   1      5.8800000000000017      37.240000000000002      35.280000000000001
    20   1      3.9199999999999946      35.280000000000001      39.199999999999989
    21   1      3.9199999999999946      37.240000000000002      41.159999999999997
    22   1      5.8800000000000017      35.280000000000001      41.159999999999997
    23   1      5.8800000000000017      37.240000000000002      39.199999999999989
    24   1      3.9199999999999946      35.280000000000001      43.119999999999997
    25   1      3.9199999999999946      37.240000000000002      45.079999999999998
    26   1      5.8800000000000017      35.280000000000001      45.079999999999998
    27   1      5.8800000000000017      37.240000000000002      43.119999999999997
    28   1      5.8800000000000017      37.240000000000002      47.039999999999999
    29   1      3.9199999999999946      41.159999999999997                   33.32
    30   1      5.8800000000000017      39.199999999999989                   33.32
    31   1      5.8800000000000017      41.159999999999997      31.359999999999999
    32   1      3.9199999999999946      39.199999999999989      35.280000000000001
    33   1      3.9199999999999946      41.159999999999997      37.240000000000002
    34   1      5.8800000000000017      39.199999999999989      37.240000000000002
    35   1      5.8800000000000017      41.159999999999997      35.280000000000001
    36   1      3.9199999999999946      39.199999999999989      39.199999999999989
    37   1      3.9199999999999946      41.159999999999997      41.159999999999997
    38   1      5.8800000000000017      39.199999999999989      41.159999999999997
    39   1      5.8800000000000017      41.159999999999997      39.199999999999989
    40   1      3.9199999999999946      39.199999999999989      43.119999999999997
    41   1      3.9199999999999946      41.159999999999997      45.079999999999998
    42   1      5.8800000000000017      39.199999999999989      45.079999999999998
    43   1      5.8800000000000017      41.159999999999997      43.119999999999997
    44   1      5.8800000000000017      41.159999999999997      47.039999999999999
    45   1      5.8800000000000017      43.119999999999997                   33.32
    46   1      3.9199999999999946      43.119999999999997      35.280000000000001
    47   1      3.9199999999999946      45.079999999999998      37.240000000000002
    48   1      5.8800000000000017      43.119999999999997      37.240000000000002
    49   1      5.8800000000000017      45.079999999999998      35.280000000000001
    50   1      3.9199999999999946      43.119999999999997      39.199999999999989
    51   1      3.9199999999999946      45.079999999999998      41.159999999999997
    52   1      5.8800000000000017      43.119999999999997      41.159999999999997
    53   1      5.8800000000000017      45.079999999999998      39.199999999999989
    54   1      3.9199999999999946      43.119999999999997      43.119999999999997
    55   1      5.8800000000000017      43.119999999999997      45.079999999999998
    56   1      5.8800000000000017      45.079999999999998      43.119999999999997
    57   1      5.8800000000000017      47.039999999999999      37.240000000000002
    58   1      5.8800000000000017      47.039999999999999      41.159999999999997
    59   1      9.7999999999999972      25.479999999999997      39.199999999999989
    60   1      7.8399999999999954      29.399999999999999                   33.32
    61   1      9.7999999999999972      27.439999999999994                   33.32
    62   1      9.7999999999999972      29.399999999999999      31.359999999999999
    63   1      7.8399999999999954      29.399999999999999      37.240000000000002
    64   1      9.7999999999999972      27.439999999999994      37.240000000000002
    65   1      9.7999999999999972      29.399999999999999      35.280000000000001
    66   1      7.8399999999999954      27.439999999999994      39.199999999999989
    67   1      7.8399999999999954      29.399999999999999      41.159999999999997
    68   1      9.7999999999999972      27.439999999999994      41.159999999999997
    69   1      9.7999999999999972      29.399999999999999      39.199999999999989
    70   1      7.8399999999999954      29.399999999999999      45.079999999999998
    71   1      9.7999999999999972      27.439999999999994      45.079999999999998
    72   1      9.7999999999999972      29.399999999999999      43.119999999999997
    73   1      9.7999999999999972      29.399999999999999      47.039999999999999
    74   1      7.8399999999999954                   33.32      29.399999999999999
    75   1      9.7999999999999972      31.359999999999999      29.399999999999999
    76   1      9.7999999999999972                   33.32      27.439999999999994
    77   1      7.8399999999999954      31.359999999999999      31.359999999999999
    78   1      7.8399999999999954                   33.32                   33.32
    79   1      9.7999999999999972      31.359999999999999                   33.32
    80   1      9.7999999999999972                   33.32      31.359999999999999
    81   1      7.8399999999999954      31.359999999999999      35.280000000000001
    82   1      7.8399999999999954                   33.32      37.240000000000002
    83   1      9.7999999999999972      31.359999999999999      37.240000000000002
    84   1      9.7999999999999972                   33.32      35.280000000000001
    85   1      7.8399999999999954      31.359999999999999      39.199999999999989
    86   1      7.8399999999999954                   33.32      41.159999999999997
    87   1      9.7999999999999972      31.359999999999999      41.159999999999997
    88   1      9.7999999999999972                   33.32      39.199999999999989
    89   1      7.8399999999999954      31.359999999999999      43.119999999999997
    90   1      7.8399999999999954                   33.32      45.079999999999998
    91   1      9.7999999999999972      31.359999999999999      45.079999999999998
    92   1      9.7999999999999972                   33.32      43.119999999999997
    93   1      7.8399999999999954      31.359999999999999      47.039999999999999
    94   1      7.8399999999999954                   33.32                      49
    95   1      9.7999999999999972      31.359999999999999                      49
    96   1      9.7999999999999972                   33.32      47.039999999999999
    97   1      9.7999999999999972                   33.32      50.959999999999994
    98   1      7.8399999999999954      37.240000000000002      29.399999999999999
    99   1      9.7999999999999972      35.280000000000001      29.399999999999999
   100   1      9.7999999999999972      37.240000000000002      27.439999999999994
   101   1      7.8399999999999954      35.280000000000001      31.359999999999999
   102   1      7.8399999999999954      37.240000000000002                   33.32
   103   1      9.7999999999999972      35.280000000000001                   33.32
   104   1      9.7999999999999972      37.240000000000002      31.359999999999999
   105   1      7.8399999999999954      35.280000000000001      35.280000000000001
   106   1      7.8399999999999954      37.240000000000002      37.240000000000002
   107   1      9.7999999999999972      35.280000000000001      37.240000000000002
   108   1      9.7999999999999972      37.240000000000002      35.280000000000001
   109   1      7.8399999999999954      35.280000000000001      39.199999999999989
   110   1      7.8399999999999954      37.240000000000002      41.159999999999997
   111   1      9.7999999999999972      35.280000000000001      41.159999999999997
   112   1      9.7999999999999972      37.240000000000002      39.199999999999989
   113   1      7.8399999999999954      35.280000000000001      43.119999999999997
   114   1      7.8399999999999954      37.240000000000002      45.079999999999998
   115   1      9.7999999999999972      35.280000000000001      45.079999999999998
   116   1      9.7999999999999972      37.240000000000002      43.119999999999997
   117   1      7.8399999999999954      35.280000000000001      47.039999999999999
   118   1      7.8399999999999954      37.240000000000002                      49
   119   1      9.7999999999999972      35.280000000000001                      49
   120   1      9.7999999999999972      37.240000000000002      47.039999999999999
   121   1      9.7999999999999972      37.240000000000002      50.959999999999994
   122   1      9.7999999999999972      39.199999999999989      25.479999999999997
   123   1      7.8399999999999954      39.199999999999989      27.439999999999994
   124   1      7.8399999999999954      41.159999999999997      29.399999999999999
   125   1      9.7999999999999972      39.199999999999989      29.399999999999999
   126   1      9.7999999999999972      41.159999999999997      27.439999999999994
   127   1      7.8399999999999954      39.199999999999989      31.359999999999999
   128   1      7.8399999999999954      41.159999999999997                   33.32
   129   1      9.7999999999999972      39.199999999999989                   33.32
   130   1      9.7999999999999972      41.159999999999997      31.359999999999999
   131   1      7.8399999999999954      39.199999999999989      35.280000000000001
   132   1      7.8399999999999954      41.159999999999997      37.240000000000002
   133   1      9.7999999999999972      39.199999999999989      37.240000000000002
   134   1      9.7999999999999972      41.159999999999997      35.280000000000001
   135   1      7.8399999999999954      39.199999999999989      39.199999999999989
   136   1      7.8399999999999954      41.159999999999997      41.159999999999997
   137   1      9.7999999999999972      39.199999999999989      41.159999999999997
   138   1      9.7999999999999972      41.159999999999997      39.199999999999989
   139   1      7.8399999999999954      39.199999999999989      43.119999999999997
   140   1      7.8399999999999954      41.159999999999997      45.079999999999998
   141   1      9.7999999999999972      39.199999999999989      45.079999999999998
   142   1      9.7999999999999972      41.159999999999997      43.119999999999997
   143   1      7.8399999999999954      39.199999999999989      47.039999999999999
   144   1      7.8399999999999954      41.159999999999997                      49
   145   1      9.7999999999999972      39.199999999999989                      49
   146   1      9.7999999999999972      41.159999999999997      47.039999999999999
   147   1      7.8399999999999954      39.199999999999989      50.959999999999994
   148   1      9.7999999999999972      39.199999999999989      52.919999999999987
   149   1      9.7999999999999972      41.159999999999997      50.959999999999994
   150   1      7.8399999999999954      45.079999999999998      29.399999999999999
   151   1      9.7999999999999972      43.119999999999997      29.399999999999999
   152   1      9.7999999999999972      45.079999999999998      27.439999999999994
   153   1      7.8399999999999954      43.119999999999997      31.359999999999999
   154   1      7.8399999999999954      45.079999999999998                   33.32
   155   1      9.7999999999999972      43.119999999999997                   33.32
   156   1      9.7999999999999972      45.079999999999998      31.359999999999999
   157   1      7.8399999999999954      43.119999999999997      35.280000000000001
   158   1      7.8399999999999954      45.079999999999998      37.240000000000002
   159   1      9.7999999999999972      43.119999999999997      37.240000000000002
   160   1      9.7999999999999972      45.079999999999998      35.280000000000001
   161   1      7.8399999999999954      43.119999999999997      39.199999999999989
   162   1      7.8399999999999954      45.079999999999998      41.159999999999997
   163   1      9.7999999999999972      43.119999999999997      41.159999999999997
   164   1      9.7999999999999972      45.079999999999998      39.199999999999989
   165   1      7.8399999999999954      43.119999999999997      43.119999999999997
   166   1      7.8399999999999954      45.079999999999998      45.079999999999998
   167   1      9.7999999999999972      43.119999999999997      45.079999999999998
   168   1      9.7999999999999972      45.079999999999998      43.119999999999997
   169   1      7.8399999999999954      43.119999999999997      47.039999999999999
   170   1      7.8399999999999954      45.079999999999998                      49
   171   1      9.7999999999999972      43.119999999999997                      49
   172   1      9.7999999999999972      45.079999999999998      47.039999999999999
   173   1      9.7999999999999972      45.079999999999998      50.959999999999994
   174   1      9.7999999999999972      47.039999999999999      29.399999999999999
   175   1      7.8399999999999954      47.039999999999999      31.359999999999999
   176   1      7.8399999999999954                      49                   33.32
   177   1      9.7999999999999972      47.039999999999999                   33.32
   178   1      9.7999999999999972                      49      31.359999999999999
   179   1      7.8399999999999954      47.039999999999999      35.280000000000001
   180   1      7.8399999999999954                      49      37.240000000000002
   181   1      9.7999999999999972      47.039999999999999      37.240000000000002
   182   1      9.7999999999999972                      49      35.280000000000001
   183   1      7.8399999999999954      47.039999999999999      39.199999999999989
   184   1      7.8399999999999954                      49      41.159999999999997
   185   1      9.7999999999999972      47.039999999999999      41.159999999999997
   186   1      9.7999999999999972                      49      39.199999999999989
   187   1      7.8399999999999954      47.039999999999999      43.119999999999997
   188   1      7.8399999999999954                      49      45.079999999999998
   189   1      9.7999999999999972      47.039999999999999      45.079999999999998
   190   1      9.7999999999999972                      49      43.119999999999997
   191   1      7.8399999999999954      47.039999999999999      47.039999999999999
   192   1      9.7999999999999972      47.039999999999999                      49
   193   1      9.7999999999999972                      49      47.039999999999999
   194   1      9.7999999999999972      50.959999999999994                   33.32
   195   1      9.7999999999999972      50.959999999999994      37.240000000000002
   196   1      7.8399999999999954      50.959999999999994      39.199999999999989
   197   1      9.7999999999999972      50.959999999999994      41.159999999999997
   198   1      9.7999999999999972      52.919999999999987      39.199999999999989
   199   1      9.7999999999999972      50.959999999999994      45.079999999999998
   200   1      13.719999999999997      21.559999999999999      35.280000000000001
   201   1      13.719999999999997      21.559999999999999      39.199999999999989
   202   1      13.719999999999997      21.559999999999999      43.119999999999997
   203   1      11.759999999999998      25.479999999999997      29.399999999999999
   204   1      13.719999999999997      23.519999999999996      29.399999999999999
   205   1      13.719999999999997      25.479999999999997      27.439999999999994
   206   1      11.759999999999998      25.479999999999997                   33.32
   207   1      13.719999999999997      23.519999999999996                   33.32
   208   1      13.719999999999997      25.479999999999997      31.359999999999999
   209   1      11.759999999999998      23.519999999999996      35.280000000000001
   210   1      11.759999999999998      25.479999999999997      37.240000000000002
   211   1      13.719999999999997      23.519999999999996      37.240000000000002
   212   1      13.719999999999997      25.479999999999997      35.280000000000001
   213   1      11.759999999999998      23.519999999999996      39.199999999999989
   214   1      11.759999999999998      25.479999999999997      41.159999999999997
   215   1      13.719999999999997      23.519999999999996      41.159999999999997
   216   1      13.719999999999997      25.479999999999997      39.199999999999989
   217   1      11.759999999999998      23.519999999999996      43.119999999999997
   218   1      11.759999999999998      25.479999999999997      45.079999999999998
   219   1      13.719999999999997      23.519999999999996      45.079999999999998
   220   1      13.719999999999997      25.479999999999997      43.119999999999997
   221   1      11.759999999999998      25.479999999999997                      49
   222   1      13.719999999999997      23.519999999999996                      49
   223   1      13.719999999999997      25.479999999999997      47.039999999999999
   224   1      13.719999999999997      25.479999999999997      50.959999999999994
   225   1      11.759999999999998      29.399999999999999      25.479999999999997
   226   1      13.719999999999997      27.439999999999994      25.479999999999997
   227   1      13.719999999999997      29.399999999999999      23.519999999999996
   228   1      11.759999999999998      27.439999999999994      27.439999999999994
   229   1      11.759999999999998      29.399999999999999      29.399999999999999
   230   1      13.719999999999997      27.439999999999994      29.399999999999999
   231   1      13.719999999999997      29.399999999999999      27.439999999999994
   232   1      11.759999999999998      27.439999999999994      31.359999999999999
   233   1      11.759999999999998      29.399999999999999                   33.32
   234   1      13.719999999999997      27.439999999999994                   33.32
   235   1      13.719999999999997      29.399999999999999      31.359999999999999
   236   1      11.759999999999998      27.439999999999994      35.280000000000001
   237   1      11.759999999999998      29.399999999999999      37.240000000000002
   238   1      13.719999999999997      27.439999999999994      37.240000000000002
   239   1      13.719999999999997      29.399999999999999      35.280000000000001
   240   1      11.759999999999998      27.439999999999994      39.199999999999989
   241   1      11.759999999999998      29.399999999999999      41.159999999999997
   242   1      13.719999999999997      27.439999999999994      41.159999999999997
   243   1      13.719999999999997      29.399999999999999      39.199999999999989
   244   1      11.759999999999998      27.439999999999994      43.119999999999997
   245   1      11.759999999999998      29.399999999999999      45.079999999999998
   246   1      13.719999999999997      27.439999999999994      45.079999999999998
   247   1      13.719999999999997      29.399999999999999      43.119999999999997
   248   1      11.759999999999998      27.439999999999994      47.039999999999999
   249   1      11.759999999999998      29.399999999999999                      49
   250   1      13.719999999999997      27.439999999999994                      49
   251   1      13.719999999999997      29.399999999999999      47.039999999999999
   252   1      11.759999999999998      27.439999999999994      50.959999999999994
   253   1      11.759999999999998      29.399999999999999      52.919999999999987
   254   1      13.719999999999997      27.439999999999994      52.919999999999987
   255   1      13.719999999999997      29.399999999999999      50.959999999999994
   256   1      13.719999999999997      29.399999999999999      54.879999999999988
   257   1      11.759999999999998                   33.32      25.479999999999997
   258   1      13.719999999999997      31.359999999999999      25.479999999999997
   259   1      13.719999999999997                   33.32      23.519999999999996
   260   1      11.759999999999998      31.359999999999999      27.439999999999994
   261   1      11.759999999999998                   33.32      29.399999999999999
   262   1      13.719999999999997      31.359999999999999      29.399999999999999
   263   1      13.719999999999997                   33.32      27.439999999999994
   264   1      11.759999999999998      31.359999999999999      31.359999999999999
   265   1      11.759999999999998                   33.32                   33.32
   266   1      13.719999999999997      31.359999999999999                   33.32
   267   1      13.719999999999997                   33.32      31.359999999999999
   268   1      11.759999999999998      31.359999999999999      35.280000000000001
   269   1      11.759999999999998                   33.32      37.240000000000002
   270   1      13.719999999999997      31.359999999999999      37.240000000000002
   271   1      13.719999999999997                   33.32      35.280000000000001
   272   1      11.759999999999998      31.359999999999999      39.199999999999989
   273   1      11.759999999999998                   33.32      41.159999999999997
   274   1      13.719999999999997      31.359999999999999      41.159999999999997
   275   1      13.719999999999997                   33.32      39.199999999999989
   276   1      11.759999999999998      31.359999999999999      43.119999999999997
   277   1      11.759999999999998                   33.32      45.079999999999998
   278   1      13.719999999999997      31.359999999999999      45.079999999999998
   279   1      13.719999999999997                   33.32      43.119999999999997
   280   1      11.759999999999998      31.359999999999999      47.039999999999999
   281   1      11.759999999999998                   33.32                      49
   282   1      13.719999999999997      31.359999999999999                      49
   283   1      13.719999999999997                   33.32      47.039999999999999
   284   1      11.759999999999998      31.359999999999999      50.959999999999994
   285   1      11.759999999999998                   33.32      52.919999999999987
   286   1      13.719999999999997      31.359999999999999      52.919999999999987
   287   1      13.719999999999997                   33.32      50.959999999999994
   288   1      13.719999999999997                   33.32      54.879999999999988
   289   1      13.719999999999997      35.280000000000001      21.559999999999999
   290   1      11.759999999999998      35.280000000000001      23.519999999999996
   291   1      11.759999999999998      37.240000000000002      25.479999999999997
   292   1      13.719999999999997      35.280000000000001      25.479999999999997
   293   1      13.719999999999997      37.240000000000002      23.519999999999996
   294   1      11.759999999999998      35.280000000000001      27.439999999999994
   295   1      11.759999999999998      37.240000000000002      29.399999999999999
   296   1      13.719999999999997      35.280000000000001      29.399999999999999
   297   1      13.719999999999997      37.240000000000002      27.439999999999994
   298   1      11.759999999999998      35.280000000000001      31.359999999999999
   299   1      11.759999999999998      37.240000000000002                   33.32
   300   1      13.719999999999997      35.280000000000001                   33.32
   301   1      13.719999999999997      37.240000000000002      31.359999999999999
   302   1      11.759999999999998      35.280000000000001      35.280000000000001
   303   1      11.759999999999998      37.240000000000002      37.240000000000002
   304   1      13.719999999999997      35.280000000000001      37.240000000000002
   305   1      13.719999999999997      37.240000000000002      35.280000000000001
   306   1      11.759999999999998      35.280000000000001      39.199999999999989
   307   1      11.759999999999998      37.240000000000002      41.159999999999997
   308   1      13.719999999999997      35.280000000000001      41.159999999999997
   309   1      13.719999999999997      37.240000000000002      39.199999999999989
   310   1      11.759999999999998      35.280000000000001      43.119999999999997
   311   1      11.759999999999998      37.240000000000002      45.079999999999998
   312   1      13.719999999999997      35.280000000000001      45.079999999999998
   313   1      13.719999999999997      37.240000000000002      43.119999999999997
   314   1      11.759999999999998      35.280000000000001      47.039999999999999
   315   1      11.759999999999998      37.240000000000002                      49
   316   1      13.719999999999997      35.280000000000001                      49
   317   1      13.719999999999997      37.240000000000002      47.039999999999999
   318   1      11.759999999999998      35.280000000000001      50.959999999999994
   319   1      11.759999999999998      37.240000000000002      52.919999999999987
   320   1      13.719999999999997      35.280000000000001      52.919999999999987
   321   1      13.719999999999997      37.240000000000002      50.959999999999994
   322   1      11.759999999999998      35.280000000000001      54.879999999999988
   323   1      13.719999999999997      35.280000000000001      56.839999999999989
   324   1      13.719999999999997      37.240000000000002      54.879999999999988
   325   1      13.719999999999997      39.199999999999989      21.559999999999999
   326   1      11.759999999999998      39.199999999999989      23.519999999999996
   327   1      11.759999999999998      41.159999999999997      25.479999999999997
   328   1      13.719999999999997      39.199999999999989      25.479999999999997
   329   1      13.719999999999997      41.159999999999997      23.519999999999996
   330   1      11.759999999999998      39.199999999999989      27.439999999999994
   331   1      11.759999999999998      41.159999999999997      29.399999999999999
   332   1      13.719999999999997      39.199999999999989      29.399999999999999
   333   1      13.719999999999997      41.159999999999997      27.439999999999994
   334   1      11.759999999999998      39.199999999999989      31.359999999999999
   335   1      11.759999999999998      41.159999999999997                   33.32
   336   1      13.719999999999997      39.199999999999989                   33.32
   337   1      13.719999999999997      41.159999999999997      31.359999999999999
   338   1      11.759999999999998      39.199999999999989      35.280000000000001
   339   1      11.759999999999998      41.159999999999997      37.240000000000002
   340   1      13.719999999999997      39.199999999999989      37.240000000000002
   341   1      13.719999999999997      41.159999999999997      35.280000000000001
   342   1      11.759999999999998      39.199999999999989      39.199999999999989
   343   1      11.759999999999998      41.159999999999997      41.159999999999997
   344   1      13.719999999999997      39.199999999999989      41.159999999999997
   345   1      13.719999999999997      41.159999999999997      39.199999999999989
   346   1      11.759999999999998      39.199999999999989      43.119999999999997
   347   1      11.759999999999998      41.159999999999997      45.079999999999998
   348   1      13.719999999999997      39.199999999999989      45.079999999999998
   349   1      13.719999999999997      41.159999999999997      43.119999999999997
   350   1      11.759999999999998      39.199999999999989      47.039999999999999
   351   1      11.759999999999998      41.159999999999997                      49
   352   1      13.719999999999997      39.199999999999989                      49
   353   1      13.719999999999997      41.159999999999997      47.039999999999999
   354   1      11.759999999999998      39.199999999999989      50.959999999999994
   355   1      11.759999999999998      41.159999999999997      52.919999999999987
   356   1      13.719999999999997      39.199999999999989      52.919999999999987
   357   1      13.719999999999997      41.159999999999997      50.959999999999994
   358   1      11.759999999999998      39.199999999999989      54.879999999999988