model_files/Pt/Pt_10000/Pt_411/data.Pt_411_fcc_9821 (written by ASE) 

9821 	 atoms 
1  atom types
0.0                      62  xlo xhi
0.0                      62  ylo yhi
0.0                      62  zlo zhi


Atoms 

     1   1      1.9599999999999971      21.559999999999999      31.359999999999996
     2   1      1.9599999999999971      23.519999999999996      29.399999999999999
     3   1      1.9599999999999971      25.479999999999997      27.439999999999994
     4   1      1.9599999999999971      23.519999999999996      33.319999999999993
     5   1      1.9599999999999971      25.479999999999997      31.359999999999996
     6   1      1.9599999999999971      25.479999999999997      35.280000000000001
     7   1      1.9599999999999971      27.439999999999994      25.479999999999997
     8   1      1.9599999999999971      29.399999999999999      23.519999999999996
     9   1                       0      29.399999999999999      29.399999999999999
    10   1      1.9599999999999971      27.439999999999994      29.399999999999999
    11   1      1.9599999999999971      29.399999999999999      27.439999999999994
    12   1                       0      27.439999999999994      31.359999999999996
    13   1                       0      29.399999999999999      33.319999999999993
    14   1      1.9599999999999971      27.439999999999994      33.319999999999993
    15   1      1.9599999999999971      29.399999999999999      31.359999999999996
    16   1      1.9599999999999971      27.439999999999994      37.240000000000002
    17   1      1.9599999999999971      29.399999999999999      35.280000000000001
    18   1      1.9599999999999971      29.399999999999999      39.199999999999996
    19   1      1.9599999999999971      31.359999999999996      21.559999999999999
    20   1      1.9599999999999971      31.359999999999996      25.479999999999997
    21   1      1.9599999999999971      33.319999999999993      23.519999999999996
    22   1                       0      31.359999999999996      27.439999999999994
    23   1                       0      33.319999999999993      29.399999999999999
    24   1      1.9599999999999971      31.359999999999996      29.399999999999999
    25   1      1.9599999999999971      33.319999999999993      27.439999999999994
    26   1                       0      31.359999999999996      31.359999999999996
    27   1                       0      33.319999999999993      33.319999999999993
    28   1      1.9599999999999971      31.359999999999996      33.319999999999993
    29   1      1.9599999999999971      33.319999999999993      31.359999999999996
    30   1                       0      31.359999999999996      35.280000000000001
    31   1      1.9599999999999971      31.359999999999996      37.240000000000002
    32   1      1.9599999999999971      33.319999999999993      35.280000000000001
    33   1      1.9599999999999971      31.359999999999996      41.159999999999997
    34   1      1.9599999999999971      33.319999999999993      39.199999999999996
    35   1      1.9599999999999971      35.280000000000001      25.479999999999997
    36   1      1.9599999999999971      35.280000000000001      29.399999999999999
    37   1      1.9599999999999971      37.240000000000002      27.439999999999994
    38   1                       0      35.280000000000001      31.359999999999996
    39   1      1.9599999999999971      35.280000000000001      33.319999999999993
    40   1      1.9599999999999971      37.240000000000002      31.359999999999996
    41   1      1.9599999999999971      35.280000000000001      37.240000000000002
    42   1      1.9599999999999971      37.240000000000002      35.280000000000001
    43   1      1.9599999999999971      39.199999999999996      29.399999999999999
    44   1      1.9599999999999971      39.199999999999996      33.319999999999993
    45   1      1.9599999999999971      41.159999999999997      31.359999999999996
    46   1       5.879999999999999       5.879999999999999      31.359999999999996
    47   1       5.879999999999999      7.8399999999999954      29.399999999999999
    48   1       5.879999999999999      9.7999999999999972      27.439999999999994
    49   1       5.879999999999999      7.8399999999999954      33.319999999999993
    50   1       5.879999999999999      9.7999999999999972      31.359999999999996
    51   1       5.879999999999999      9.7999999999999972      35.280000000000001
    52   1       5.879999999999999      11.759999999999998      25.479999999999997
    53   1       5.879999999999999      13.719999999999997      23.519999999999996
    54   1      3.9199999999999977      13.719999999999997      29.399999999999999
    55   1       5.879999999999999      11.759999999999998      29.399999999999999
    56   1       5.879999999999999      13.719999999999997      27.439999999999994
    57   1      3.9199999999999977      11.759999999999998      31.359999999999996
    58   1      3.9199999999999977      13.719999999999997      33.319999999999993
    59   1       5.879999999999999      11.759999999999998      33.319999999999993
    60   1       5.879999999999999      13.719999999999997      31.359999999999996
    61   1       5.879999999999999      11.759999999999998      37.240000000000002
    62   1       5.879999999999999      13.719999999999997      35.280000000000001
    63   1       5.879999999999999      13.719999999999997      39.199999999999996
    64   1       5.879999999999999      15.679999999999998      21.559999999999999
    65   1       5.879999999999999      17.640000000000001      19.599999999999998
    66   1      3.9199999999999977      17.640000000000001      25.479999999999997
    67   1       5.879999999999999      15.679999999999998      25.479999999999997
    68   1       5.879999999999999      17.640000000000001      23.519999999999996
    69   1      3.9199999999999977      15.679999999999998      27.439999999999994
    70   1      3.9199999999999977      17.640000000000001      29.399999999999999
    71   1       5.879999999999999      15.679999999999998      29.399999999999999
    72   1       5.879999999999999      17.640000000000001      27.439999999999994
    73   1      3.9199999999999977      15.679999999999998      31.359999999999996
    74   1      3.9199999999999977      17.640000000000001      33.319999999999993
    75   1       5.879999999999999      15.679999999999998      33.319999999999993
    76   1       5.879999999999999      17.640000000000001      31.359999999999996
    77   1      3.9199999999999977      15.679999999999998      35.280000000000001
    78   1      3.9199999999999977      17.640000000000001      37.240000000000002
    79   1       5.879999999999999      15.679999999999998      37.240000000000002
    80   1       5.879999999999999      17.640000000000001      35.280000000000001
    81   1       5.879999999999999      15.679999999999998      41.159999999999997
    82   1       5.879999999999999      17.640000000000001      39.199999999999996
    83   1       5.879999999999999      17.640000000000001      43.119999999999997
    84   1       5.879999999999999      19.599999999999998      17.640000000000001
    85   1       5.879999999999999      21.559999999999999      15.679999999999998
    86   1      3.9199999999999977      21.559999999999999      21.559999999999999
    87   1       5.879999999999999      19.599999999999998      21.559999999999999
    88   1       5.879999999999999      21.559999999999999      19.599999999999998
    89   1      3.9199999999999977      19.599999999999998      23.519999999999996
    90   1      3.9199999999999977      21.559999999999999      25.479999999999997
    91   1       5.879999999999999      19.599999999999998      25.479999999999997
    92   1       5.879999999999999      21.559999999999999      23.519999999999996
    93   1      3.9199999999999977      19.599999999999998      27.439999999999994
    94   1      3.9199999999999977      21.559999999999999      29.399999999999999
    95   1       5.879999999999999      19.599999999999998      29.399999999999999
    96   1       5.879999999999999      21.559999999999999      27.439999999999994
    97   1      3.9199999999999977      19.599999999999998      31.359999999999996
    98   1      3.9199999999999977      21.559999999999999      33.319999999999993
    99   1       5.879999999999999      19.599999999999998      33.319999999999993
   100   1       5.879999999999999      21.559999999999999      31.359999999999996
   101   1      3.9199999999999977      19.599999999999998      35.280000000000001
   102   1      3.9199999999999977      21.559999999999999      37.240000000000002
   103   1       5.879999999999999      19.599999999999998      37.240000000000002
   104   1       5.879999999999999      21.559999999999999      35.280000000000001
   105   1      3.9199999999999977      19.599999999999998      39.199999999999996
   106   1      3.9199999999999977      21.559999999999999      41.159999999999997
   107   1       5.879999999999999      19.599999999999998      41.159999999999997
   108   1       5.879999999999999      21.559999999999999      39.199999999999996
   109   1       5.879999999999999      19.599999999999998      45.079999999999998
   110   1       5.879999999999999      21.559999999999999      43.119999999999997
   111   1       5.879999999999999      21.559999999999999      47.039999999999999
   112   1       5.879999999999999      23.519999999999996      13.719999999999997
   113   1       5.879999999999999      25.479999999999997      11.759999999999998
   114   1      3.9199999999999977      25.479999999999997      17.640000000000001
   115   1       5.879999999999999      23.519999999999996      17.640000000000001
   116   1       5.879999999999999      25.479999999999997      15.679999999999998
   117   1      3.9199999999999977      23.519999999999996      19.599999999999998
   118   1      3.9199999999999977      25.479999999999997      21.559999999999999
   119   1       5.879999999999999      23.519999999999996      21.559999999999999
   120   1       5.879999999999999      25.479999999999997      19.599999999999998
   121   1      3.9199999999999977      23.519999999999996      23.519999999999996
   122   1      3.9199999999999977      25.479999999999997      25.479999999999997
   123   1       5.879999999999999      23.519999999999996      25.479999999999997
   124   1       5.879999999999999      25.479999999999997      23.519999999999996
   125   1      3.9199999999999977      23.519999999999996      27.439999999999994
   126   1      3.9199999999999977      25.479999999999997      29.399999999999999
   127   1       5.879999999999999      23.519999999999996      29.399999999999999
   128   1       5.879999999999999      25.479999999999997      27.439999999999994
   129   1      3.9199999999999977      23.519999999999996      31.359999999999996
   130   1      3.9199999999999977      25.479999999999997      33.319999999999993
   131   1       5.879999999999999      23.519999999999996      33.319999999999993
   132   1       5.879999999999999      25.479999999999997      31.359999999999996
   133   1      3.9199999999999977      23.519999999999996      35.280000000000001
   134   1      3.9199999999999977      25.479999999999997      37.240000000000002
   135   1       5.879999999999999      23.519999999999996      37.240000000000002
   136   1       5.879999999999999      25.479999999999997      35.280000000000001
   137   1      3.9199999999999977      23.519999999999996      39.199999999999996
   138   1      3.9199999999999977      25.479999999999997      41.159999999999997
   139   1       5.879999999999999      23.519999999999996      41.159999999999997
   140   1       5.879999999999999      25.479999999999997      39.199999999999996
   141   1      3.9199999999999977      23.519999999999996      43.119999999999997
   142   1      3.9199999999999977      25.479999999999997      45.079999999999998
   143   1       5.879999999999999      23.519999999999996      45.079999999999998
   144   1       5.879999999999999      25.479999999999997      43.119999999999997
   145   1       5.879999999999999      23.519999999999996                      49
   146   1       5.879999999999999      25.479999999999997      47.039999999999999
   147   1       5.879999999999999      25.479999999999997      50.959999999999994
   148   1       5.879999999999999      27.439999999999994      9.7999999999999972
   149   1       5.879999999999999      29.399999999999999      7.8399999999999954
   150   1      3.9199999999999977      29.399999999999999      13.719999999999997
   151   1       5.879999999999999      27.439999999999994      13.719999999999997
   152   1       5.879999999999999      29.399999999999999      11.759999999999998
   153   1      3.9199999999999977      27.439999999999994      15.679999999999998
   154   1      3.9199999999999977      29.399999999999999      17.640000000000001
   155   1       5.879999999999999      27.439999999999994      17.640000000000001
   156   1       5.879999999999999      29.399999999999999      15.679999999999998
   157   1      3.9199999999999977      27.439999999999994      19.599999999999998
   158   1      3.9199999999999977      29.399999999999999      21.559999999999999
   159   1       5.879999999999999      27.439999999999994      21.559999999999999
   160   1       5.879999999999999      29.399999999999999      19.599999999999998
   161   1      3.9199999999999977      27.439999999999994      23.519999999999996
   162   1      3.9199999999999977      29.399999999999999      25.479999999999997
   163   1       5.879999999999999      27.439999999999994      25.479999999999997
   164   1       5.879999999999999      29.399999999999999      23.519999999999996
   165   1      3.9199999999999977      27.439999999999994      27.439999999999994
   166   1      3.9199999999999977      29.399999999999999      29.399999999999999
   167   1       5.879999999999999      27.439999999999994      29.399999999999999
   168   1       5.879999999999999      29.399999999999999      27.439999999999994
   169   1      3.9199999999999977      27.439999999999994      31.359999999999996
   170   1      3.9199999999999977      29.399999999999999      33.319999999999993
   171   1       5.879999999999999      27.439999999999994      33.319999999999993
   172   1       5.879999999999999      29.399999999999999      31.359999999999996
   173   1      3.9199999999999977      27.439999999999994      35.280000000000001
   174   1      3.9199999999999977      29.399999999999999      37.240000000000002
   175   1       5.879999999999999      27.439999999999994      37.240000000000002
   176   1       5.879999999999999      29.399999999999999      35.280000000000001
   177   1      3.9199999999999977      27.439999999999994      39.199999999999996
   178   1      3.9199999999999977      29.399999999999999      41.159999999999997
   179   1       5.879999999999999      27.439999999999994      41.159999999999997
   180   1       5.879999999999999      29.399999999999999      39.199999999999996
   181   1      3.9199999999999977      27.439999999999994      43.119999999999997
   182   1      3.9199999999999977      29.399999999999999      45.079999999999998
   183   1       5.879999999999999      27.439999999999994      45.079999999999998
   184   1       5.879999999999999      29.399999999999999      43.119999999999997
   185   1      3.9199999999999977      27.439999999999994      47.039999999999999
   186   1      3.9199999999999977      29.399999999999999                      49
   187   1       5.879999999999999      27.439999999999994                      49
   188   1       5.879999999999999      29.399999999999999      47.039999999999999
   189   1       5.879999999999999      27.439999999999994      52.919999999999995
   190   1       5.879999999999999      29.399999999999999      50.959999999999994
   191   1       5.879999999999999      29.399999999999999      54.879999999999988
   192   1       5.879999999999999      31.359999999999996       5.879999999999999
   193   1       5.879999999999999      31.359999999999996      9.7999999999999972
   194   1       5.879999999999999      33.319999999999993      7.8399999999999954
   195   1      3.9199999999999977      31.359999999999996      11.759999999999998
   196   1      3.9199999999999977      33.319999999999993      13.719999999999997
   197   1       5.879999999999999      31.359999999999996      13.719999999999997
   198   1       5.879999999999999      33.319999999999993      11.759999999999998
   199   1      3.9199999999999977      31.359999999999996      15.679999999999998
   200   1      3.9199999999999977      33.319999999999993      17.640000000000001
   201   1       5.879999999999999      31.359999999999996      17.640000000000001
   202   1       5.879999999999999      33.319999999999993      15.679999999999998
   203   1      3.9199999999999977      31.359999999999996      19.599999999999998
   204   1      3.9199999999999977      33.319999999999993      21.559999999999999
   205   1       5.879999999999999      31.359999999999996      21.559999999999999
   206   1       5.879999999999999      33.319999999999993      19.599999999999998
   207   1      3.9199999999999977      31.359999999999996      23.519999999999996
   208   1      3.9199999999999977      33.319999999999993      25.479999999999997
   209   1       5.879999999999999      31.359999999999996      25.479999999999997
   210   1       5.879999999999999      33.319999999999993      23.519999999999996
   211   1      3.9199999999999977      31.359999999999996      27.439999999999994
   212   1      3.9199999999999977      33.319999999999993      29.399999999999999
   213   1       5.879999999999999      31.359999999999996      29.399999999999999
   214   1       5.879999999999999      33.319999999999993      27.439999999999994
   215   1      3.9199999999999977      31.359999999999996      31.359999999999996
   216   1      3.9199999999999977      33.319999999999993      33.319999999999993
   217   1       5.879999999999999      31.359999999999996      33.319999999999993
   218   1       5.879999999999999      33.319999999999993      31.359999999999996
   219   1      3.9199999999999977      31.359999999999996      35.280000000000001
   220   1      3.9199999999999977      33.319999999999993      37.240000000000002
   221   1       5.879999999999999      31.359999999999996      37.240000000000002
   222   1       5.879999999999999      33.319999999999993      35.280000000000001
   223   1      3.9199999999999977      31.359999999999996      39.199999999999996
   224   1      3.9199999999999977      33.319999999999993      41.159999999999997
   225   1       5.879999999999999      31.359999999999996      41.159999999999997
   226   1       5.879999999999999      33.319999999999993      39.199999999999996
   227   1      3.9199999999999977      31.359999999999996      43.119999999999997
   228   1      3.9199999999999977      33.319999999999993      45.079999999999998
   229   1       5.879999999999999      31.359999999999996      45.079999999999998
   230   1       5.879999999999999      33.319999999999993      43.119999999999997
   231   1      3.9199999999999977      31.359999999999996      47.039999999999999
   232   1      3.9199999999999977      33.319999999999993                      49
   233   1       5.879999999999999      31.359999999999996                      49
   234   1       5.879999999999999      33.319999999999993      47.039999999999999
   235   1      3.9199999999999977      31.359999999999996      50.959999999999994
   236   1       5.879999999999999      31.359999999999996      52.919999999999995
   237   1       5.879999999999999      33.319999999999993      50.959999999999994
   238   1       5.879999999999999      31.359999999999996      56.839999999999989
   239   1       5.879999999999999      33.319999999999993      54.879999999999988
   240   1       5.879999999999999      35.280000000000001      9.7999999999999972
   241   1       5.879999999999999      35.280000000000001      13.719999999999997
   242   1       5.879999999999999      37.240000000000002      11.759999999999998
   243   1      3.9199999999999977      35.280000000000001      15.679999999999998
   244   1      3.9199999999999977      37.240000000000002      17.640000000000001
   245   1       5.879999999999999      35.280000000000001      17.640000000000001
   246   1       5.879999999999999      37.240000000000002      15.679999999999998
   247   1      3.9199999999999977      35.280000000000001      19.599999999999998
   248   1      3.9199999999999977      37.240000000000002      21.559999999999999
   249   1       5.879999999999999      35.280000000000001      21.559999999999999
   250   1       5.879999999999999      37.240000000000002      19.599999999999998
   251   1      3.9199999999999977      35.280000000000001      23.519999999999996
   252   1      3.9199999999999977      37.240000000000002      25.479999999999997
   253   1       5.879999999999999      35.280000000000001      25.479999999999997
   254   1       5.879999999999999      37.240000000000002      23.519999999999996
   255   1      3.9199999999999977      35.280000000000001      27.439999999999994
   256   1      3.9199999999999977      37.240000000000002      29.399999999999999
   257   1       5.879999999999999      35.280000000000001      29.399999999999999
   258   1       5.879999999999999      37.240000000000002      27.439999999999994
   259   1      3.9199999999999977      35.280000000000001      31.359999999999996
   260   1      3.9199999999999977      37.240000000000002      33.319999999999993
   261   1       5.879999999999999      35.280000000000001      33.319999999999993
   262   1       5.879999999999999      37.240000000000002      31.359999999999996
   263   1      3.9199999999999977      35.280000000000001      35.280000000000001
   264   1      3.9199999999999977      37.240000000000002      37.240000000000002
   265   1       5.879999999999999      35.280000000000001      37.240000000000002
   266   1       5.879999999999999      37.240000000000002      35.280000000000001
   267   1      3.9199999999999977      35.280000000000001      39.199999999999996
   268   1      3.9199999999999977      37.240000000000002      41.159999999999997
   269   1       5.879999999999999      35.280000000000001      41.159999999999997
   270   1       5.879999999999999      37.240000000000002      39.199999999999996
   271   1      3.9199999999999977      35.280000000000001      43.119999999999997
   272   1      3.9199999999999977      37.240000000000002      45.079999999999998
   273   1       5.879999999999999      35.280000000000001      45.079999999999998
   274   1       5.879999999999999      37.240000000000002      43.119999999999997
   275   1      3.9199999999999977      35.280000000000001      47.039999999999999
   276   1       5.879999999999999      35.280000000000001                      49
   277   1       5.879999999999999      37.240000000000002      47.039999999999999
   278   1       5.879999999999999      35.280000000000001      52.919999999999995
   279   1       5.879999999999999      37.240000000000002      50.959999999999994
   280   1       5.879999999999999      39.199999999999996      13.719999999999997
   281   1       5.879999999999999      39.199999999999996      17.640000000000001
   282   1       5.879999999999999      41.159999999999997      15.679999999999998
   283   1      3.9199999999999977      39.199999999999996      19.599999999999998
   284   1      3.9199999999999977      41.159999999999997      21.559999999999999
   285   1       5.879999999999999      39.199999999999996      21.559999999999999
   286   1       5.879999999999999      41.159999999999997      19.599999999999998
   287   1      3.9199999999999977      39.199999999999996      23.519999999999996
   288   1      3.9199999999999977      41.159999999999997      25.479999999999997
   289   1       5.879999999999999      39.199999999999996      25.479999999999997
   290   1       5.879999999999999      41.159999999999997      23.519999999999996
   291   1      3.9199999999999977      39.199999999999996      27.439999999999994
   292   1      3.9199999999999977      41.159999999999997      29.399999999999999
   293   1       5.879999999999999      39.199999999999996      29.399999999999999
   294   1       5.879999999999999      41.159999999999997      27.439999999999994
   295   1      3.9199999999999977      39.199999999999996      31.359999999999996
   296   1      3.9199999999999977      41.159999999999997      33.319999999999993
   297   1       5.879999999999999      39.199999999999996      33.319999999999993
   298   1       5.879999999999999      41.159999999999997      31.359999999999996
   299   1      3.9199999999999977      39.199999999999996      35.280000000000001
   300   1      3.9199999999999977      41.159999999999997      37.240000000000002
   301   1       5.879999999999999      39.199999999999996      37.240000000000002
   302   1       5.879999999999999      41.159999999999997      35.280000000000001
   303   1      3.9199999999999977      39.199999999999996      39.199999999999996
   304   1      3.9199999999999977      41.159999999999997      41.159999999999997
   305   1       5.879999999999999      39.199999999999996      41.159999999999997
   306   1       5.879999999999999      41.159999999999997      39.199999999999996
   307   1      3.9199999999999977      39.199999999999996      43.119999999999997
   308   1       5.879999999999999      39.199999999999996      45.079999999999998
   309   1       5.879999999999999      41.159999999999997      43.119999999999997
   310   1       5.879999999999999      39.199999999999996                      49
   311   1       5.879999999999999      41.159999999999997      47.039999999999999
   312   1       5.879999999999999      43.119999999999997      17.640000000000001
   313   1       5.879999999999999      43.119999999999997      21.559999999999999
   314   1       5.879999999999999      45.079999999999998      19.599999999999998
   315   1      3.9199999999999977      43.119999999999997      23.519999999999996
   316   1      3.9199999999999977      45.079999999999998      25.479999999999997
   317   1       5.879999999999999      43.119999999999997      25.479999999999997
   318   1       5.879999999999999      45.079999999999998      23.519999999999996
   319   1      3.9199999999999977      43.119999999999997      27.439999999999994
   320   1      3.9199999999999977      45.079999999999998      29.399999999999999
   321   1       5.879999999999999      43.119999999999997      29.399999999999999
   322   1       5.879999999999999      45.079999999999998      27.439999999999994
   323   1      3.9199999999999977      43.119999999999997      31.359999999999996
   324   1      3.9199999999999977      45.079999999999998      33.319999999999993
   325   1       5.879999999999999      43.119999999999997      33.319999999999993
   326   1       5.879999999999999      45.079999999999998      31.359999999999996
   327   1      3.9199999999999977      43.119999999999997      35.280000000000001
   328   1      3.9199999999999977      45.079999999999998      37.240000000000002
   329   1       5.879999999999999      43.119999999999997      37.240000000000002
   330   1       5.879999999999999      45.079999999999998      35.280000000000001
   331   1      3.9199999999999977      43.119999999999997      39.199999999999996
   332   1       5.879999999999999      43.119999999999997      41.159999999999997
   333   1       5.879999999999999      45.079999999999998      39.199999999999996
   334   1       5.879999999999999      43.119999999999997      45.079999999999998
   335   1       5.879999999999999      45.079999999999998      43.119999999999997
   336   1       5.879999999999999      47.039999999999999      21.559999999999999
   337   1       5.879999999999999      47.039999999999999      25.479999999999997
   338   1       5.879999999999999                      49      23.519999999999996
   339   1      3.9199999999999977      47.039999999999999      27.439999999999994
   340   1      3.9199999999999977                      49      29.399999999999999
   341   1       5.879999999999999      47.039999999999999      29.399999999999999
   342   1       5.879999999999999                      49      27.439999999999994
   343   1      3.9199999999999977      47.039999999999999      31.359999999999996
   344   1      3.9199999999999977                      49      33.319999999999993
   345   1       5.879999999999999      47.039999999999999      33.319999999999993
   346   1       5.879999999999999                      49      31.359999999999996
   347   1      3.9199999999999977      47.039999999999999      35.280000000000001
   348   1       5.879999999999999      47.039999999999999      37.240000000000002
   349   1       5.879999999999999                      49      35.280000000000001
   350   1       5.879999999999999      47.039999999999999      41.159999999999997
   351   1       5.879999999999999                      49      39.199999999999996
   352   1       5.879999999999999      50.959999999999994      25.479999999999997
   353   1       5.879999999999999      50.959999999999994      29.399999999999999
   354   1       5.879999999999999      52.919999999999995      27.439999999999994
   355   1      3.9199999999999977      50.959999999999994      31.359999999999996
   356   1       5.879999999999999      50.959999999999994      33.319999999999993
   357   1       5.879999999999999      52.919999999999995      31.359999999999996
   358   1       5.879999999999999      50.959999999999994      37.240000000000002