model_files/CuFeNi/CuFeNi_30000/CuFeNi_543/CuFeNi_543_fcc_30079_temp.data (written by ASE) 

30079 	 atoms 
3  atom types
0.0                     110  xlo xhi
0.0                     110  ylo yhi
0.0                     110  zlo zhi


Atoms 

     1   1  7.1054273576010019e-15       53.70000000000001      55.490000000000002
     2   1  7.1054273576010019e-15      55.490000000000002       53.70000000000001
     3   1  7.1054273576010019e-15      55.490000000000002      57.280000000000008
     4   1  7.1054273576010019e-15      57.280000000000008      55.490000000000002
     5   1      3.5800000000000054      50.120000000000012      55.490000000000002
     6   1       1.790000000000006       53.70000000000001       53.70000000000001
     7   1      3.5800000000000054      51.910000000000011       53.70000000000001
     8   1      3.5800000000000054       53.70000000000001      51.910000000000011
     9   1       1.790000000000006      51.910000000000011      55.490000000000002
    10   1       1.790000000000006       53.70000000000001      57.280000000000008
    11   1      3.5800000000000054      51.910000000000011      57.280000000000008
    12   1      3.5800000000000054       53.70000000000001      55.490000000000002
    13   1      3.5800000000000054       53.70000000000001                   59.07
    14   1      3.5800000000000054      55.490000000000002      50.120000000000012
    15   1       1.790000000000006      55.490000000000002      51.910000000000011
    16   1       1.790000000000006      57.280000000000008       53.70000000000001
    17   1      3.5800000000000054      55.490000000000002       53.70000000000001
    18   1      3.5800000000000054      57.280000000000008      51.910000000000011
    19   1       1.790000000000006      55.490000000000002      55.490000000000002
    20   1       1.790000000000006      57.280000000000008      57.280000000000008
    21   1      3.5800000000000054      55.490000000000002      57.280000000000008
    22   1      3.5800000000000054      57.280000000000008      55.490000000000002
    23   1       1.790000000000006      55.490000000000002                   59.07
    24   1      3.5800000000000054      55.490000000000002      60.860000000000007
    25   1      3.5800000000000054      57.280000000000008                   59.07
    26   1      3.5800000000000054                   59.07       53.70000000000001
    27   1       1.790000000000006                   59.07      55.490000000000002
    28   1      3.5800000000000054                   59.07      57.280000000000008
    29   1      3.5800000000000054      60.860000000000007      55.490000000000002
    30   1      7.1600000000000108      46.540000000000006      55.490000000000002
    31   1      5.3700000000000045      50.120000000000012       53.70000000000001
    32   1      7.1600000000000108      48.330000000000013       53.70000000000001
    33   1      7.1600000000000108      50.120000000000012      51.910000000000011
    34   1      5.3700000000000045      48.330000000000013      55.490000000000002
    35   1      5.3700000000000045      50.120000000000012      57.280000000000008
    36   1      7.1600000000000108      48.330000000000013      57.280000000000008
    37   1      7.1600000000000108      50.120000000000012      55.490000000000002
    38   1      7.1600000000000108      50.120000000000012                   59.07
    39   1      5.3700000000000045       53.70000000000001      50.120000000000012
    40   1      7.1600000000000108      51.910000000000011      50.120000000000012
    41   1      7.1600000000000108       53.70000000000001      48.330000000000013
    42   1      5.3700000000000045      51.910000000000011      51.910000000000011
    43   1      5.3700000000000045       53.70000000000001       53.70000000000001
    44   1      7.1600000000000108      51.910000000000011       53.70000000000001
    45   1      7.1600000000000108       53.70000000000001      51.910000000000011
    46   1      5.3700000000000045      51.910000000000011      55.490000000000002
    47   1      5.3700000000000045       53.70000000000001      57.280000000000008
    48   1      7.1600000000000108      51.910000000000011      57.280000000000008
    49   1      7.1600000000000108       53.70000000000001      55.490000000000002
    50   1      5.3700000000000045      51.910000000000011                   59.07
    51   1      5.3700000000000045       53.70000000000001      60.860000000000007
    52   1      7.1600000000000108      51.910000000000011      60.860000000000007
    53   1      7.1600000000000108       53.70000000000001                   59.07
    54   1      7.1600000000000108       53.70000000000001      62.650000000000006
    55   1      7.1600000000000108      55.490000000000002      46.540000000000006
    56   1      5.3700000000000045      55.490000000000002      48.330000000000013
    57   1      5.3700000000000045      57.280000000000008      50.120000000000012
    58   1      7.1600000000000108      55.490000000000002      50.120000000000012
    59   1      7.1600000000000108      57.280000000000008      48.330000000000013
    60   1      5.3700000000000045      55.490000000000002      51.910000000000011
    61   1      5.3700000000000045      57.280000000000008       53.70000000000001
    62   1      7.1600000000000108      55.490000000000002       53.70000000000001
    63   1      7.1600000000000108      57.280000000000008      51.910000000000011
    64   1      5.3700000000000045      55.490000000000002      55.490000000000002
    65   1      5.3700000000000045      57.280000000000008      57.280000000000008
    66   1      7.1600000000000108      55.490000000000002      57.280000000000008
    67   1      7.1600000000000108      57.280000000000008      55.490000000000002
    68   1      5.3700000000000045      55.490000000000002                   59.07
    69   1      5.3700000000000045      57.280000000000008      60.860000000000007
    70   1      7.1600000000000108      55.490000000000002      60.860000000000007
    71   1      7.1600000000000108      57.280000000000008                   59.07
    72   1      5.3700000000000045      55.490000000000002      62.650000000000006
    73   1      7.1600000000000108      55.490000000000002      64.440000000000012
    74   1      7.1600000000000108      57.280000000000008      62.650000000000006
    75   1      7.1600000000000108                   59.07      50.120000000000012
    76   1      5.3700000000000045                   59.07      51.910000000000011
    77   1      5.3700000000000045      60.860000000000007       53.70000000000001
    78   1      7.1600000000000108                   59.07       53.70000000000001
    79   1      7.1600000000000108      60.860000000000007      51.910000000000011
    80   1      5.3700000000000045                   59.07      55.490000000000002
    81   1      5.3700000000000045      60.860000000000007      57.280000000000008
    82   1      7.1600000000000108                   59.07      57.280000000000008
    83   1      7.1600000000000108      60.860000000000007      55.490000000000002
    84   1      5.3700000000000045                   59.07                   59.07
    85   1      7.1600000000000108                   59.07      60.860000000000007
    86   1      7.1600000000000108      60.860000000000007                   59.07
    87   1      7.1600000000000108      62.650000000000006       53.70000000000001
    88   1      5.3700000000000045      62.650000000000006      55.490000000000002
    89   1      7.1600000000000108      62.650000000000006      57.280000000000008
    90   1      7.1600000000000108      64.440000000000012      55.490000000000002
    91   1      10.740000000000009      42.960000000000001      51.910000000000011
    92   1      10.740000000000009      42.960000000000001      55.490000000000002
    93   1      10.740000000000009      42.960000000000001                   59.07
    94   1      8.9500000000000082      46.540000000000006      50.120000000000012
    95   1      10.740000000000009      44.750000000000007      50.120000000000012
    96   1      10.740000000000009      46.540000000000006      48.330000000000013
    97   1      8.9500000000000082      46.540000000000006       53.70000000000001
    98   1      10.740000000000009      44.750000000000007       53.70000000000001
    99   1      10.740000000000009      46.540000000000006      51.910000000000011
   100   1      8.9500000000000082      44.750000000000007      55.490000000000002
   101   1      8.9500000000000082      46.540000000000006      57.280000000000008
   102   1      10.740000000000009      44.750000000000007      57.280000000000008
   103   1      10.740000000000009      46.540000000000006      55.490000000000002
   104   1      8.9500000000000082      46.540000000000006      60.860000000000007
   105   1      10.740000000000009      44.750000000000007      60.860000000000007
   106   1      10.740000000000009      46.540000000000006                   59.07
   107   1      10.740000000000009      46.540000000000006      62.650000000000006
   108   1      8.9500000000000082      50.120000000000012      46.540000000000006
   109   1      10.740000000000009      48.330000000000013      46.540000000000006
   110   1      10.740000000000009      50.120000000000012      44.750000000000007
   111   1      8.9500000000000082      48.330000000000013      48.330000000000013
   112   1      8.9500000000000082      50.120000000000012      50.120000000000012
   113   1      10.740000000000009      48.330000000000013      50.120000000000012
   114   1      10.740000000000009      50.120000000000012      48.330000000000013
   115   1      8.9500000000000082      48.330000000000013      51.910000000000011
   116   1      8.9500000000000082      50.120000000000012       53.70000000000001
   117   1      10.740000000000009      48.330000000000013       53.70000000000001
   118   1      10.740000000000009      50.120000000000012      51.910000000000011
   119   1      8.9500000000000082      48.330000000000013      55.490000000000002
   120   1      8.9500000000000082      50.120000000000012      57.280000000000008
   121   1      10.740000000000009      48.330000000000013      57.280000000000008
   122   1      10.740000000000009      50.120000000000012      55.490000000000002
   123   1      8.9500000000000082      48.330000000000013                   59.07
   124   1      8.9500000000000082      50.120000000000012      60.860000000000007
   125   1      10.740000000000009      48.330000000000013      60.860000000000007
   126   1      10.740000000000009      50.120000000000012                   59.07
   127   1      8.9500000000000082      48.330000000000013      62.650000000000006
   128   1      8.9500000000000082      50.120000000000012      64.440000000000012
   129   1      10.740000000000009      48.330000000000013      64.440000000000012
   130   1      10.740000000000009      50.120000000000012      62.650000000000006
   131   1      10.740000000000009      50.120000000000012      66.230000000000004
   132   1      10.740000000000009      51.910000000000011      42.960000000000001
   133   1      8.9500000000000082       53.70000000000001      46.540000000000006
   134   1      10.740000000000009      51.910000000000011      46.540000000000006
   135   1      10.740000000000009       53.70000000000001      44.750000000000007
   136   1      8.9500000000000082      51.910000000000011      48.330000000000013
   137   1      8.9500000000000082       53.70000000000001      50.120000000000012
   138   1      10.740000000000009      51.910000000000011      50.120000000000012
   139   1      10.740000000000009       53.70000000000001      48.330000000000013
   140   1      8.9500000000000082      51.910000000000011      51.910000000000011
   141   1      8.9500000000000082       53.70000000000001       53.70000000000001
   142   1      10.740000000000009      51.910000000000011       53.70000000000001
   143   1      10.740000000000009       53.70000000000001      51.910000000000011
   144   1      8.9500000000000082      51.910000000000011      55.490000000000002
   145   1      8.9500000000000082       53.70000000000001      57.280000000000008
   146   1      10.740000000000009      51.910000000000011      57.280000000000008
   147   1      10.740000000000009       53.70000000000001      55.490000000000002
   148   1      8.9500000000000082      51.910000000000011                   59.07
   149   1      8.9500000000000082       53.70000000000001      60.860000000000007
   150   1      10.740000000000009      51.910000000000011      60.860000000000007
   151   1      10.740000000000009       53.70000000000001                   59.07
   152   1      8.9500000000000082      51.910000000000011      62.650000000000006
   153   1      8.9500000000000082       53.70000000000001      64.440000000000012
   154   1      10.740000000000009      51.910000000000011      64.440000000000012
   155   1      10.740000000000009       53.70000000000001      62.650000000000006
   156   1      10.740000000000009      51.910000000000011       68.02000000000001
   157   1      10.740000000000009       53.70000000000001      66.230000000000004
   158   1      10.740000000000009      55.490000000000002      42.960000000000001
   159   1      8.9500000000000082      55.490000000000002      44.750000000000007
   160   1      8.9500000000000082      57.280000000000008      46.540000000000006
   161   1      10.740000000000009      55.490000000000002      46.540000000000006
   162   1      10.740000000000009      57.280000000000008      44.750000000000007
   163   1      8.9500000000000082      55.490000000000002      48.330000000000013
   164   1      8.9500000000000082      57.280000000000008      50.120000000000012
   165   1      10.740000000000009      55.490000000000002      50.120000000000012
   166   1      10.740000000000009      57.280000000000008      48.330000000000013
   167   1      8.9500000000000082      55.490000000000002      51.910000000000011
   168   1      8.9500000000000082      57.280000000000008       53.70000000000001
   169   1      10.740000000000009      55.490000000000002       53.70000000000001
   170   1      10.740000000000009      57.280000000000008      51.910000000000011
   171   1      8.9500000000000082      55.490000000000002      55.490000000000002
   172   1      8.9500000000000082      57.280000000000008      57.280000000000008
   173   1      10.740000000000009      55.490000000000002      57.280000000000008
   174   1      10.740000000000009      57.280000000000008      55.490000000000002
   175   1      8.9500000000000082      55.490000000000002                   59.07
   176   1      8.9500000000000082      57.280000000000008      60.860000000000007
   177   1      10.740000000000009      55.490000000000002      60.860000000000007
   178   1      10.740000000000009      57.280000000000008                   59.07
   179   1      8.9500000000000082      55.490000000000002      62.650000000000006
   180   1      8.9500000000000082      57.280000000000008      64.440000000000012
   181   1      10.740000000000009      55.490000000000002      64.440000000000012
   182   1      10.740000000000009      57.280000000000008      62.650000000000006
   183   1      8.9500000000000082      55.490000000000002      66.230000000000004
   184   1      10.740000000000009      55.490000000000002       68.02000000000001
   185   1      10.740000000000009      57.280000000000008      66.230000000000004
   186   1      10.740000000000009                   59.07      42.960000000000001
   187   1      8.9500000000000082      60.860000000000007      46.540000000000006
   188   1      10.740000000000009                   59.07      46.540000000000006
   189   1      10.740000000000009      60.860000000000007      44.750000000000007
   190   1      8.9500000000000082                   59.07      48.330000000000013
   191   1      8.9500000000000082      60.860000000000007      50.120000000000012
   192   1      10.740000000000009                   59.07      50.120000000000012
   193   1      10.740000000000009      60.860000000000007      48.330000000000013
   194   1      8.9500000000000082                   59.07      51.910000000000011
   195   1      8.9500000000000082      60.860000000000007       53.70000000000001
   196   1      10.740000000000009                   59.07       53.70000000000001
   197   1      10.740000000000009      60.860000000000007      51.910000000000011
   198   1      8.9500000000000082                   59.07      55.490000000000002
   199   1      8.9500000000000082      60.860000000000007      57.280000000000008
   200   1      10.740000000000009                   59.07      57.280000000000008
   201   1      10.740000000000009      60.860000000000007      55.490000000000002
   202   1      8.9500000000000082                   59.07                   59.07
   203   1      8.9500000000000082      60.860000000000007      60.860000000000007
   204   1      10.740000000000009                   59.07      60.860000000000007
   205   1      10.740000000000009      60.860000000000007                   59.07
   206   1      8.9500000000000082                   59.07      62.650000000000006
   207   1      8.9500000000000082      60.860000000000007      64.440000000000012
   208   1      10.740000000000009                   59.07      64.440000000000012
   209   1      10.740000000000009      60.860000000000007      62.650000000000006
   210   1      10.740000000000009                   59.07       68.02000000000001
   211   1      10.740000000000009      60.860000000000007      66.230000000000004
   212   1      10.740000000000009      62.650000000000006      46.540000000000006
   213   1      8.9500000000000082      62.650000000000006      48.330000000000013
   214   1      8.9500000000000082      64.440000000000012      50.120000000000012
   215   1      10.740000000000009      62.650000000000006      50.120000000000012
   216   1      10.740000000000009      64.440000000000012      48.330000000000013
   217   1      8.9500000000000082      62.650000000000006      51.910000000000011
   218   1      8.9500000000000082      64.440000000000012       53.70000000000001
   219   1      10.740000000000009      62.650000000000006       53.70000000000001
   220   1      10.740000000000009      64.440000000000012      51.910000000000011
   221   1      8.9500000000000082      62.650000000000006      55.490000000000002
   222   1      8.9500000000000082      64.440000000000012      57.280000000000008
   223   1      10.740000000000009      62.650000000000006      57.280000000000008
   224   1      10.740000000000009      64.440000000000012      55.490000000000002
   225   1      8.9500000000000082      62.650000000000006                   59.07
   226   1      8.9500000000000082      64.440000000000012      60.860000000000007
   227   1      10.740000000000009      62.650000000000006      60.860000000000007
   228   1      10.740000000000009      64.440000000000012                   59.07
   229   1      8.9500000000000082      62.650000000000006      62.650000000000006
   230   1      10.740000000000009      62.650000000000006      64.440000000000012
   231   1      10.740000000000009      64.440000000000012      62.650000000000006
   232   1      10.740000000000009      66.230000000000004      50.120000000000012
   233   1      10.740000000000009      66.230000000000004       53.70000000000001
   234   1      10.740000000000009       68.02000000000001      51.910000000000011
   235   1      8.9500000000000082      66.230000000000004      55.490000000000002
   236   1      10.740000000000009      66.230000000000004      57.280000000000008
   237   1      10.740000000000009       68.02000000000001      55.490000000000002
   238   1      10.740000000000009      66.230000000000004      60.860000000000007
   239   1      10.740000000000009       68.02000000000001                   59.07
   240   1      14.320000000000006      35.800000000000004      55.490000000000002
   241   1      12.530000000000006       39.38000000000001       53.70000000000001
   242   1      14.320000000000006      37.590000000000011       53.70000000000001
   243   1      14.320000000000006       39.38000000000001      51.910000000000011
   244   1      12.530000000000006       39.38000000000001      57.280000000000008
   245   1      14.320000000000006      37.590000000000011      57.280000000000008
   246   1      14.320000000000006       39.38000000000001      55.490000000000002
   247   1      14.320000000000006       39.38000000000001                   59.07
   248   1      12.530000000000006      42.960000000000001      50.120000000000012
   249   1      14.320000000000006      41.170000000000002      50.120000000000012
   250   1      14.320000000000006      42.960000000000001      48.330000000000013
   251   1      12.530000000000006      41.170000000000002      51.910000000000011
   252   1      12.530000000000006      42.960000000000001       53.70000000000001
   253   1      14.320000000000006      41.170000000000002       53.70000000000001
   254   1      14.320000000000006      42.960000000000001      51.910000000000011
   255   1      12.530000000000006      41.170000000000002      55.490000000000002
   256   1      12.530000000000006      42.960000000000001      57.280000000000008
   257   1      14.320000000000006      41.170000000000002      57.280000000000008
   258   1      14.320000000000006      42.960000000000001      55.490000000000002
   259   1      12.530000000000006      41.170000000000002                   59.07
   260   1      12.530000000000006      42.960000000000001      60.860000000000007
   261   1      14.320000000000006      41.170000000000002      60.860000000000007
   262   1      14.320000000000006      42.960000000000001                   59.07
   263   1      14.320000000000006      42.960000000000001      62.650000000000006
   264   1      12.530000000000006      46.540000000000006      46.540000000000006
   265   1      14.320000000000006      44.750000000000007      46.540000000000006
   266   1      14.320000000000006      46.540000000000006      44.750000000000007
   267   1      12.530000000000006      44.750000000000007      48.330000000000013
   268   1      12.530000000000006      46.540000000000006      50.120000000000012
   269   1      14.320000000000006      44.750000000000007      50.120000000000012
   270   1      14.320000000000006      46.540000000000006      48.330000000000013
   271   1      12.530000000000006      44.750000000000007      51.910000000000011
   272   1      12.530000000000006      46.540000000000006       53.70000000000001
   273   1      14.320000000000006      44.750000000000007       53.70000000000001
   274   1      14.320000000000006      46.540000000000006      51.910000000000011
   275   1      12.530000000000006      44.750000000000007      55.490000000000002
   276   1      12.530000000000006      46.540000000000006      57.280000000000008
   277   1      14.320000000000006      44.750000000000007      57.280000000000008
   278   1      14.320000000000006      46.540000000000006      55.490000000000002
   279   1      12.530000000000006      44.750000000000007                   59.07
   280   1      12.530000000000006      46.540000000000006      60.860000000000007
   281   1      14.320000000000006      44.750000000000007      60.860000000000007
   282   1      14.320000000000006      46.540000000000006                   59.07
   283   1      12.530000000000006      44.750000000000007      62.650000000000006
   284   1      12.530000000000006      46.540000000000006      64.440000000000012
   285   1      14.320000000000006      44.750000000000007      64.440000000000012
   286   1      14.320000000000006      46.540000000000006      62.650000000000006
   287   1      14.320000000000006      46.540000000000006      66.230000000000004
   288   1      12.530000000000006      50.120000000000012      42.960000000000001
   289   1      14.320000000000006      48.330000000000013      42.960000000000001
   290   1      14.320000000000006      50.120000000000012      41.170000000000002
   291   1      12.530000000000006      48.330000000000013      44.750000000000007
   292   1      12.530000000000006      50.120000000000012      46.540000000000006
   293   1      14.320000000000006      48.330000000000013      46.540000000000006
   294   1      14.320000000000006      50.120000000000012      44.750000000000007
   295   1      12.530000000000006      48.330000000000013      48.330000000000013
   296   1      12.530000000000006      50.120000000000012      50.120000000000012
   297   1      14.320000000000006      48.330000000000013      50.120000000000012
   298   1      14.320000000000006      50.120000000000012      48.330000000000013
   299   1      12.530000000000006      48.330000000000013      51.910000000000011
   300   1      12.530000000000006      50.120000000000012       53.70000000000001
   301   1      14.320000000000006      48.330000000000013       53.70000000000001
   302   1      14.320000000000006      50.120000000000012      51.910000000000011
   303   1      12.530000000000006      48.330000000000013      55.490000000000002
   304   1      12.530000000000006      50.120000000000012      57.280000000000008
   305   1      14.320000000000006      48.330000000000013      57.280000000000008
   306   1      14.320000000000006      50.120000000000012      55.490000000000002
   307   1      12.530000000000006      48.330000000000013                   59.07
   308   1      12.530000000000006      50.120000000000012      60.860000000000007
   309   1      14.320000000000006      48.330000000000013      60.860000000000007
   310   1      14.320000000000006      50.120000000000012                   59.07
   311   1      12.530000000000006      48.330000000000013      62.650000000000006
   312   1      12.530000000000006      50.120000000000012      64.440000000000012
   313   1      14.320000000000006      48.330000000000013      64.440000000000012
   314   1      14.320000000000006      50.120000000000012      62.650000000000006
   315   1      12.530000000000006      48.330000000000013      66.230000000000004
   316   1      12.530000000000006      50.120000000000012       68.02000000000001
   317   1      14.320000000000006      48.330000000000013       68.02000000000001
   318   1      14.320000000000006      50.120000000000012      66.230000000000004
   319   1      14.320000000000006      50.120000000000012      69.810000000000002
   320   1      12.530000000000006       53.70000000000001       39.38000000000001
   321   1      14.320000000000006      51.910000000000011       39.38000000000001
   322   1      14.320000000000006       53.70000000000001      37.590000000000011
   323   1      12.530000000000006      51.910000000000011      41.170000000000002
   324   1      12.530000000000006       53.70000000000001      42.960000000000001
   325   1      14.320000000000006      51.910000000000011      42.960000000000001
   326   1      14.320000000000006       53.70000000000001      41.170000000000002
   327   1      12.530000000000006      51.910000000000011      44.750000000000007
   328   1      12.530000000000006       53.70000000000001      46.540000000000006
   329   1      14.320000000000006      51.910000000000011      46.540000000000006
   330   1      14.320000000000006       53.70000000000001      44.750000000000007
   331   1      12.530000000000006      51.910000000000011      48.330000000000013
   332   1      12.530000000000006       53.70000000000001      50.120000000000012
   333   1      14.320000000000006      51.910000000000011      50.120000000000012
   334   1      14.320000000000006       53.70000000000001      48.330000000000013
   335   1      12.530000000000006      51.910000000000011      51.910000000000011
   336   1      12.530000000000006       53.70000000000001       53.70000000000001
   337   1      14.320000000000006      51.910000000000011       53.70000000000001
   338   1      14.320000000000006       53.70000000000001      51.910000000000011
   339   1      12.530000000000006      51.910000000000011      55.490000000000002
   340   1      12.530000000000006       53.70000000000001      57.280000000000008
   341   1      14.320000000000006      51.910000000000011      57.280000000000008
   342   1      14.320000000000006       53.70000000000001      55.490000000000002
   343   1      12.530000000000006      51.910000000000011                   59.07
   344   1      12.530000000000006       53.70000000000001      60.860000000000007
   345   1      14.320000000000006      51.910000000000011      60.860000000000007
   346   1      14.320000000000006       53.70000000000001                   59.07
   347   1      12.530000000000006      51.910000000000011      62.650000000000006
   348   1      12.530000000000006       53.70000000000001      64.440000000000012
   349   1      14.320000000000006      51.910000000000011      64.440000000000012
   350   1      14.320000000000006       53.70000000000001      62.650000000000006
   351   1      12.530000000000006      51.910000000000011      66.230000000000004
   352   1      12.530000000000006       53.70000000000001       68.02000000000001
   353   1      14.320000000000006      51.910000000000011       68.02000000000001
   354   1      14.320000000000006       53.70000000000001      66.230000000000004
   355   1      12.530000000000006      51.910000000000011      69.810000000000002
   356   1      12.530000000000006       53.70000000000001      71.600000000000009
   357   1      14.320000000000006      51.910000000000011      71.600000000000009
   358   1      14.320000000000006       53.70000000000001      69.810000000000002