model_files/NiCoCrFeMn/NiCoCrFeMn_30000/NiCoCrFeMn_543/NiCoCrFeMn_543_fcc_30079_temp.data (written by ASE) 

30079 	 atoms 
5  atom types
0.0                     113  xlo xhi
0.0                     113  ylo yhi
0.0                     113  zlo zhi


Atoms 

     1   1                       0      53.925000000000004      55.722500000000004
     2   1                       0      55.722500000000004      53.925000000000004
     3   1                       0      55.722500000000004      57.519999999999996
     4   1                       0      57.519999999999996      55.722500000000004
     5   1      3.5949999999999993      50.330000000000005      55.722500000000004
     6   1      1.7974999999999997      53.925000000000004      53.925000000000004
     7   1      3.5949999999999993      52.127500000000005      53.925000000000004
     8   1      3.5949999999999993      53.925000000000004      52.127500000000005
     9   1      1.7974999999999997      52.127500000000005      55.722500000000004
    10   1      1.7974999999999997      53.925000000000004      57.519999999999996
    11   1      3.5949999999999993      52.127500000000005      57.519999999999996
    12   1      3.5949999999999993      53.925000000000004      55.722500000000004
    13   1      3.5949999999999993      53.925000000000004      59.317499999999995
    14   1      3.5949999999999993      55.722500000000004      50.330000000000005
    15   1      1.7974999999999997      55.722500000000004      52.127500000000005
    16   1      1.7974999999999997      57.519999999999996      53.925000000000004
    17   1      3.5949999999999993      55.722500000000004      53.925000000000004
    18   1      3.5949999999999993      57.519999999999996      52.127500000000005
    19   1      1.7974999999999997      55.722500000000004      55.722500000000004
    20   1      1.7974999999999997      57.519999999999996      57.519999999999996
    21   1      3.5949999999999993      55.722500000000004      57.519999999999996
    22   1      3.5949999999999993      57.519999999999996      55.722500000000004
    23   1      1.7974999999999997      55.722500000000004      59.317499999999995
    24   1      3.5949999999999993      55.722500000000004      61.115000000000009
    25   1      3.5949999999999993      57.519999999999996      59.317499999999995
    26   1      3.5949999999999993      59.317499999999995      53.925000000000004
    27   1      1.7974999999999997      59.317499999999995      55.722500000000004
    28   1      3.5949999999999993      59.317499999999995      57.519999999999996
    29   1      3.5949999999999993      61.115000000000009      55.722500000000004
    30   1      7.1900000000000048      46.734999999999999      55.722500000000004
    31   1      5.3924999999999983      50.330000000000005      53.925000000000004
    32   1      7.1900000000000048      48.532500000000006      53.925000000000004
    33   1      7.1900000000000048      50.330000000000005      52.127500000000005
    34   1      5.3924999999999983      48.532500000000006      55.722500000000004
    35   1      5.3924999999999983      50.330000000000005      57.519999999999996
    36   1      7.1900000000000048      48.532500000000006      57.519999999999996
    37   1      7.1900000000000048      50.330000000000005      55.722500000000004
    38   1      7.1900000000000048      50.330000000000005      59.317499999999995
    39   1      5.3924999999999983      53.925000000000004      50.330000000000005
    40   1      7.1900000000000048      52.127500000000005      50.330000000000005
    41   1      7.1900000000000048      53.925000000000004      48.532500000000006
    42   1      5.3924999999999983      52.127500000000005      52.127500000000005
    43   1      5.3924999999999983      53.925000000000004      53.925000000000004
    44   1      7.1900000000000048      52.127500000000005      53.925000000000004
    45   1      7.1900000000000048      53.925000000000004      52.127500000000005
    46   1      5.3924999999999983      52.127500000000005      55.722500000000004
    47   1      5.3924999999999983      53.925000000000004      57.519999999999996
    48   1      7.1900000000000048      52.127500000000005      57.519999999999996
    49   1      7.1900000000000048      53.925000000000004      55.722500000000004
    50   1      5.3924999999999983      52.127500000000005      59.317499999999995
    51   1      5.3924999999999983      53.925000000000004      61.115000000000009
    52   1      7.1900000000000048      52.127500000000005      61.115000000000009
    53   1      7.1900000000000048      53.925000000000004      59.317499999999995
    54   1      7.1900000000000048      53.925000000000004      62.912500000000001
    55   1      7.1900000000000048      55.722500000000004      46.734999999999999
    56   1      5.3924999999999983      55.722500000000004      48.532500000000006
    57   1      5.3924999999999983      57.519999999999996      50.330000000000005
    58   1      7.1900000000000048      55.722500000000004      50.330000000000005
    59   1      7.1900000000000048      57.519999999999996      48.532500000000006
    60   1      5.3924999999999983      55.722500000000004      52.127500000000005
    61   1      5.3924999999999983      57.519999999999996      53.925000000000004
    62   1      7.1900000000000048      55.722500000000004      53.925000000000004
    63   1      7.1900000000000048      57.519999999999996      52.127500000000005
    64   1      5.3924999999999983      55.722500000000004      55.722500000000004
    65   1      5.3924999999999983      57.519999999999996      57.519999999999996
    66   1      7.1900000000000048      55.722500000000004      57.519999999999996
    67   1      7.1900000000000048      57.519999999999996      55.722500000000004
    68   1      5.3924999999999983      55.722500000000004      59.317499999999995
    69   1      5.3924999999999983      57.519999999999996      61.115000000000009
    70   1      7.1900000000000048      55.722500000000004      61.115000000000009
    71   1      7.1900000000000048      57.519999999999996      59.317499999999995
    72   1      5.3924999999999983      55.722500000000004      62.912500000000001
    73   1      7.1900000000000048      55.722500000000004      64.710000000000008
    74   1      7.1900000000000048      57.519999999999996      62.912500000000001
    75   1      7.1900000000000048      59.317499999999995      50.330000000000005
    76   1      5.3924999999999983      59.317499999999995      52.127500000000005
    77   1      5.3924999999999983      61.115000000000009      53.925000000000004
    78   1      7.1900000000000048      59.317499999999995      53.925000000000004
    79   1      7.1900000000000048      61.115000000000009      52.127500000000005
    80   1      5.3924999999999983      59.317499999999995      55.722500000000004
    81   1      5.3924999999999983      61.115000000000009      57.519999999999996
    82   1      7.1900000000000048      59.317499999999995      57.519999999999996
    83   1      7.1900000000000048      61.115000000000009      55.722500000000004
    84   1      5.3924999999999983      59.317499999999995      59.317499999999995
    85   1      7.1900000000000048      59.317499999999995      61.115000000000009
    86   1      7.1900000000000048      61.115000000000009      59.317499999999995
    87   1      7.1900000000000048      62.912500000000001      53.925000000000004
    88   1      5.3924999999999983      62.912500000000001      55.722500000000004
    89   1      7.1900000000000048      62.912500000000001      57.519999999999996
    90   1      7.1900000000000048      64.710000000000008      55.722500000000004
    91   1      10.785000000000004      43.140000000000001      52.127500000000005
    92   1      10.785000000000004      43.140000000000001      55.722500000000004
    93   1      10.785000000000004      43.140000000000001      59.317499999999995
    94   1      8.9875000000000043      46.734999999999999      50.330000000000005
    95   1      10.785000000000004                 44.9375      50.330000000000005
    96   1      10.785000000000004      46.734999999999999      48.532500000000006
    97   1      8.9875000000000043      46.734999999999999      53.925000000000004
    98   1      10.785000000000004                 44.9375      53.925000000000004
    99   1      10.785000000000004      46.734999999999999      52.127500000000005
   100   1      8.9875000000000043                 44.9375      55.722500000000004
   101   1      8.9875000000000043      46.734999999999999      57.519999999999996
   102   1      10.785000000000004                 44.9375      57.519999999999996
   103   1      10.785000000000004      46.734999999999999      55.722500000000004
   104   1      8.9875000000000043      46.734999999999999      61.115000000000009
   105   1      10.785000000000004                 44.9375      61.115000000000009
   106   1      10.785000000000004      46.734999999999999      59.317499999999995
   107   1      10.785000000000004      46.734999999999999      62.912500000000001
   108   1      8.9875000000000043      50.330000000000005      46.734999999999999
   109   1      10.785000000000004      48.532500000000006      46.734999999999999
   110   1      10.785000000000004      50.330000000000005                 44.9375
   111   1      8.9875000000000043      48.532500000000006      48.532500000000006
   112   1      8.9875000000000043      50.330000000000005      50.330000000000005
   113   1      10.785000000000004      48.532500000000006      50.330000000000005
   114   1      10.785000000000004      50.330000000000005      48.532500000000006
   115   1      8.9875000000000043      48.532500000000006      52.127500000000005
   116   1      8.9875000000000043      50.330000000000005      53.925000000000004
   117   1      10.785000000000004      48.532500000000006      53.925000000000004
   118   1      10.785000000000004      50.330000000000005      52.127500000000005
   119   1      8.9875000000000043      48.532500000000006      55.722500000000004
   120   1      8.9875000000000043      50.330000000000005      57.519999999999996
   121   1      10.785000000000004      48.532500000000006      57.519999999999996
   122   1      10.785000000000004      50.330000000000005      55.722500000000004
   123   1      8.9875000000000043      48.532500000000006      59.317499999999995
   124   1      8.9875000000000043      50.330000000000005      61.115000000000009
   125   1      10.785000000000004      48.532500000000006      61.115000000000009
   126   1      10.785000000000004      50.330000000000005      59.317499999999995
   127   1      8.9875000000000043      48.532500000000006      62.912500000000001
   128   1      8.9875000000000043      50.330000000000005      64.710000000000008
   129   1      10.785000000000004      48.532500000000006      64.710000000000008
   130   1      10.785000000000004      50.330000000000005      62.912500000000001
   131   1      10.785000000000004      50.330000000000005      66.507500000000007
   132   1      10.785000000000004      52.127500000000005      43.140000000000001
   133   1      8.9875000000000043      53.925000000000004      46.734999999999999
   134   1      10.785000000000004      52.127500000000005      46.734999999999999
   135   1      10.785000000000004      53.925000000000004                 44.9375
   136   1      8.9875000000000043      52.127500000000005      48.532500000000006
   137   1      8.9875000000000043      53.925000000000004      50.330000000000005
   138   1      10.785000000000004      52.127500000000005      50.330000000000005
   139   1      10.785000000000004      53.925000000000004      48.532500000000006
   140   1      8.9875000000000043      52.127500000000005      52.127500000000005
   141   1      8.9875000000000043      53.925000000000004      53.925000000000004
   142   1      10.785000000000004      52.127500000000005      53.925000000000004
   143   1      10.785000000000004      53.925000000000004      52.127500000000005
   144   1      8.9875000000000043      52.127500000000005      55.722500000000004
   145   1      8.9875000000000043      53.925000000000004      57.519999999999996
   146   1      10.785000000000004      52.127500000000005      57.519999999999996
   147   1      10.785000000000004      53.925000000000004      55.722500000000004
   148   1      8.9875000000000043      52.127500000000005      59.317499999999995
   149   1      8.9875000000000043      53.925000000000004      61.115000000000009
   150   1      10.785000000000004      52.127500000000005      61.115000000000009
   151   1      10.785000000000004      53.925000000000004      59.317499999999995
   152   1      8.9875000000000043      52.127500000000005      62.912500000000001
   153   1      8.9875000000000043      53.925000000000004      64.710000000000008
   154   1      10.785000000000004      52.127500000000005      64.710000000000008
   155   1      10.785000000000004      53.925000000000004      62.912500000000001
   156   1      10.785000000000004      52.127500000000005      68.305000000000007
   157   1      10.785000000000004      53.925000000000004      66.507500000000007
   158   1      10.785000000000004      55.722500000000004      43.140000000000001
   159   1      8.9875000000000043      55.722500000000004                 44.9375
   160   1      8.9875000000000043      57.519999999999996      46.734999999999999
   161   1      10.785000000000004      55.722500000000004      46.734999999999999
   162   1      10.785000000000004      57.519999999999996                 44.9375
   163   1      8.9875000000000043      55.722500000000004      48.532500000000006
   164   1      8.9875000000000043      57.519999999999996      50.330000000000005
   165   1      10.785000000000004      55.722500000000004      50.330000000000005
   166   1      10.785000000000004      57.519999999999996      48.532500000000006
   167   1      8.9875000000000043      55.722500000000004      52.127500000000005
   168   1      8.9875000000000043      57.519999999999996      53.925000000000004
   169   1      10.785000000000004      55.722500000000004      53.925000000000004
   170   1      10.785000000000004      57.519999999999996      52.127500000000005
   171   1      8.9875000000000043      55.722500000000004      55.722500000000004
   172   1      8.9875000000000043      57.519999999999996      57.519999999999996
   173   1      10.785000000000004      55.722500000000004      57.519999999999996
   174   1      10.785000000000004      57.519999999999996      55.722500000000004
   175   1      8.9875000000000043      55.722500000000004      59.317499999999995
   176   1      8.9875000000000043      57.519999999999996      61.115000000000009
   177   1      10.785000000000004      55.722500000000004      61.115000000000009
   178   1      10.785000000000004      57.519999999999996      59.317499999999995
   179   1      8.9875000000000043      55.722500000000004      62.912500000000001
   180   1      8.9875000000000043      57.519999999999996      64.710000000000008
   181   1      10.785000000000004      55.722500000000004      64.710000000000008
   182   1      10.785000000000004      57.519999999999996      62.912500000000001
   183   1      8.9875000000000043      55.722500000000004      66.507500000000007
   184   1      10.785000000000004      55.722500000000004      68.305000000000007
   185   1      10.785000000000004      57.519999999999996      66.507500000000007
   186   1      10.785000000000004      59.317499999999995      43.140000000000001
   187   1      8.9875000000000043      61.115000000000009      46.734999999999999
   188   1      10.785000000000004      59.317499999999995      46.734999999999999
   189   1      10.785000000000004      61.115000000000009                 44.9375
   190   1      8.9875000000000043      59.317499999999995      48.532500000000006
   191   1      8.9875000000000043      61.115000000000009      50.330000000000005
   192   1      10.785000000000004      59.317499999999995      50.330000000000005
   193   1      10.785000000000004      61.115000000000009      48.532500000000006
   194   1      8.9875000000000043      59.317499999999995      52.127500000000005
   195   1      8.9875000000000043      61.115000000000009      53.925000000000004
   196   1      10.785000000000004      59.317499999999995      53.925000000000004
   197   1      10.785000000000004      61.115000000000009      52.127500000000005
   198   1      8.9875000000000043      59.317499999999995      55.722500000000004
   199   1      8.9875000000000043      61.115000000000009      57.519999999999996
   200   1      10.785000000000004      59.317499999999995      57.519999999999996
   201   1      10.785000000000004      61.115000000000009      55.722500000000004
   202   1      8.9875000000000043      59.317499999999995      59.317499999999995
   203   1      8.9875000000000043      61.115000000000009      61.115000000000009
   204   1      10.785000000000004      59.317499999999995      61.115000000000009
   205   1      10.785000000000004      61.115000000000009      59.317499999999995
   206   1      8.9875000000000043      59.317499999999995      62.912500000000001
   207   1      8.9875000000000043      61.115000000000009      64.710000000000008
   208   1      10.785000000000004      59.317499999999995      64.710000000000008
   209   1      10.785000000000004      61.115000000000009      62.912500000000001
   210   1      10.785000000000004      59.317499999999995      68.305000000000007
   211   1      10.785000000000004      61.115000000000009      66.507500000000007
   212   1      10.785000000000004      62.912500000000001      46.734999999999999
   213   1      8.9875000000000043      62.912500000000001      48.532500000000006
   214   1      8.9875000000000043      64.710000000000008      50.330000000000005
   215   1      10.785000000000004      62.912500000000001      50.330000000000005
   216   1      10.785000000000004      64.710000000000008      48.532500000000006
   217   1      8.9875000000000043      62.912500000000001      52.127500000000005
   218   1      8.9875000000000043      64.710000000000008      53.925000000000004
   219   1      10.785000000000004      62.912500000000001      53.925000000000004
   220   1      10.785000000000004      64.710000000000008      52.127500000000005
   221   1      8.9875000000000043      62.912500000000001      55.722500000000004
   222   1      8.9875000000000043      64.710000000000008      57.519999999999996
   223   1      10.785000000000004      62.912500000000001      57.519999999999996
   224   1      10.785000000000004      64.710000000000008      55.722500000000004
   225   1      8.9875000000000043      62.912500000000001      59.317499999999995
   226   1      8.9875000000000043      64.710000000000008      61.115000000000009
   227   1      10.785000000000004      62.912500000000001      61.115000000000009
   228   1      10.785000000000004      64.710000000000008      59.317499999999995
   229   1      8.9875000000000043      62.912500000000001      62.912500000000001
   230   1      10.785000000000004      62.912500000000001      64.710000000000008
   231   1      10.785000000000004      64.710000000000008      62.912500000000001
   232   1      10.785000000000004      66.507500000000007      50.330000000000005
   233   1      10.785000000000004      66.507500000000007      53.925000000000004
   234   1      10.785000000000004      68.305000000000007      52.127500000000005
   235   1      8.9875000000000043      66.507500000000007      55.722500000000004
   236   1      10.785000000000004      66.507500000000007      57.519999999999996
   237   1      10.785000000000004      68.305000000000007      55.722500000000004
   238   1      10.785000000000004      66.507500000000007      61.115000000000009
   239   1      10.785000000000004      68.305000000000007      59.317499999999995
   240   1      14.380000000000003      35.950000000000003      55.722500000000004
   241   1      12.582500000000003      39.545000000000002      53.925000000000004
   242   1      14.380000000000003      37.747500000000002      53.925000000000004
   243   1      14.380000000000003      39.545000000000002      52.127500000000005
   244   1      12.582500000000003      39.545000000000002      57.519999999999996
   245   1      14.380000000000003      37.747500000000002      57.519999999999996
   246   1      14.380000000000003      39.545000000000002      55.722500000000004
   247   1      14.380000000000003      39.545000000000002      59.317499999999995
   248   1      12.582500000000003      43.140000000000001      50.330000000000005
   249   1      14.380000000000003      41.342500000000001      50.330000000000005
   250   1      14.380000000000003      43.140000000000001      48.532500000000006
   251   1      12.582500000000003      41.342500000000001      52.127500000000005
   252   1      12.582500000000003      43.140000000000001      53.925000000000004
   253   1      14.380000000000003      41.342500000000001      53.925000000000004
   254   1      14.380000000000003      43.140000000000001      52.127500000000005
   255   1      12.582500000000003      41.342500000000001      55.722500000000004
   256   1      12.582500000000003      43.140000000000001      57.519999999999996
   257   1      14.380000000000003      41.342500000000001      57.519999999999996
   258   1      14.380000000000003      43.140000000000001      55.722500000000004
   259   1      12.582500000000003      41.342500000000001      59.317499999999995
   260   1      12.582500000000003      43.140000000000001      61.115000000000009
   261   1      14.380000000000003      41.342500000000001      61.115000000000009
   262   1      14.380000000000003      43.140000000000001      59.317499999999995
   263   1      14.380000000000003      43.140000000000001      62.912500000000001
   264   1      12.582500000000003      46.734999999999999      46.734999999999999
   265   1      14.380000000000003                 44.9375      46.734999999999999
   266   1      14.380000000000003      46.734999999999999                 44.9375
   267   1      12.582500000000003                 44.9375      48.532500000000006
   268   1      12.582500000000003      46.734999999999999      50.330000000000005
   269   1      14.380000000000003                 44.9375      50.330000000000005
   270   1      14.380000000000003      46.734999999999999      48.532500000000006
   271   1      12.582500000000003                 44.9375      52.127500000000005
   272   1      12.582500000000003      46.734999999999999      53.925000000000004
   273   1      14.380000000000003                 44.9375      53.925000000000004
   274   1      14.380000000000003      46.734999999999999      52.127500000000005
   275   1      12.582500000000003                 44.9375      55.722500000000004
   276   1      12.582500000000003      46.734999999999999      57.519999999999996
   277   1      14.380000000000003                 44.9375      57.519999999999996
   278   1      14.380000000000003      46.734999999999999      55.722500000000004
   279   1      12.582500000000003                 44.9375      59.317499999999995
   280   1      12.582500000000003      46.734999999999999      61.115000000000009
   281   1      14.380000000000003                 44.9375      61.115000000000009
   282   1      14.380000000000003      46.734999999999999      59.317499999999995
   283   1      12.582500000000003                 44.9375      62.912500000000001
   284   1      12.582500000000003      46.734999999999999      64.710000000000008
   285   1      14.380000000000003                 44.9375      64.710000000000008
   286   1      14.380000000000003      46.734999999999999      62.912500000000001
   287   1      14.380000000000003      46.734999999999999      66.507500000000007
   288   1      12.582500000000003      50.330000000000005      43.140000000000001
   289   1      14.380000000000003      48.532500000000006      43.140000000000001
   290   1      14.380000000000003      50.330000000000005      41.342500000000001
   291   1      12.582500000000003      48.532500000000006                 44.9375
   292   1      12.582500000000003      50.330000000000005      46.734999999999999
   293   1      14.380000000000003      48.532500000000006      46.734999999999999
   294   1      14.380000000000003      50.330000000000005                 44.9375
   295   1      12.582500000000003      48.532500000000006      48.532500000000006
   296   1      12.582500000000003      50.330000000000005      50.330000000000005
   297   1      14.380000000000003      48.532500000000006      50.330000000000005
   298   1      14.380000000000003      50.330000000000005      48.532500000000006
   299   1      12.582500000000003      48.532500000000006      52.127500000000005
   300   1      12.582500000000003      50.330000000000005      53.925000000000004
   301   1      14.380000000000003      48.532500000000006      53.925000000000004
   302   1      14.380000000000003      50.330000000000005      52.127500000000005
   303   1      12.582500000000003      48.532500000000006      55.722500000000004
   304   1      12.582500000000003      50.330000000000005      57.519999999999996
   305   1      14.380000000000003      48.532500000000006      57.519999999999996
   306   1      14.380000000000003      50.330000000000005      55.722500000000004
   307   1      12.582500000000003      48.532500000000006      59.317499999999995
   308   1      12.582500000000003      50.330000000000005      61.115000000000009
   309   1      14.380000000000003      48.532500000000006      61.115000000000009
   310   1      14.380000000000003      50.330000000000005      59.317499999999995
   311   1      12.582500000000003      48.532500000000006      62.912500000000001
   312   1      12.582500000000003      50.330000000000005      64.710000000000008
   313   1      14.380000000000003      48.532500000000006      64.710000000000008
   314   1      14.380000000000003      50.330000000000005      62.912500000000001
   315   1      12.582500000000003      48.532500000000006      66.507500000000007
   316   1      12.582500000000003      50.330000000000005      68.305000000000007
   317   1      14.380000000000003      48.532500000000006      68.305000000000007
   318   1      14.380000000000003      50.330000000000005      66.507500000000007
   319   1      14.380000000000003      50.330000000000005      70.102500000000006
   320   1      12.582500000000003      53.925000000000004      39.545000000000002
   321   1      14.380000000000003      52.127500000000005      39.545000000000002
   322   1      14.380000000000003      53.925000000000004      37.747500000000002
   323   1      12.582500000000003      52.127500000000005      41.342500000000001
   324   1      12.582500000000003      53.925000000000004      43.140000000000001
   325   1      14.380000000000003      52.127500000000005      43.140000000000001
   326   1      14.380000000000003      53.925000000000004      41.342500000000001
   327   1      12.582500000000003      52.127500000000005                 44.9375
   328   1      12.582500000000003      53.925000000000004      46.734999999999999
   329   1      14.380000000000003      52.127500000000005      46.734999999999999
   330   1      14.380000000000003      53.925000000000004                 44.9375
   331   1      12.582500000000003      52.127500000000005      48.532500000000006
   332   1      12.582500000000003      53.925000000000004      50.330000000000005
   333   1      14.380000000000003      52.127500000000005      50.330000000000005
   334   1      14.380000000000003      53.925000000000004      48.532500000000006
   335   1      12.582500000000003      52.127500000000005      52.127500000000005
   336   1      12.582500000000003      53.925000000000004      53.925000000000004
   337   1      14.380000000000003      52.127500000000005      53.925000000000004
   338   1      14.380000000000003      53.925000000000004      52.127500000000005
   339   1      12.582500000000003      52.127500000000005      55.722500000000004
   340   1      12.582500000000003      53.925000000000004      57.519999999999996
   341   1      14.380000000000003      52.127500000000005      57.519999999999996
   342   1      14.380000000000003      53.925000000000004      55.722500000000004
   343   1      12.582500000000003      52.127500000000005      59.317499999999995
   344   1      12.582500000000003      53.925000000000004      61.115000000000009
   345   1      14.380000000000003      52.127500000000005      61.115000000000009
   346   1      14.380000000000003      53.925000000000004      59.317499999999995
   347   1      12.582500000000003      52.127500000000005      62.912500000000001
   348   1      12.582500000000003      53.925000000000004      64.710000000000008
   349   1      14.380000000000003      52.127500000000005      64.710000000000008
   350   1      14.380000000000003      53.925000000000004      62.912500000000001
   351   1      12.582500000000003      52.127500000000005      66.507500000000007
   352   1      12.582500000000003      53.925000000000004      68.305000000000007
   353   1      14.380000000000003      52.127500000000005      68.305000000000007
   354   1      14.380000000000003      53.925000000000004      66.507500000000007
   355   1      12.582500000000003      52.127500000000005      70.102500000000006
   356   1      12.582500000000003      53.925000000000004      71.900000000000006
   357   1      14.380000000000003      52.127500000000005      71.900000000000006
   358   1      14.380000000000003      53.925000000000004      70.102500000000006