model_files/Cu/Cu_30000/Cu_320/data.Cu_320_fcc_29879 (written by ASE) 

29879 	 atoms 
1  atom types
0.0                      95  xlo xhi
0.0                      95  ylo yhi
0.0                      95  zlo zhi


Atoms 

     1   1      1.8049999999999997      41.515000000000001                   43.32
     2   1      1.8049999999999997      41.515000000000001                   46.93
     3   1      1.8049999999999997      41.515000000000001      50.540000000000006
     4   1      1.8049999999999997                   43.32      41.515000000000001
     5   1                       0                   43.32                   43.32
     6   1                       0                  45.125                  45.125
     7   1      1.8049999999999997                   43.32                  45.125
     8   1      1.8049999999999997                  45.125                   43.32
     9   1                       0                   43.32                   46.93
    10   1                       0                  45.125      48.734999999999999
    11   1      1.8049999999999997                   43.32      48.734999999999999
    12   1      1.8049999999999997                  45.125                   46.93
    13   1                       0                   43.32      50.540000000000006
    14   1      1.8049999999999997                   43.32      52.344999999999992
    15   1      1.8049999999999997                  45.125      50.540000000000006
    16   1      1.8049999999999997                   46.93      41.515000000000001
    17   1                       0                   46.93                   43.32
    18   1                       0      48.734999999999999                  45.125
    19   1      1.8049999999999997                   46.93                  45.125
    20   1      1.8049999999999997      48.734999999999999                   43.32
    21   1                       0                   46.93                   46.93
    22   1                       0      48.734999999999999      48.734999999999999
    23   1      1.8049999999999997                   46.93      48.734999999999999
    24   1      1.8049999999999997      48.734999999999999                   46.93
    25   1                       0                   46.93      50.540000000000006
    26   1      1.8049999999999997                   46.93      52.344999999999992
    27   1      1.8049999999999997      48.734999999999999      50.540000000000006
    28   1      1.8049999999999997      50.540000000000006      41.515000000000001
    29   1                       0      50.540000000000006                   43.32
    30   1      1.8049999999999997      50.540000000000006                  45.125
    31   1      1.8049999999999997      52.344999999999992                   43.32
    32   1                       0      50.540000000000006                   46.93
    33   1      1.8049999999999997      50.540000000000006      48.734999999999999
    34   1      1.8049999999999997      52.344999999999992                   46.93
    35   1                       0      50.540000000000006      50.540000000000006
    36   1      1.8049999999999997      50.540000000000006      52.344999999999992
    37   1      1.8049999999999997      52.344999999999992      50.540000000000006
    38   1      3.6099999999999994      37.905000000000001      37.905000000000001
    39   1      5.4149999999999991      36.100000000000001      37.905000000000001
    40   1      5.4149999999999991      37.905000000000001      36.100000000000001
    41   1      3.6099999999999994      37.905000000000001      41.515000000000001
    42   1      5.4149999999999991      36.100000000000001      41.515000000000001
    43   1      5.4149999999999991      37.905000000000001      39.710000000000001
    44   1      3.6099999999999994      37.905000000000001                  45.125
    45   1      5.4149999999999991      36.100000000000001                  45.125
    46   1      5.4149999999999991      37.905000000000001                   43.32
    47   1      3.6099999999999994      37.905000000000001      48.734999999999999
    48   1      5.4149999999999991      36.100000000000001      48.734999999999999
    49   1      5.4149999999999991      37.905000000000001                   46.93
    50   1      3.6099999999999994      37.905000000000001      52.344999999999992
    51   1      5.4149999999999991      36.100000000000001      52.344999999999992
    52   1      5.4149999999999991      37.905000000000001      50.540000000000006
    53   1      3.6099999999999994      37.905000000000001      55.954999999999998
    54   1      5.4149999999999991      36.100000000000001      55.954999999999998
    55   1      5.4149999999999991      37.905000000000001      54.149999999999999
    56   1      5.4149999999999991      37.905000000000001      57.759999999999998
    57   1      3.6099999999999994      41.515000000000001      37.905000000000001
    58   1      5.4149999999999991      39.710000000000001      37.905000000000001
    59   1      5.4149999999999991      41.515000000000001      36.100000000000001
    60   1      3.6099999999999994      39.710000000000001      39.710000000000001
    61   1      3.6099999999999994      41.515000000000001      41.515000000000001
    62   1      5.4149999999999991      39.710000000000001      41.515000000000001
    63   1      5.4149999999999991      41.515000000000001      39.710000000000001
    64   1      3.6099999999999994      39.710000000000001                   43.32
    65   1      3.6099999999999994      41.515000000000001                  45.125
    66   1      5.4149999999999991      39.710000000000001                  45.125
    67   1      5.4149999999999991      41.515000000000001                   43.32
    68   1      3.6099999999999994      39.710000000000001                   46.93
    69   1      3.6099999999999994      41.515000000000001      48.734999999999999
    70   1      5.4149999999999991      39.710000000000001      48.734999999999999
    71   1      5.4149999999999991      41.515000000000001                   46.93
    72   1      3.6099999999999994      39.710000000000001      50.540000000000006
    73   1      3.6099999999999994      41.515000000000001      52.344999999999992
    74   1      5.4149999999999991      39.710000000000001      52.344999999999992
    75   1      5.4149999999999991      41.515000000000001      50.540000000000006
    76   1      3.6099999999999994      39.710000000000001      54.149999999999999
    77   1      3.6099999999999994      41.515000000000001      55.954999999999998
    78   1      5.4149999999999991      39.710000000000001      55.954999999999998
    79   1      5.4149999999999991      41.515000000000001      54.149999999999999
    80   1      5.4149999999999991      41.515000000000001      57.759999999999998
    81   1      3.6099999999999994                  45.125      37.905000000000001
    82   1      5.4149999999999991                   43.32      37.905000000000001
    83   1      5.4149999999999991                  45.125      36.100000000000001
    84   1      3.6099999999999994                   43.32      39.710000000000001
    85   1      3.6099999999999994                  45.125      41.515000000000001
    86   1      5.4149999999999991                   43.32      41.515000000000001
    87   1      5.4149999999999991                  45.125      39.710000000000001
    88   1      3.6099999999999994                   43.32                   43.32
    89   1      3.6099999999999994                  45.125                  45.125
    90   1      5.4149999999999991                   43.32                  45.125
    91   1      5.4149999999999991                  45.125                   43.32
    92   1      3.6099999999999994                   43.32                   46.93
    93   1      3.6099999999999994                  45.125      48.734999999999999
    94   1      5.4149999999999991                   43.32      48.734999999999999
    95   1      5.4149999999999991                  45.125                   46.93
    96   1      3.6099999999999994                   43.32      50.540000000000006
    97   1      3.6099999999999994                  45.125      52.344999999999992
    98   1      5.4149999999999991                   43.32      52.344999999999992
    99   1      5.4149999999999991                  45.125      50.540000000000006
   100   1      3.6099999999999994                   43.32      54.149999999999999
   101   1      3.6099999999999994                  45.125      55.954999999999998
   102   1      5.4149999999999991                   43.32      55.954999999999998
   103   1      5.4149999999999991                  45.125      54.149999999999999
   104   1      5.4149999999999991                  45.125      57.759999999999998
   105   1      3.6099999999999994      48.734999999999999      37.905000000000001
   106   1      5.4149999999999991                   46.93      37.905000000000001
   107   1      5.4149999999999991      48.734999999999999      36.100000000000001
   108   1      3.6099999999999994                   46.93      39.710000000000001
   109   1      3.6099999999999994      48.734999999999999      41.515000000000001
   110   1      5.4149999999999991                   46.93      41.515000000000001
   111   1      5.4149999999999991      48.734999999999999      39.710000000000001
   112   1      3.6099999999999994                   46.93                   43.32
   113   1      3.6099999999999994      48.734999999999999                  45.125
   114   1      5.4149999999999991                   46.93                  45.125
   115   1      5.4149999999999991      48.734999999999999                   43.32
   116   1      3.6099999999999994                   46.93                   46.93
   117   1      3.6099999999999994      48.734999999999999      48.734999999999999
   118   1      5.4149999999999991                   46.93      48.734999999999999
   119   1      5.4149999999999991      48.734999999999999                   46.93
   120   1      3.6099999999999994                   46.93      50.540000000000006
   121   1      3.6099999999999994      48.734999999999999      52.344999999999992
   122   1      5.4149999999999991                   46.93      52.344999999999992
   123   1      5.4149999999999991      48.734999999999999      50.540000000000006
   124   1      3.6099999999999994                   46.93      54.149999999999999
   125   1      3.6099999999999994      48.734999999999999      55.954999999999998
   126   1      5.4149999999999991                   46.93      55.954999999999998
   127   1      5.4149999999999991      48.734999999999999      54.149999999999999
   128   1      5.4149999999999991      48.734999999999999      57.759999999999998
   129   1      3.6099999999999994      52.344999999999992      37.905000000000001
   130   1      5.4149999999999991      50.540000000000006      37.905000000000001
   131   1      5.4149999999999991      52.344999999999992      36.100000000000001
   132   1      3.6099999999999994      50.540000000000006      39.710000000000001
   133   1      3.6099999999999994      52.344999999999992      41.515000000000001
   134   1      5.4149999999999991      50.540000000000006      41.515000000000001
   135   1      5.4149999999999991      52.344999999999992      39.710000000000001
   136   1      3.6099999999999994      50.540000000000006                   43.32
   137   1      3.6099999999999994      52.344999999999992                  45.125
   138   1      5.4149999999999991      50.540000000000006                  45.125
   139   1      5.4149999999999991      52.344999999999992                   43.32
   140   1      3.6099999999999994      50.540000000000006                   46.93
   141   1      3.6099999999999994      52.344999999999992      48.734999999999999
   142   1      5.4149999999999991      50.540000000000006      48.734999999999999
   143   1      5.4149999999999991      52.344999999999992                   46.93
   144   1      3.6099999999999994      50.540000000000006      50.540000000000006
   145   1      3.6099999999999994      52.344999999999992      52.344999999999992
   146   1      5.4149999999999991      50.540000000000006      52.344999999999992
   147   1      5.4149999999999991      52.344999999999992      50.540000000000006
   148   1      3.6099999999999994      50.540000000000006      54.149999999999999
   149   1      3.6099999999999994      52.344999999999992      55.954999999999998
   150   1      5.4149999999999991      50.540000000000006      55.954999999999998
   151   1      5.4149999999999991      52.344999999999992      54.149999999999999
   152   1      5.4149999999999991      52.344999999999992      57.759999999999998
   153   1      3.6099999999999994      55.954999999999998      37.905000000000001
   154   1      5.4149999999999991      54.149999999999999      37.905000000000001
   155   1      5.4149999999999991      55.954999999999998      36.100000000000001
   156   1      3.6099999999999994      54.149999999999999      39.710000000000001
   157   1      3.6099999999999994      55.954999999999998      41.515000000000001
   158   1      5.4149999999999991      54.149999999999999      41.515000000000001
   159   1      5.4149999999999991      55.954999999999998      39.710000000000001
   160   1      3.6099999999999994      54.149999999999999                   43.32
   161   1      3.6099999999999994      55.954999999999998                  45.125
   162   1      5.4149999999999991      54.149999999999999                  45.125
   163   1      5.4149999999999991      55.954999999999998                   43.32
   164   1      3.6099999999999994      54.149999999999999                   46.93
   165   1      3.6099999999999994      55.954999999999998      48.734999999999999
   166   1      5.4149999999999991      54.149999999999999      48.734999999999999
   167   1      5.4149999999999991      55.954999999999998                   46.93
   168   1      3.6099999999999994      54.149999999999999      50.540000000000006
   169   1      3.6099999999999994      55.954999999999998      52.344999999999992
   170   1      5.4149999999999991      54.149999999999999      52.344999999999992
   171   1      5.4149999999999991      55.954999999999998      50.540000000000006
   172   1      3.6099999999999994      54.149999999999999      54.149999999999999
   173   1      3.6099999999999994      55.954999999999998      55.954999999999998
   174   1      5.4149999999999991      54.149999999999999      55.954999999999998
   175   1      5.4149999999999991      55.954999999999998      54.149999999999999
   176   1      5.4149999999999991      55.954999999999998      57.759999999999998
   177   1      5.4149999999999991      57.759999999999998      37.905000000000001
   178   1      5.4149999999999991      57.759999999999998      41.515000000000001
   179   1      5.4149999999999991      57.759999999999998                  45.125
   180   1      5.4149999999999991      57.759999999999998      48.734999999999999
   181   1      5.4149999999999991      57.759999999999998      52.344999999999992
   182   1      5.4149999999999991      57.759999999999998      55.954999999999998
   183   1      9.0249999999999986      30.685000000000002      32.490000000000002
   184   1      9.0249999999999986      30.685000000000002      36.100000000000001
   185   1      9.0249999999999986      30.685000000000002      39.710000000000001
   186   1      9.0249999999999986      30.685000000000002                   43.32
   187   1      9.0249999999999986      30.685000000000002                   46.93
   188   1      9.0249999999999986      30.685000000000002      50.540000000000006
   189   1      9.0249999999999986      30.685000000000002      54.149999999999999
   190   1      9.0249999999999986      30.685000000000002      57.759999999999998
   191   1      9.0249999999999986      30.685000000000002      61.370000000000005
   192   1      9.0249999999999986      32.490000000000002      30.685000000000002
   193   1      7.2199999999999989      32.490000000000002      32.490000000000002
   194   1      7.2199999999999989      34.295000000000002      34.295000000000002
   195   1      9.0249999999999986      32.490000000000002      34.295000000000002
   196   1      9.0249999999999986      34.295000000000002      32.490000000000002
   197   1      7.2199999999999989      32.490000000000002      36.100000000000001
   198   1      7.2199999999999989      34.295000000000002      37.905000000000001
   199   1      9.0249999999999986      32.490000000000002      37.905000000000001
   200   1      9.0249999999999986      34.295000000000002      36.100000000000001
   201   1      7.2199999999999989      32.490000000000002      39.710000000000001
   202   1      7.2199999999999989      34.295000000000002      41.515000000000001
   203   1      9.0249999999999986      32.490000000000002      41.515000000000001
   204   1      9.0249999999999986      34.295000000000002      39.710000000000001
   205   1      7.2199999999999989      32.490000000000002                   43.32
   206   1      7.2199999999999989      34.295000000000002                  45.125
   207   1      9.0249999999999986      32.490000000000002                  45.125
   208   1      9.0249999999999986      34.295000000000002                   43.32
   209   1      7.2199999999999989      32.490000000000002                   46.93
   210   1      7.2199999999999989      34.295000000000002      48.734999999999999
   211   1      9.0249999999999986      32.490000000000002      48.734999999999999
   212   1      9.0249999999999986      34.295000000000002                   46.93
   213   1      7.2199999999999989      32.490000000000002      50.540000000000006
   214   1      7.2199999999999989      34.295000000000002      52.344999999999992
   215   1      9.0249999999999986      32.490000000000002      52.344999999999992
   216   1      9.0249999999999986      34.295000000000002      50.540000000000006
   217   1      7.2199999999999989      32.490000000000002      54.149999999999999
   218   1      7.2199999999999989      34.295000000000002      55.954999999999998
   219   1      9.0249999999999986      32.490000000000002      55.954999999999998
   220   1      9.0249999999999986      34.295000000000002      54.149999999999999
   221   1      7.2199999999999989      32.490000000000002      57.759999999999998
   222   1      7.2199999999999989      34.295000000000002      59.564999999999998
   223   1      9.0249999999999986      32.490000000000002      59.564999999999998
   224   1      9.0249999999999986      34.295000000000002      57.759999999999998
   225   1      7.2199999999999989      32.490000000000002      61.370000000000005
   226   1      9.0249999999999986      32.490000000000002      63.175000000000011
   227   1      9.0249999999999986      34.295000000000002      61.370000000000005
   228   1      9.0249999999999986      36.100000000000001      30.685000000000002
   229   1      7.2199999999999989      36.100000000000001      32.490000000000002
   230   1      7.2199999999999989      37.905000000000001      34.295000000000002
   231   1      9.0249999999999986      36.100000000000001      34.295000000000002
   232   1      9.0249999999999986      37.905000000000001      32.490000000000002
   233   1      7.2199999999999989      36.100000000000001      36.100000000000001
   234   1      7.2199999999999989      37.905000000000001      37.905000000000001
   235   1      9.0249999999999986      36.100000000000001      37.905000000000001
   236   1      9.0249999999999986      37.905000000000001      36.100000000000001
   237   1      7.2199999999999989      36.100000000000001      39.710000000000001
   238   1      7.2199999999999989      37.905000000000001      41.515000000000001
   239   1      9.0249999999999986      36.100000000000001      41.515000000000001
   240   1      9.0249999999999986      37.905000000000001      39.710000000000001
   241   1      7.2199999999999989      36.100000000000001                   43.32
   242   1      7.2199999999999989      37.905000000000001                  45.125
   243   1      9.0249999999999986      36.100000000000001                  45.125
   244   1      9.0249999999999986      37.905000000000001                   43.32
   245   1      7.2199999999999989      36.100000000000001                   46.93
   246   1      7.2199999999999989      37.905000000000001      48.734999999999999
   247   1      9.0249999999999986      36.100000000000001      48.734999999999999
   248   1      9.0249999999999986      37.905000000000001                   46.93
   249   1      7.2199999999999989      36.100000000000001      50.540000000000006
   250   1      7.2199999999999989      37.905000000000001      52.344999999999992
   251   1      9.0249999999999986      36.100000000000001      52.344999999999992
   252   1      9.0249999999999986      37.905000000000001      50.540000000000006
   253   1      7.2199999999999989      36.100000000000001      54.149999999999999
   254   1      7.2199999999999989      37.905000000000001      55.954999999999998
   255   1      9.0249999999999986      36.100000000000001      55.954999999999998
   256   1      9.0249999999999986      37.905000000000001      54.149999999999999
   257   1      7.2199999999999989      36.100000000000001      57.759999999999998
   258   1      7.2199999999999989      37.905000000000001      59.564999999999998
   259   1      9.0249999999999986      36.100000000000001      59.564999999999998
   260   1      9.0249999999999986      37.905000000000001      57.759999999999998
   261   1      7.2199999999999989      36.100000000000001      61.370000000000005
   262   1      9.0249999999999986      36.100000000000001      63.175000000000011
   263   1      9.0249999999999986      37.905000000000001      61.370000000000005
   264   1      9.0249999999999986      39.710000000000001      30.685000000000002
   265   1      7.2199999999999989      39.710000000000001      32.490000000000002
   266   1      7.2199999999999989      41.515000000000001      34.295000000000002
   267   1      9.0249999999999986      39.710000000000001      34.295000000000002
   268   1      9.0249999999999986      41.515000000000001      32.490000000000002
   269   1      7.2199999999999989      39.710000000000001      36.100000000000001
   270   1      7.2199999999999989      41.515000000000001      37.905000000000001
   271   1      9.0249999999999986      39.710000000000001      37.905000000000001
   272   1      9.0249999999999986      41.515000000000001      36.100000000000001
   273   1      7.2199999999999989      39.710000000000001      39.710000000000001
   274   1      7.2199999999999989      41.515000000000001      41.515000000000001
   275   1      9.0249999999999986      39.710000000000001      41.515000000000001
   276   1      9.0249999999999986      41.515000000000001      39.710000000000001
   277   1      7.2199999999999989      39.710000000000001                   43.32
   278   1      7.2199999999999989      41.515000000000001                  45.125
   279   1      9.0249999999999986      39.710000000000001                  45.125
   280   1      9.0249999999999986      41.515000000000001                   43.32
   281   1      7.2199999999999989      39.710000000000001                   46.93
   282   1      7.2199999999999989      41.515000000000001      48.734999999999999
   283   1      9.0249999999999986      39.710000000000001      48.734999999999999
   284   1      9.0249999999999986      41.515000000000001                   46.93
   285   1      7.2199999999999989      39.710000000000001      50.540000000000006
   286   1      7.2199999999999989      41.515000000000001      52.344999999999992
   287   1      9.0249999999999986      39.710000000000001      52.344999999999992
   288   1      9.0249999999999986      41.515000000000001      50.540000000000006
   289   1      7.2199999999999989      39.710000000000001      54.149999999999999
   290   1      7.2199999999999989      41.515000000000001      55.954999999999998
   291   1      9.0249999999999986      39.710000000000001      55.954999999999998
   292   1      9.0249999999999986      41.515000000000001      54.149999999999999
   293   1      7.2199999999999989      39.710000000000001      57.759999999999998
   294   1      7.2199999999999989      41.515000000000001      59.564999999999998
   295   1      9.0249999999999986      39.710000000000001      59.564999999999998
   296   1      9.0249999999999986      41.515000000000001      57.759999999999998
   297   1      7.2199999999999989      39.710000000000001      61.370000000000005
   298   1      9.0249999999999986      39.710000000000001      63.175000000000011
   299   1      9.0249999999999986      41.515000000000001      61.370000000000005
   300   1      9.0249999999999986                   43.32      30.685000000000002
   301   1      7.2199999999999989                   43.32      32.490000000000002
   302   1      7.2199999999999989                  45.125      34.295000000000002
   303   1      9.0249999999999986                   43.32      34.295000000000002
   304   1      9.0249999999999986                  45.125      32.490000000000002
   305   1      7.2199999999999989                   43.32      36.100000000000001
   306   1      7.2199999999999989                  45.125      37.905000000000001
   307   1      9.0249999999999986                   43.32      37.905000000000001
   308   1      9.0249999999999986                  45.125      36.100000000000001
   309   1      7.2199999999999989                   43.32      39.710000000000001
   310   1      7.2199999999999989                  45.125      41.515000000000001
   311   1      9.0249999999999986                   43.32      41.515000000000001
   312   1      9.0249999999999986                  45.125      39.710000000000001
   313   1      7.2199999999999989                   43.32                   43.32
   314   1      7.2199999999999989                  45.125                  45.125
   315   1      9.0249999999999986                   43.32                  45.125
   316   1      9.0249999999999986                  45.125                   43.32
   317   1      7.2199999999999989                   43.32                   46.93
   318   1      7.2199999999999989                  45.125      48.734999999999999
   319   1      9.0249999999999986                   43.32      48.734999999999999
   320   1      9.0249999999999986                  45.125                   46.93
   321   1      7.2199999999999989                   43.32      50.540000000000006
   322   1      7.2199999999999989                  45.125      52.344999999999992
   323   1      9.0249999999999986                   43.32      52.344999999999992
   324   1      9.0249999999999986                  45.125      50.540000000000006
   325   1      7.2199999999999989                   43.32      54.149999999999999
   326   1      7.2199999999999989                  45.125      55.954999999999998
   327   1      9.0249999999999986                   43.32      55.954999999999998
   328   1      9.0249999999999986                  45.125      54.149999999999999
   329   1      7.2199999999999989                   43.32      57.759999999999998
   330   1      7.2199999999999989                  45.125      59.564999999999998
   331   1      9.0249999999999986                   43.32      59.564999999999998
   332   1      9.0249999999999986                  45.125      57.759999999999998
   333   1      7.2199999999999989                   43.32      61.370000000000005
   334   1      9.0249999999999986                   43.32      63.175000000000011
   335   1      9.0249999999999986                  45.125      61.370000000000005
   336   1      9.0249999999999986                   46.93      30.685000000000002
   337   1      7.2199999999999989                   46.93      32.490000000000002
   338   1      7.2199999999999989      48.734999999999999      34.295000000000002
   339   1      9.0249999999999986                   46.93      34.295000000000002
   340   1      9.0249999999999986      48.734999999999999      32.490000000000002
   341   1      7.2199999999999989                   46.93      36.100000000000001
   342   1      7.2199999999999989      48.734999999999999      37.905000000000001
   343   1      9.0249999999999986                   46.93      37.905000000000001
   344   1      9.0249999999999986      48.734999999999999      36.100000000000001
   345   1      7.2199999999999989                   46.93      39.710000000000001
   346   1      7.2199999999999989      48.734999999999999      41.515000000000001
   347   1      9.0249999999999986                   46.93      41.515000000000001
   348   1      9.0249999999999986      48.734999999999999      39.710000000000001
   349   1      7.2199999999999989                   46.93                   43.32
   350   1      7.2199999999999989      48.734999999999999                  45.125
   351   1      9.0249999999999986                   46.93                  45.125
   352   1      9.0249999999999986      48.734999999999999                   43.32
   353   1      7.2199999999999989                   46.93                   46.93
   354   1      7.2199999999999989      48.734999999999999      48.734999999999999
   355   1      9.0249999999999986                   46.93      48.734999999999999
   356   1      9.0249999999999986      48.734999999999999                   46.93
   357   1      7.2199999999999989                   46.93      50.540000000000006
   358   1      7.2199999999999989      48.734999999999999      52.344999999999992