model_files/CuFeNi/CuFeNi_30000/CuFeNi_522/CuFeNi_522_fcc_30243_temp.data (written by ASE) 

30243 	 atoms 
3  atom types
0.0                      98  xlo xhi
0.0                      98  ylo yhi
0.0                      98  zlo zhi


Atoms 

     1   1      1.9000000000000055      43.699999999999989      49.399999999999984
     2   1      1.9000000000000055      45.599999999999994      47.499999999999986
     3   1      1.9000000000000055      47.499999999999986      45.599999999999994
     4   1      1.9000000000000055      45.599999999999994      51.299999999999983
     5   1      1.9000000000000055      47.499999999999986      49.399999999999984
     6   1      1.9000000000000055      47.499999999999986      53.199999999999996
     7   1      1.9000000000000055      49.399999999999984      43.699999999999989
     8   1      1.9000000000000055      49.399999999999984      47.499999999999986
     9   1      1.9000000000000055      51.299999999999983      45.599999999999994
    10   1                       0      49.399999999999984      49.399999999999984
    11   1      1.9000000000000055      49.399999999999984      51.299999999999983
    12   1      1.9000000000000055      51.299999999999983      49.399999999999984
    13   1      1.9000000000000055      49.399999999999984      55.099999999999987
    14   1      1.9000000000000055      51.299999999999983      53.199999999999996
    15   1      1.9000000000000055      53.199999999999996      47.499999999999986
    16   1      1.9000000000000055      53.199999999999996      51.299999999999983
    17   1      1.9000000000000055      55.099999999999987      49.399999999999984
    18   1       5.700000000000002      32.299999999999997      49.399999999999984
    19   1       5.700000000000002      34.199999999999989      47.499999999999986
    20   1       5.700000000000002      36.099999999999994      45.599999999999994
    21   1       5.700000000000002      34.199999999999989      51.299999999999983
    22   1       5.700000000000002      36.099999999999994      49.399999999999984
    23   1       5.700000000000002      36.099999999999994      53.199999999999996
    24   1       5.700000000000002      37.999999999999986      43.699999999999989
    25   1       5.700000000000002      39.899999999999991      41.799999999999997
    26   1      3.8000000000000043      39.899999999999991      47.499999999999986
    27   1       5.700000000000002      37.999999999999986      47.499999999999986
    28   1       5.700000000000002      39.899999999999991      45.599999999999994
    29   1      3.8000000000000043      37.999999999999986      49.399999999999984
    30   1      3.8000000000000043      39.899999999999991      51.299999999999983
    31   1       5.700000000000002      37.999999999999986      51.299999999999983
    32   1       5.700000000000002      39.899999999999991      49.399999999999984
    33   1       5.700000000000002      37.999999999999986      55.099999999999987
    34   1       5.700000000000002      39.899999999999991      53.199999999999996
    35   1       5.700000000000002      39.899999999999991      56.999999999999986
    36   1       5.700000000000002      41.799999999999997      39.899999999999991
    37   1       5.700000000000002      43.699999999999989      37.999999999999986
    38   1      3.8000000000000043      43.699999999999989      43.699999999999989
    39   1       5.700000000000002      41.799999999999997      43.699999999999989
    40   1       5.700000000000002      43.699999999999989      41.799999999999997
    41   1      3.8000000000000043      41.799999999999997      45.599999999999994
    42   1      3.8000000000000043      43.699999999999989      47.499999999999986
    43   1       5.700000000000002      41.799999999999997      47.499999999999986
    44   1       5.700000000000002      43.699999999999989      45.599999999999994
    45   1      3.8000000000000043      41.799999999999997      49.399999999999984
    46   1      3.8000000000000043      43.699999999999989      51.299999999999983
    47   1       5.700000000000002      41.799999999999997      51.299999999999983
    48   1       5.700000000000002      43.699999999999989      49.399999999999984
    49   1      3.8000000000000043      41.799999999999997      53.199999999999996
    50   1      3.8000000000000043      43.699999999999989      55.099999999999987
    51   1       5.700000000000002      41.799999999999997      55.099999999999987
    52   1       5.700000000000002      43.699999999999989      53.199999999999996
    53   1       5.700000000000002      41.799999999999997      58.899999999999991
    54   1       5.700000000000002      43.699999999999989      56.999999999999986
    55   1       5.700000000000002      43.699999999999989       60.79999999999999
    56   1       5.700000000000002      45.599999999999994      36.099999999999994
    57   1       5.700000000000002      47.499999999999986      34.199999999999989
    58   1      3.8000000000000043      47.499999999999986      39.899999999999991
    59   1       5.700000000000002      45.599999999999994      39.899999999999991
    60   1       5.700000000000002      47.499999999999986      37.999999999999986
    61   1      3.8000000000000043      45.599999999999994      41.799999999999997
    62   1      3.8000000000000043      47.499999999999986      43.699999999999989
    63   1       5.700000000000002      45.599999999999994      43.699999999999989
    64   1       5.700000000000002      47.499999999999986      41.799999999999997
    65   1      3.8000000000000043      45.599999999999994      45.599999999999994
    66   1      3.8000000000000043      47.499999999999986      47.499999999999986
    67   1       5.700000000000002      45.599999999999994      47.499999999999986
    68   1       5.700000000000002      47.499999999999986      45.599999999999994
    69   1      3.8000000000000043      45.599999999999994      49.399999999999984
    70   1      3.8000000000000043      47.499999999999986      51.299999999999983
    71   1       5.700000000000002      45.599999999999994      51.299999999999983
    72   1       5.700000000000002      47.499999999999986      49.399999999999984
    73   1      3.8000000000000043      45.599999999999994      53.199999999999996
    74   1      3.8000000000000043      47.499999999999986      55.099999999999987
    75   1       5.700000000000002      45.599999999999994      55.099999999999987
    76   1       5.700000000000002      47.499999999999986      53.199999999999996
    77   1      3.8000000000000043      45.599999999999994      56.999999999999986
    78   1      3.8000000000000043      47.499999999999986      58.899999999999991
    79   1       5.700000000000002      45.599999999999994      58.899999999999991
    80   1       5.700000000000002      47.499999999999986      56.999999999999986
    81   1       5.700000000000002      45.599999999999994      62.700000000000003
    82   1       5.700000000000002      47.499999999999986       60.79999999999999
    83   1       5.700000000000002      47.499999999999986      64.599999999999994
    84   1       5.700000000000002      49.399999999999984      32.299999999999997
    85   1       5.700000000000002      49.399999999999984      36.099999999999994
    86   1       5.700000000000002      51.299999999999983      34.199999999999989
    87   1      3.8000000000000043      49.399999999999984      37.999999999999986
    88   1      3.8000000000000043      51.299999999999983      39.899999999999991
    89   1       5.700000000000002      49.399999999999984      39.899999999999991
    90   1       5.700000000000002      51.299999999999983      37.999999999999986
    91   1      3.8000000000000043      49.399999999999984      41.799999999999997
    92   1      3.8000000000000043      51.299999999999983      43.699999999999989
    93   1       5.700000000000002      49.399999999999984      43.699999999999989
    94   1       5.700000000000002      51.299999999999983      41.799999999999997
    95   1      3.8000000000000043      49.399999999999984      45.599999999999994
    96   1      3.8000000000000043      51.299999999999983      47.499999999999986
    97   1       5.700000000000002      49.399999999999984      47.499999999999986
    98   1       5.700000000000002      51.299999999999983      45.599999999999994
    99   1      3.8000000000000043      49.399999999999984      49.399999999999984
   100   1      3.8000000000000043      51.299999999999983      51.299999999999983
   101   1       5.700000000000002      49.399999999999984      51.299999999999983
   102   1       5.700000000000002      51.299999999999983      49.399999999999984
   103   1      3.8000000000000043      49.399999999999984      53.199999999999996
   104   1      3.8000000000000043      51.299999999999983      55.099999999999987
   105   1       5.700000000000002      49.399999999999984      55.099999999999987
   106   1       5.700000000000002      51.299999999999983      53.199999999999996
   107   1      3.8000000000000043      49.399999999999984      56.999999999999986
   108   1      3.8000000000000043      51.299999999999983      58.899999999999991
   109   1       5.700000000000002      49.399999999999984      58.899999999999991
   110   1       5.700000000000002      51.299999999999983      56.999999999999986
   111   1      3.8000000000000043      49.399999999999984       60.79999999999999
   112   1       5.700000000000002      49.399999999999984      62.700000000000003
   113   1       5.700000000000002      51.299999999999983       60.79999999999999
   114   1       5.700000000000002      49.399999999999984      66.499999999999986
   115   1       5.700000000000002      51.299999999999983      64.599999999999994
   116   1       5.700000000000002      53.199999999999996      36.099999999999994
   117   1       5.700000000000002      53.199999999999996      39.899999999999991
   118   1       5.700000000000002      55.099999999999987      37.999999999999986
   119   1      3.8000000000000043      53.199999999999996      41.799999999999997
   120   1      3.8000000000000043      55.099999999999987      43.699999999999989
   121   1       5.700000000000002      53.199999999999996      43.699999999999989
   122   1       5.700000000000002      55.099999999999987      41.799999999999997
   123   1      3.8000000000000043      53.199999999999996      45.599999999999994
   124   1      3.8000000000000043      55.099999999999987      47.499999999999986
   125   1       5.700000000000002      53.199999999999996      47.499999999999986
   126   1       5.700000000000002      55.099999999999987      45.599999999999994
   127   1      3.8000000000000043      53.199999999999996      49.399999999999984
   128   1      3.8000000000000043      55.099999999999987      51.299999999999983
   129   1       5.700000000000002      53.199999999999996      51.299999999999983
   130   1       5.700000000000002      55.099999999999987      49.399999999999984
   131   1      3.8000000000000043      53.199999999999996      53.199999999999996
   132   1      3.8000000000000043      55.099999999999987      55.099999999999987
   133   1       5.700000000000002      53.199999999999996      55.099999999999987
   134   1       5.700000000000002      55.099999999999987      53.199999999999996
   135   1      3.8000000000000043      53.199999999999996      56.999999999999986
   136   1       5.700000000000002      53.199999999999996      58.899999999999991
   137   1       5.700000000000002      55.099999999999987      56.999999999999986
   138   1       5.700000000000002      53.199999999999996      62.700000000000003
   139   1       5.700000000000002      55.099999999999987       60.79999999999999
   140   1       5.700000000000002      56.999999999999986      39.899999999999991
   141   1       5.700000000000002      56.999999999999986      43.699999999999989
   142   1       5.700000000000002      58.899999999999991      41.799999999999997
   143   1      3.8000000000000043      56.999999999999986      45.599999999999994
   144   1      3.8000000000000043      58.899999999999991      47.499999999999986
   145   1       5.700000000000002      56.999999999999986      47.499999999999986
   146   1       5.700000000000002      58.899999999999991      45.599999999999994
   147   1      3.8000000000000043      56.999999999999986      49.399999999999984
   148   1      3.8000000000000043      58.899999999999991      51.299999999999983
   149   1       5.700000000000002      56.999999999999986      51.299999999999983
   150   1       5.700000000000002      58.899999999999991      49.399999999999984
   151   1      3.8000000000000043      56.999999999999986      53.199999999999996
   152   1       5.700000000000002      56.999999999999986      55.099999999999987
   153   1       5.700000000000002      58.899999999999991      53.199999999999996
   154   1       5.700000000000002      56.999999999999986      58.899999999999991
   155   1       5.700000000000002      58.899999999999991      56.999999999999986
   156   1       5.700000000000002       60.79999999999999      43.699999999999989
   157   1       5.700000000000002       60.79999999999999      47.499999999999986
   158   1       5.700000000000002      62.700000000000003      45.599999999999994
   159   1      3.8000000000000043       60.79999999999999      49.399999999999984
   160   1       5.700000000000002       60.79999999999999      51.299999999999983
   161   1       5.700000000000002      62.700000000000003      49.399999999999984
   162   1       5.700000000000002       60.79999999999999      55.099999999999987
   163   1       5.700000000000002      62.700000000000003      53.199999999999996
   164   1       5.700000000000002      64.599999999999994      47.499999999999986
   165   1       5.700000000000002      64.599999999999994      51.299999999999983
   166   1       5.700000000000002      66.499999999999986      49.399999999999984
   167   1                     9.5      24.699999999999992      49.399999999999984
   168   1                     9.5      26.599999999999998      47.499999999999986
   169   1                     9.5                    28.5      45.599999999999994
   170   1                     9.5      26.599999999999998      51.299999999999983
   171   1                     9.5                    28.5      49.399999999999984
   172   1                     9.5                    28.5      53.199999999999996
   173   1                     9.5      30.399999999999995      43.699999999999989
   174   1                     9.5      32.299999999999997      41.799999999999997
   175   1      7.6000000000000014      32.299999999999997      47.499999999999986
   176   1                     9.5      30.399999999999995      47.499999999999986
   177   1                     9.5      32.299999999999997      45.599999999999994
   178   1      7.6000000000000014      30.399999999999995      49.399999999999984
   179   1      7.6000000000000014      32.299999999999997      51.299999999999983
   180   1                     9.5      30.399999999999995      51.299999999999983
   181   1                     9.5      32.299999999999997      49.399999999999984
   182   1                     9.5      30.399999999999995      55.099999999999987
   183   1                     9.5      32.299999999999997      53.199999999999996
   184   1                     9.5      32.299999999999997      56.999999999999986
   185   1                     9.5      34.199999999999989      39.899999999999991
   186   1                     9.5      36.099999999999994      37.999999999999986
   187   1      7.6000000000000014      36.099999999999994      43.699999999999989
   188   1                     9.5      34.199999999999989      43.699999999999989
   189   1                     9.5      36.099999999999994      41.799999999999997
   190   1      7.6000000000000014      34.199999999999989      45.599999999999994
   191   1      7.6000000000000014      36.099999999999994      47.499999999999986
   192   1                     9.5      34.199999999999989      47.499999999999986
   193   1                     9.5      36.099999999999994      45.599999999999994
   194   1      7.6000000000000014      34.199999999999989      49.399999999999984
   195   1      7.6000000000000014      36.099999999999994      51.299999999999983
   196   1                     9.5      34.199999999999989      51.299999999999983
   197   1                     9.5      36.099999999999994      49.399999999999984
   198   1      7.6000000000000014      34.199999999999989      53.199999999999996
   199   1      7.6000000000000014      36.099999999999994      55.099999999999987
   200   1                     9.5      34.199999999999989      55.099999999999987
   201   1                     9.5      36.099999999999994      53.199999999999996
   202   1                     9.5      34.199999999999989      58.899999999999991
   203   1                     9.5      36.099999999999994      56.999999999999986
   204   1                     9.5      36.099999999999994       60.79999999999999
   205   1                     9.5      37.999999999999986      36.099999999999994
   206   1                     9.5      39.899999999999991      34.199999999999989
   207   1      7.6000000000000014      39.899999999999991      39.899999999999991
   208   1                     9.5      37.999999999999986      39.899999999999991
   209   1                     9.5      39.899999999999991      37.999999999999986
   210   1      7.6000000000000014      37.999999999999986      41.799999999999997
   211   1      7.6000000000000014      39.899999999999991      43.699999999999989
   212   1                     9.5      37.999999999999986      43.699999999999989
   213   1                     9.5      39.899999999999991      41.799999999999997
   214   1      7.6000000000000014      37.999999999999986      45.599999999999994
   215   1      7.6000000000000014      39.899999999999991      47.499999999999986
   216   1                     9.5      37.999999999999986      47.499999999999986
   217   1                     9.5      39.899999999999991      45.599999999999994
   218   1      7.6000000000000014      37.999999999999986      49.399999999999984
   219   1      7.6000000000000014      39.899999999999991      51.299999999999983
   220   1                     9.5      37.999999999999986      51.299999999999983
   221   1                     9.5      39.899999999999991      49.399999999999984
   222   1      7.6000000000000014      37.999999999999986      53.199999999999996
   223   1      7.6000000000000014      39.899999999999991      55.099999999999987
   224   1                     9.5      37.999999999999986      55.099999999999987
   225   1                     9.5      39.899999999999991      53.199999999999996
   226   1      7.6000000000000014      37.999999999999986      56.999999999999986
   227   1      7.6000000000000014      39.899999999999991      58.899999999999991
   228   1                     9.5      37.999999999999986      58.899999999999991
   229   1                     9.5      39.899999999999991      56.999999999999986
   230   1                     9.5      37.999999999999986      62.700000000000003
   231   1                     9.5      39.899999999999991       60.79999999999999
   232   1                     9.5      39.899999999999991      64.599999999999994
   233   1                     9.5      41.799999999999997      32.299999999999997
   234   1                     9.5      43.699999999999989      30.399999999999995
   235   1      7.6000000000000014      43.699999999999989      36.099999999999994
   236   1                     9.5      41.799999999999997      36.099999999999994
   237   1                     9.5      43.699999999999989      34.199999999999989
   238   1      7.6000000000000014      41.799999999999997      37.999999999999986
   239   1      7.6000000000000014      43.699999999999989      39.899999999999991
   240   1                     9.5      41.799999999999997      39.899999999999991
   241   1                     9.5      43.699999999999989      37.999999999999986
   242   1      7.6000000000000014      41.799999999999997      41.799999999999997
   243   1      7.6000000000000014      43.699999999999989      43.699999999999989
   244   1                     9.5      41.799999999999997      43.699999999999989
   245   1                     9.5      43.699999999999989      41.799999999999997
   246   1      7.6000000000000014      41.799999999999997      45.599999999999994
   247   1      7.6000000000000014      43.699999999999989      47.499999999999986
   248   1                     9.5      41.799999999999997      47.499999999999986
   249   1                     9.5      43.699999999999989      45.599999999999994
   250   1      7.6000000000000014      41.799999999999997      49.399999999999984
   251   1      7.6000000000000014      43.699999999999989      51.299999999999983
   252   1                     9.5      41.799999999999997      51.299999999999983
   253   1                     9.5      43.699999999999989      49.399999999999984
   254   1      7.6000000000000014      41.799999999999997      53.199999999999996
   255   1      7.6000000000000014      43.699999999999989      55.099999999999987
   256   1                     9.5      41.799999999999997      55.099999999999987
   257   1                     9.5      43.699999999999989      53.199999999999996
   258   1      7.6000000000000014      41.799999999999997      56.999999999999986
   259   1      7.6000000000000014      43.699999999999989      58.899999999999991
   260   1                     9.5      41.799999999999997      58.899999999999991
   261   1                     9.5      43.699999999999989      56.999999999999986
   262   1      7.6000000000000014      41.799999999999997       60.79999999999999
   263   1      7.6000000000000014      43.699999999999989      62.700000000000003
   264   1                     9.5      41.799999999999997      62.700000000000003
   265   1                     9.5      43.699999999999989       60.79999999999999
   266   1                     9.5      41.799999999999997      66.499999999999986
   267   1                     9.5      43.699999999999989      64.599999999999994
   268   1                     9.5      43.699999999999989      68.399999999999977
   269   1                     9.5      45.599999999999994                    28.5
   270   1                     9.5      47.499999999999986      26.599999999999998
   271   1      7.6000000000000014      47.499999999999986      32.299999999999997
   272   1                     9.5      45.599999999999994      32.299999999999997
   273   1                     9.5      47.499999999999986      30.399999999999995
   274   1      7.6000000000000014      45.599999999999994      34.199999999999989
   275   1      7.6000000000000014      47.499999999999986      36.099999999999994
   276   1                     9.5      45.599999999999994      36.099999999999994
   277   1                     9.5      47.499999999999986      34.199999999999989
   278   1      7.6000000000000014      45.599999999999994      37.999999999999986
   279   1      7.6000000000000014      47.499999999999986      39.899999999999991
   280   1                     9.5      45.599999999999994      39.899999999999991
   281   1                     9.5      47.499999999999986      37.999999999999986
   282   1      7.6000000000000014      45.599999999999994      41.799999999999997
   283   1      7.6000000000000014      47.499999999999986      43.699999999999989
   284   1                     9.5      45.599999999999994      43.699999999999989
   285   1                     9.5      47.499999999999986      41.799999999999997
   286   1      7.6000000000000014      45.599999999999994      45.599999999999994
   287   1      7.6000000000000014      47.499999999999986      47.499999999999986
   288   1                     9.5      45.599999999999994      47.499999999999986
   289   1                     9.5      47.499999999999986      45.599999999999994
   290   1      7.6000000000000014      45.599999999999994      49.399999999999984
   291   1      7.6000000000000014      47.499999999999986      51.299999999999983
   292   1                     9.5      45.599999999999994      51.299999999999983
   293   1                     9.5      47.499999999999986      49.399999999999984
   294   1      7.6000000000000014      45.599999999999994      53.199999999999996
   295   1      7.6000000000000014      47.499999999999986      55.099999999999987
   296   1                     9.5      45.599999999999994      55.099999999999987
   297   1                     9.5      47.499999999999986      53.199999999999996
   298   1      7.6000000000000014      45.599999999999994      56.999999999999986
   299   1      7.6000000000000014      47.499999999999986      58.899999999999991
   300   1                     9.5      45.599999999999994      58.899999999999991
   301   1                     9.5      47.499999999999986      56.999999999999986
   302   1      7.6000000000000014      45.599999999999994       60.79999999999999
   303   1      7.6000000000000014      47.499999999999986      62.700000000000003
   304   1                     9.5      45.599999999999994      62.700000000000003
   305   1                     9.5      47.499999999999986       60.79999999999999
   306   1      7.6000000000000014      45.599999999999994      64.599999999999994
   307   1      7.6000000000000014      47.499999999999986      66.499999999999986
   308   1                     9.5      45.599999999999994      66.499999999999986
   309   1                     9.5      47.499999999999986      64.599999999999994
   310   1                     9.5      45.599999999999994      70.299999999999997
   311   1                     9.5      47.499999999999986      68.399999999999977
   312   1                     9.5      47.499999999999986      72.199999999999989
   313   1                     9.5      49.399999999999984      24.699999999999992
   314   1                     9.5      49.399999999999984                    28.5
   315   1                     9.5      51.299999999999983      26.599999999999998
   316   1      7.6000000000000014      49.399999999999984      30.399999999999995
   317   1      7.6000000000000014      51.299999999999983      32.299999999999997
   318   1                     9.5      49.399999999999984      32.299999999999997
   319   1                     9.5      51.299999999999983      30.399999999999995
   320   1      7.6000000000000014      49.399999999999984      34.199999999999989
   321   1      7.6000000000000014      51.299999999999983      36.099999999999994
   322   1                     9.5      49.399999999999984      36.099999999999994
   323   1                     9.5      51.299999999999983      34.199999999999989
   324   1      7.6000000000000014      49.399999999999984      37.999999999999986
   325   1      7.6000000000000014      51.299999999999983      39.899999999999991
   326   1                     9.5      49.399999999999984      39.899999999999991
   327   1                     9.5      51.299999999999983      37.999999999999986
   328   1      7.6000000000000014      49.399999999999984      41.799999999999997
   329   1      7.6000000000000014      51.299999999999983      43.699999999999989
   330   1                     9.5      49.399999999999984      43.699999999999989
   331   1                     9.5      51.299999999999983      41.799999999999997
   332   1      7.6000000000000014      49.399999999999984      45.599999999999994
   333   1      7.6000000000000014      51.299999999999983      47.499999999999986
   334   1                     9.5      49.399999999999984      47.499999999999986
   335   1                     9.5      51.299999999999983      45.599999999999994
   336   1      7.6000000000000014      49.399999999999984      49.399999999999984
   337   1      7.6000000000000014      51.299999999999983      51.299999999999983
   338   1                     9.5      49.399999999999984      51.299999999999983
   339   1                     9.5      51.299999999999983      49.399999999999984
   340   1      7.6000000000000014      49.399999999999984      53.199999999999996
   341   1      7.6000000000000014      51.299999999999983      55.099999999999987
   342   1                     9.5      49.399999999999984      55.099999999999987
   343   1                     9.5      51.299999999999983      53.199999999999996
   344   1      7.6000000000000014      49.399999999999984      56.999999999999986
   345   1      7.6000000000000014      51.299999999999983      58.899999999999991
   346   1                     9.5      49.399999999999984      58.899999999999991
   347   1                     9.5      51.299999999999983      56.999999999999986
   348   1      7.6000000000000014      49.399999999999984       60.79999999999999
   349   1      7.6000000000000014      51.299999999999983      62.700000000000003
   350   1                     9.5      49.399999999999984      62.700000000000003
   351   1                     9.5      51.299999999999983       60.79999999999999
   352   1      7.6000000000000014      49.399999999999984      64.599999999999994
   353   1      7.6000000000000014      51.299999999999983      66.499999999999986
   354   1                     9.5      49.399999999999984      66.499999999999986
   355   1                     9.5      51.299999999999983      64.599999999999994
   356   1      7.6000000000000014      49.399999999999984      68.399999999999977
   357   1                     9.5      49.399999999999984      70.299999999999997
   358   1                     9.5      51.299999999999983      68.399999999999977