model_files/Pt/Pt_30000/Pt_511/data.Pt_511_fcc_30527 (written by ASE) 

30527 	 atoms 
1  atom types
0.0                      90  xlo xhi
0.0                      90  ylo yhi
0.0                      90  zlo zhi


Atoms 

     1   1      89.999999999999986       43.11999999999999      45.079999999999991
     2   1      89.999999999999986      45.079999999999991       43.11999999999999
     3   1      89.999999999999986      45.079999999999991      47.039999999999992
     4   1      89.999999999999986      47.039999999999992      45.079999999999991
     5   1       3.919999999999995      23.519999999999992      45.079999999999991
     6   1       3.919999999999995      25.479999999999993       43.11999999999999
     7   1       3.919999999999995      27.439999999999994      41.159999999999997
     8   1       3.919999999999995      25.479999999999993      47.039999999999992
     9   1       3.919999999999995      27.439999999999994      45.079999999999991
    10   1       3.919999999999995      27.439999999999994      48.999999999999993
    11   1       3.919999999999995      29.399999999999995      39.199999999999996
    12   1       3.919999999999995      31.359999999999996      37.239999999999995
    13   1       3.919999999999995      29.399999999999995       43.11999999999999
    14   1       3.919999999999995      31.359999999999996      41.159999999999997
    15   1       3.919999999999995      29.399999999999995      47.039999999999992
    16   1       3.919999999999995      31.359999999999996      45.079999999999991
    17   1       3.919999999999995      29.399999999999995      50.959999999999994
    18   1       3.919999999999995      31.359999999999996      48.999999999999993
    19   1       3.919999999999995      31.359999999999996      52.919999999999987
    20   1       3.919999999999995      33.319999999999993      35.279999999999994
    21   1       3.919999999999995      35.279999999999994      33.319999999999993
    22   1       3.919999999999995      33.319999999999993      39.199999999999996
    23   1       3.919999999999995      35.279999999999994      37.239999999999995
    24   1      1.9599999999999937      35.279999999999994       43.11999999999999
    25   1       3.919999999999995      33.319999999999993       43.11999999999999
    26   1       3.919999999999995      35.279999999999994      41.159999999999997
    27   1      1.9599999999999937      33.319999999999993      45.079999999999991
    28   1      1.9599999999999937      35.279999999999994      47.039999999999992
    29   1       3.919999999999995      33.319999999999993      47.039999999999992
    30   1       3.919999999999995      35.279999999999994      45.079999999999991
    31   1       3.919999999999995      33.319999999999993      50.959999999999994
    32   1       3.919999999999995      35.279999999999994      48.999999999999993
    33   1       3.919999999999995      33.319999999999993      54.879999999999988
    34   1       3.919999999999995      35.279999999999994      52.919999999999987
    35   1       3.919999999999995      35.279999999999994      56.839999999999989
    36   1       3.919999999999995      37.239999999999995      31.359999999999996
    37   1       3.919999999999995      39.199999999999996      29.399999999999995
    38   1       3.919999999999995      37.239999999999995      35.279999999999994
    39   1       3.919999999999995      39.199999999999996      33.319999999999993
    40   1      1.9599999999999937      39.199999999999996      39.199999999999996
    41   1       3.919999999999995      37.239999999999995      39.199999999999996
    42   1       3.919999999999995      39.199999999999996      37.239999999999995
    43   1      1.9599999999999937      37.239999999999995      41.159999999999997
    44   1      1.9599999999999937      39.199999999999996       43.11999999999999
    45   1       3.919999999999995      37.239999999999995       43.11999999999999
    46   1       3.919999999999995      39.199999999999996      41.159999999999997
    47   1      1.9599999999999937      37.239999999999995      45.079999999999991
    48   1      1.9599999999999937      39.199999999999996      47.039999999999992
    49   1       3.919999999999995      37.239999999999995      47.039999999999992
    50   1       3.919999999999995      39.199999999999996      45.079999999999991
    51   1      1.9599999999999937      37.239999999999995      48.999999999999993
    52   1      1.9599999999999937      39.199999999999996      50.959999999999994
    53   1       3.919999999999995      37.239999999999995      50.959999999999994
    54   1       3.919999999999995      39.199999999999996      48.999999999999993
    55   1       3.919999999999995      37.239999999999995      54.879999999999988
    56   1       3.919999999999995      39.199999999999996      52.919999999999987
    57   1       3.919999999999995      37.239999999999995       58.79999999999999
    58   1       3.919999999999995      39.199999999999996      56.839999999999989
    59   1       3.919999999999995      39.199999999999996      60.759999999999991
    60   1       3.919999999999995      41.159999999999997      27.439999999999994
    61   1       3.919999999999995       43.11999999999999      25.479999999999993
    62   1       3.919999999999995      41.159999999999997      31.359999999999996
    63   1       3.919999999999995       43.11999999999999      29.399999999999995
    64   1      1.9599999999999937       43.11999999999999      35.279999999999994
    65   1       3.919999999999995      41.159999999999997      35.279999999999994
    66   1       3.919999999999995       43.11999999999999      33.319999999999993
    67   1      1.9599999999999937      41.159999999999997      37.239999999999995
    68   1      1.9599999999999937       43.11999999999999      39.199999999999996
    69   1       3.919999999999995      41.159999999999997      39.199999999999996
    70   1       3.919999999999995       43.11999999999999      37.239999999999995
    71   1      1.9599999999999937      41.159999999999997      41.159999999999997
    72   1      1.9599999999999937       43.11999999999999       43.11999999999999
    73   1       3.919999999999995      41.159999999999997       43.11999999999999
    74   1       3.919999999999995       43.11999999999999      41.159999999999997
    75   1      1.9599999999999937      41.159999999999997      45.079999999999991
    76   1      1.9599999999999937       43.11999999999999      47.039999999999992
    77   1       3.919999999999995      41.159999999999997      47.039999999999992
    78   1       3.919999999999995       43.11999999999999      45.079999999999991
    79   1      1.9599999999999937      41.159999999999997      48.999999999999993
    80   1      1.9599999999999937       43.11999999999999      50.959999999999994
    81   1       3.919999999999995      41.159999999999997      50.959999999999994
    82   1       3.919999999999995       43.11999999999999      48.999999999999993
    83   1      1.9599999999999937      41.159999999999997      52.919999999999987
    84   1      1.9599999999999937       43.11999999999999      54.879999999999988
    85   1       3.919999999999995      41.159999999999997      54.879999999999988
    86   1       3.919999999999995       43.11999999999999      52.919999999999987
    87   1       3.919999999999995      41.159999999999997       58.79999999999999
    88   1       3.919999999999995       43.11999999999999      56.839999999999989
    89   1       3.919999999999995      41.159999999999997      62.719999999999992
    90   1       3.919999999999995       43.11999999999999      60.759999999999991
    91   1       3.919999999999995       43.11999999999999      64.679999999999993
    92   1       3.919999999999995      45.079999999999991      23.519999999999992
    93   1       3.919999999999995      45.079999999999991      27.439999999999994
    94   1       3.919999999999995      47.039999999999992      25.479999999999993
    95   1       3.919999999999995      45.079999999999991      31.359999999999996
    96   1       3.919999999999995      47.039999999999992      29.399999999999995
    97   1      1.9599999999999937      45.079999999999991      33.319999999999993
    98   1      1.9599999999999937      47.039999999999992      35.279999999999994
    99   1       3.919999999999995      45.079999999999991      35.279999999999994
   100   1       3.919999999999995      47.039999999999992      33.319999999999993
   101   1      1.9599999999999937      45.079999999999991      37.239999999999995
   102   1      1.9599999999999937      47.039999999999992      39.199999999999996
   103   1       3.919999999999995      45.079999999999991      39.199999999999996
   104   1       3.919999999999995      47.039999999999992      37.239999999999995
   105   1      1.9599999999999937      45.079999999999991      41.159999999999997
   106   1      1.9599999999999937      47.039999999999992       43.11999999999999
   107   1       3.919999999999995      45.079999999999991       43.11999999999999
   108   1       3.919999999999995      47.039999999999992      41.159999999999997
   109   1      1.9599999999999937      45.079999999999991      45.079999999999991
   110   1      1.9599999999999937      47.039999999999992      47.039999999999992
   111   1       3.919999999999995      45.079999999999991      47.039999999999992
   112   1       3.919999999999995      47.039999999999992      45.079999999999991
   113   1      1.9599999999999937      45.079999999999991      48.999999999999993
   114   1      1.9599999999999937      47.039999999999992      50.959999999999994
   115   1       3.919999999999995      45.079999999999991      50.959999999999994
   116   1       3.919999999999995      47.039999999999992      48.999999999999993
   117   1      1.9599999999999937      45.079999999999991      52.919999999999987
   118   1      1.9599999999999937      47.039999999999992      54.879999999999988
   119   1       3.919999999999995      45.079999999999991      54.879999999999988
   120   1       3.919999999999995      47.039999999999992      52.919999999999987
   121   1      1.9599999999999937      45.079999999999991      56.839999999999989
   122   1       3.919999999999995      45.079999999999991       58.79999999999999
   123   1       3.919999999999995      47.039999999999992      56.839999999999989
   124   1       3.919999999999995      45.079999999999991      62.719999999999992
   125   1       3.919999999999995      47.039999999999992      60.759999999999991
   126   1       3.919999999999995      45.079999999999991      66.639999999999986
   127   1       3.919999999999995      47.039999999999992      64.679999999999993
   128   1       3.919999999999995      48.999999999999993      27.439999999999994
   129   1       3.919999999999995      48.999999999999993      31.359999999999996
   130   1       3.919999999999995      50.959999999999994      29.399999999999995
   131   1       3.919999999999995      48.999999999999993      35.279999999999994
   132   1       3.919999999999995      50.959999999999994      33.319999999999993
   133   1      1.9599999999999937      48.999999999999993      37.239999999999995
   134   1      1.9599999999999937      50.959999999999994      39.199999999999996
   135   1       3.919999999999995      48.999999999999993      39.199999999999996
   136   1       3.919999999999995      50.959999999999994      37.239999999999995
   137   1      1.9599999999999937      48.999999999999993      41.159999999999997
   138   1      1.9599999999999937      50.959999999999994       43.11999999999999
   139   1       3.919999999999995      48.999999999999993       43.11999999999999
   140   1       3.919999999999995      50.959999999999994      41.159999999999997
   141   1      1.9599999999999937      48.999999999999993      45.079999999999991
   142   1      1.9599999999999937      50.959999999999994      47.039999999999992
   143   1       3.919999999999995      48.999999999999993      47.039999999999992
   144   1       3.919999999999995      50.959999999999994      45.079999999999991
   145   1      1.9599999999999937      48.999999999999993      48.999999999999993
   146   1      1.9599999999999937      50.959999999999994      50.959999999999994
   147   1       3.919999999999995      48.999999999999993      50.959999999999994
   148   1       3.919999999999995      50.959999999999994      48.999999999999993
   149   1      1.9599999999999937      48.999999999999993      52.919999999999987
   150   1       3.919999999999995      48.999999999999993      54.879999999999988
   151   1       3.919999999999995      50.959999999999994      52.919999999999987
   152   1       3.919999999999995      48.999999999999993       58.79999999999999
   153   1       3.919999999999995      50.959999999999994      56.839999999999989
   154   1       3.919999999999995      48.999999999999993      62.719999999999992
   155   1       3.919999999999995      50.959999999999994      60.759999999999991
   156   1       3.919999999999995      52.919999999999987      31.359999999999996
   157   1       3.919999999999995      52.919999999999987      35.279999999999994
   158   1       3.919999999999995      54.879999999999988      33.319999999999993
   159   1       3.919999999999995      52.919999999999987      39.199999999999996
   160   1       3.919999999999995      54.879999999999988      37.239999999999995
   161   1      1.9599999999999937      52.919999999999987      41.159999999999997
   162   1      1.9599999999999937      54.879999999999988       43.11999999999999
   163   1       3.919999999999995      52.919999999999987       43.11999999999999
   164   1       3.919999999999995      54.879999999999988      41.159999999999997
   165   1      1.9599999999999937      52.919999999999987      45.079999999999991
   166   1      1.9599999999999937      54.879999999999988      47.039999999999992
   167   1       3.919999999999995      52.919999999999987      47.039999999999992
   168   1       3.919999999999995      54.879999999999988      45.079999999999991
   169   1      1.9599999999999937      52.919999999999987      48.999999999999993
   170   1       3.919999999999995      52.919999999999987      50.959999999999994
   171   1       3.919999999999995      54.879999999999988      48.999999999999993
   172   1       3.919999999999995      52.919999999999987      54.879999999999988
   173   1       3.919999999999995      54.879999999999988      52.919999999999987
   174   1       3.919999999999995      52.919999999999987       58.79999999999999
   175   1       3.919999999999995      54.879999999999988      56.839999999999989
   176   1       3.919999999999995      56.839999999999989      35.279999999999994
   177   1       3.919999999999995      56.839999999999989      39.199999999999996
   178   1       3.919999999999995       58.79999999999999      37.239999999999995
   179   1       3.919999999999995      56.839999999999989       43.11999999999999
   180   1       3.919999999999995       58.79999999999999      41.159999999999997
   181   1      1.9599999999999937      56.839999999999989      45.079999999999991
   182   1       3.919999999999995      56.839999999999989      47.039999999999992
   183   1       3.919999999999995       58.79999999999999      45.079999999999991
   184   1       3.919999999999995      56.839999999999989      50.959999999999994
   185   1       3.919999999999995       58.79999999999999      48.999999999999993
   186   1       3.919999999999995      56.839999999999989      54.879999999999988
   187   1       3.919999999999995       58.79999999999999      52.919999999999987
   188   1       3.919999999999995      60.759999999999991      39.199999999999996
   189   1       3.919999999999995      60.759999999999991       43.11999999999999
   190   1       3.919999999999995      62.719999999999992      41.159999999999997
   191   1       3.919999999999995      60.759999999999991      47.039999999999992
   192   1       3.919999999999995      62.719999999999992      45.079999999999991
   193   1       3.919999999999995      60.759999999999991      50.959999999999994
   194   1       3.919999999999995      62.719999999999992      48.999999999999993
   195   1       3.919999999999995      64.679999999999993       43.11999999999999
   196   1       3.919999999999995      64.679999999999993      47.039999999999992
   197   1       3.919999999999995      66.639999999999986      45.079999999999991
   198   1      7.8399999999999963      7.8399999999999963      41.159999999999997
   199   1      7.8399999999999963      7.8399999999999963      45.079999999999991
   200   1      7.8399999999999963      7.8399999999999963      48.999999999999993
   201   1      7.8399999999999963      9.7999999999999901      39.199999999999996
   202   1      7.8399999999999963      11.759999999999991      37.239999999999995
   203   1      7.8399999999999963      9.7999999999999901       43.11999999999999
   204   1      7.8399999999999963      11.759999999999991      41.159999999999997
   205   1      7.8399999999999963      9.7999999999999901      47.039999999999992
   206   1      7.8399999999999963      11.759999999999991      45.079999999999991
   207   1      7.8399999999999963      9.7999999999999901      50.959999999999994
   208   1      7.8399999999999963      11.759999999999991      48.999999999999993
   209   1      7.8399999999999963      11.759999999999991      52.919999999999987
   210   1      7.8399999999999963      13.719999999999992      35.279999999999994
   211   1      7.8399999999999963      15.679999999999993      33.319999999999993
   212   1      7.8399999999999963      13.719999999999992      39.199999999999996
   213   1      7.8399999999999963      15.679999999999993      37.239999999999995
   214   1      5.8799999999999883      15.679999999999993       43.11999999999999
   215   1      7.8399999999999963      13.719999999999992       43.11999999999999
   216   1      7.8399999999999963      15.679999999999993      41.159999999999997
   217   1      5.8799999999999883      13.719999999999992      45.079999999999991
   218   1      5.8799999999999883      15.679999999999993      47.039999999999992
   219   1      7.8399999999999963      13.719999999999992      47.039999999999992
   220   1      7.8399999999999963      15.679999999999993      45.079999999999991
   221   1      7.8399999999999963      13.719999999999992      50.959999999999994
   222   1      7.8399999999999963      15.679999999999993      48.999999999999993
   223   1      7.8399999999999963      13.719999999999992      54.879999999999988
   224   1      7.8399999999999963      15.679999999999993      52.919999999999987
   225   1      7.8399999999999963      15.679999999999993      56.839999999999989
   226   1      7.8399999999999963      17.639999999999993      31.359999999999996
   227   1      7.8399999999999963      19.599999999999994      29.399999999999995
   228   1      7.8399999999999963      17.639999999999993      35.279999999999994
   229   1      7.8399999999999963      19.599999999999994      33.319999999999993
   230   1      5.8799999999999883      19.599999999999994      39.199999999999996
   231   1      7.8399999999999963      17.639999999999993      39.199999999999996
   232   1      7.8399999999999963      19.599999999999994      37.239999999999995
   233   1      5.8799999999999883      17.639999999999993      41.159999999999997
   234   1      5.8799999999999883      19.599999999999994       43.11999999999999
   235   1      7.8399999999999963      17.639999999999993       43.11999999999999
   236   1      7.8399999999999963      19.599999999999994      41.159999999999997
   237   1      5.8799999999999883      17.639999999999993      45.079999999999991
   238   1      5.8799999999999883      19.599999999999994      47.039999999999992
   239   1      7.8399999999999963      17.639999999999993      47.039999999999992
   240   1      7.8399999999999963      19.599999999999994      45.079999999999991
   241   1      5.8799999999999883      17.639999999999993      48.999999999999993
   242   1      5.8799999999999883      19.599999999999994      50.959999999999994
   243   1      7.8399999999999963      17.639999999999993      50.959999999999994
   244   1      7.8399999999999963      19.599999999999994      48.999999999999993
   245   1      7.8399999999999963      17.639999999999993      54.879999999999988
   246   1      7.8399999999999963      19.599999999999994      52.919999999999987
   247   1      7.8399999999999963      17.639999999999993       58.79999999999999
   248   1      7.8399999999999963      19.599999999999994      56.839999999999989
   249   1      7.8399999999999963      19.599999999999994      60.759999999999991
   250   1      7.8399999999999963      21.559999999999992      27.439999999999994
   251   1      7.8399999999999963      23.519999999999992      25.479999999999993
   252   1      7.8399999999999963      21.559999999999992      31.359999999999996
   253   1      7.8399999999999963      23.519999999999992      29.399999999999995
   254   1      5.8799999999999883      23.519999999999992      35.279999999999994
   255   1      7.8399999999999963      21.559999999999992      35.279999999999994
   256   1      7.8399999999999963      23.519999999999992      33.319999999999993
   257   1      5.8799999999999883      21.559999999999992      37.239999999999995
   258   1      5.8799999999999883      23.519999999999992      39.199999999999996
   259   1      7.8399999999999963      21.559999999999992      39.199999999999996
   260   1      7.8399999999999963      23.519999999999992      37.239999999999995
   261   1      5.8799999999999883      21.559999999999992      41.159999999999997
   262   1      5.8799999999999883      23.519999999999992       43.11999999999999
   263   1      7.8399999999999963      21.559999999999992       43.11999999999999
   264   1      7.8399999999999963      23.519999999999992      41.159999999999997
   265   1      5.8799999999999883      21.559999999999992      45.079999999999991
   266   1      5.8799999999999883      23.519999999999992      47.039999999999992
   267   1      7.8399999999999963      21.559999999999992      47.039999999999992
   268   1      7.8399999999999963      23.519999999999992      45.079999999999991
   269   1      5.8799999999999883      21.559999999999992      48.999999999999993
   270   1      5.8799999999999883      23.519999999999992      50.959999999999994
   271   1      7.8399999999999963      21.559999999999992      50.959999999999994
   272   1      7.8399999999999963      23.519999999999992      48.999999999999993
   273   1      5.8799999999999883      21.559999999999992      52.919999999999987
   274   1      5.8799999999999883      23.519999999999992      54.879999999999988
   275   1      7.8399999999999963      21.559999999999992      54.879999999999988
   276   1      7.8399999999999963      23.519999999999992      52.919999999999987
   277   1      7.8399999999999963      21.559999999999992       58.79999999999999
   278   1      7.8399999999999963      23.519999999999992      56.839999999999989
   279   1      7.8399999999999963      21.559999999999992      62.719999999999992
   280   1      7.8399999999999963      23.519999999999992      60.759999999999991
   281   1      7.8399999999999963      23.519999999999992      64.679999999999993
   282   1      7.8399999999999963      25.479999999999993      23.519999999999992
   283   1      7.8399999999999963      27.439999999999994      21.559999999999992
   284   1      7.8399999999999963      25.479999999999993      27.439999999999994
   285   1      7.8399999999999963      27.439999999999994      25.479999999999993
   286   1      5.8799999999999883      27.439999999999994      31.359999999999996
   287   1      7.8399999999999963      25.479999999999993      31.359999999999996
   288   1      7.8399999999999963      27.439999999999994      29.399999999999995
   289   1      5.8799999999999883      25.479999999999993      33.319999999999993
   290   1      5.8799999999999883      27.439999999999994      35.279999999999994
   291   1      7.8399999999999963      25.479999999999993      35.279999999999994
   292   1      7.8399999999999963      27.439999999999994      33.319999999999993
   293   1      5.8799999999999883      25.479999999999993      37.239999999999995
   294   1      5.8799999999999883      27.439999999999994      39.199999999999996
   295   1      7.8399999999999963      25.479999999999993      39.199999999999996
   296   1      7.8399999999999963      27.439999999999994      37.239999999999995
   297   1      5.8799999999999883      25.479999999999993      41.159999999999997
   298   1      5.8799999999999883      27.439999999999994       43.11999999999999
   299   1      7.8399999999999963      25.479999999999993       43.11999999999999
   300   1      7.8399999999999963      27.439999999999994      41.159999999999997
   301   1      5.8799999999999883      25.479999999999993      45.079999999999991
   302   1      5.8799999999999883      27.439999999999994      47.039999999999992
   303   1      7.8399999999999963      25.479999999999993      47.039999999999992
   304   1      7.8399999999999963      27.439999999999994      45.079999999999991
   305   1      5.8799999999999883      25.479999999999993      48.999999999999993
   306   1      5.8799999999999883      27.439999999999994      50.959999999999994
   307   1      7.8399999999999963      25.479999999999993      50.959999999999994
   308   1      7.8399999999999963      27.439999999999994      48.999999999999993
   309   1      5.8799999999999883      25.479999999999993      52.919999999999987
   310   1      5.8799999999999883      27.439999999999994      54.879999999999988
   311   1      7.8399999999999963      25.479999999999993      54.879999999999988
   312   1      7.8399999999999963      27.439999999999994      52.919999999999987
   313   1      5.8799999999999883      25.479999999999993      56.839999999999989
   314   1      5.8799999999999883      27.439999999999994       58.79999999999999
   315   1      7.8399999999999963      25.479999999999993       58.79999999999999
   316   1      7.8399999999999963      27.439999999999994      56.839999999999989
   317   1      7.8399999999999963      25.479999999999993      62.719999999999992
   318   1      7.8399999999999963      27.439999999999994      60.759999999999991
   319   1      7.8399999999999963      25.479999999999993      66.639999999999986
   320   1      7.8399999999999963      27.439999999999994      64.679999999999993
   321   1      7.8399999999999963      27.439999999999994      68.599999999999994
   322   1      7.8399999999999963      29.399999999999995      19.599999999999994
   323   1      7.8399999999999963      31.359999999999996      17.639999999999993
   324   1      7.8399999999999963      29.399999999999995      23.519999999999992
   325   1      7.8399999999999963      31.359999999999996      21.559999999999992
   326   1      5.8799999999999883      31.359999999999996      27.439999999999994
   327   1      7.8399999999999963      29.399999999999995      27.439999999999994
   328   1      7.8399999999999963      31.359999999999996      25.479999999999993
   329   1      5.8799999999999883      29.399999999999995      29.399999999999995
   330   1      5.8799999999999883      31.359999999999996      31.359999999999996
   331   1      7.8399999999999963      29.399999999999995      31.359999999999996
   332   1      7.8399999999999963      31.359999999999996      29.399999999999995
   333   1      5.8799999999999883      29.399999999999995      33.319999999999993
   334   1      5.8799999999999883      31.359999999999996      35.279999999999994
   335   1      7.8399999999999963      29.399999999999995      35.279999999999994
   336   1      7.8399999999999963      31.359999999999996      33.319999999999993
   337   1      5.8799999999999883      29.399999999999995      37.239999999999995
   338   1      5.8799999999999883      31.359999999999996      39.199999999999996
   339   1      7.8399999999999963      29.399999999999995      39.199999999999996
   340   1      7.8399999999999963      31.359999999999996      37.239999999999995
   341   1      5.8799999999999883      29.399999999999995      41.159999999999997
   342   1      5.8799999999999883      31.359999999999996       43.11999999999999
   343   1      7.8399999999999963      29.399999999999995       43.11999999999999
   344   1      7.8399999999999963      31.359999999999996      41.159999999999997
   345   1      5.8799999999999883      29.399999999999995      45.079999999999991
   346   1      5.8799999999999883      31.359999999999996      47.039999999999992
   347   1      7.8399999999999963      29.399999999999995      47.039999999999992
   348   1      7.8399999999999963      31.359999999999996      45.079999999999991
   349   1      5.8799999999999883      29.399999999999995      48.999999999999993
   350   1      5.8799999999999883      31.359999999999996      50.959999999999994
   351   1      7.8399999999999963      29.399999999999995      50.959999999999994
   352   1      7.8399999999999963      31.359999999999996      48.999999999999993
   353   1      5.8799999999999883      29.399999999999995      52.919999999999987
   354   1      5.8799999999999883      31.359999999999996      54.879999999999988
   355   1      7.8399999999999963      29.399999999999995      54.879999999999988
   356   1      7.8399999999999963      31.359999999999996      52.919999999999987
   357   1      5.8799999999999883      29.399999999999995      56.839999999999989
   358   1      5.8799999999999883      31.359999999999996       58.79999999999999