model_files/PtFe/PtFe_30000/PtFe_210/PtFe_210_fcc_30389_temp.data (written by ASE) 

30389 	 atoms 
2  atom types
0.0                      95  xlo xhi
0.0                      95  ylo yhi
0.0                      95  zlo zhi


Atoms 

     1   1  7.1054273576010019e-15      45.120000000000005                      47
     2   1  7.1054273576010019e-15                      47      45.120000000000005
     3   1  7.1054273576010019e-15                      47      48.880000000000003
     4   1  7.1054273576010019e-15      48.880000000000003                      47
     5   1      3.7600000000000047      37.600000000000001      39.480000000000004
     6   1      3.7600000000000047      37.600000000000001      43.240000000000002
     7   1      3.7600000000000047      37.600000000000001                      47
     8   1      3.7600000000000047      37.600000000000001      50.760000000000005
     9   1      3.7600000000000047      37.600000000000001      54.519999999999996
    10   1      3.7600000000000047      39.480000000000004      37.600000000000001
    11   1      1.8800000000000023      41.360000000000007      41.360000000000007
    12   1      3.7600000000000047      39.480000000000004      41.360000000000007
    13   1      3.7600000000000047      41.360000000000007      39.480000000000004
    14   1      1.8800000000000023      41.360000000000007      45.120000000000005
    15   1      3.7600000000000047      39.480000000000004      45.120000000000005
    16   1      3.7600000000000047      41.360000000000007      43.240000000000002
    17   1      1.8800000000000023      41.360000000000007      48.880000000000003
    18   1      3.7600000000000047      39.480000000000004      48.880000000000003
    19   1      3.7600000000000047      41.360000000000007                      47
    20   1      1.8800000000000023      41.360000000000007      52.640000000000001
    21   1      3.7600000000000047      39.480000000000004      52.640000000000001
    22   1      3.7600000000000047      41.360000000000007      50.760000000000005
    23   1      3.7600000000000047      39.480000000000004      56.400000000000006
    24   1      3.7600000000000047      41.360000000000007      54.519999999999996
    25   1      3.7600000000000047      43.240000000000002      37.600000000000001
    26   1      1.8800000000000023      45.120000000000005      41.360000000000007
    27   1      3.7600000000000047      43.240000000000002      41.360000000000007
    28   1      3.7600000000000047      45.120000000000005      39.480000000000004
    29   1      1.8800000000000023      43.240000000000002      43.240000000000002
    30   1      1.8800000000000023      45.120000000000005      45.120000000000005
    31   1      3.7600000000000047      43.240000000000002      45.120000000000005
    32   1      3.7600000000000047      45.120000000000005      43.240000000000002
    33   1      1.8800000000000023      43.240000000000002                      47
    34   1      1.8800000000000023      45.120000000000005      48.880000000000003
    35   1      3.7600000000000047      43.240000000000002      48.880000000000003
    36   1      3.7600000000000047      45.120000000000005                      47
    37   1      1.8800000000000023      43.240000000000002      50.760000000000005
    38   1      1.8800000000000023      45.120000000000005      52.640000000000001
    39   1      3.7600000000000047      43.240000000000002      52.640000000000001
    40   1      3.7600000000000047      45.120000000000005      50.760000000000005
    41   1      3.7600000000000047      43.240000000000002      56.400000000000006
    42   1      3.7600000000000047      45.120000000000005      54.519999999999996
    43   1      3.7600000000000047                      47      37.600000000000001
    44   1      1.8800000000000023      48.880000000000003      41.360000000000007
    45   1      3.7600000000000047                      47      41.360000000000007
    46   1      3.7600000000000047      48.880000000000003      39.480000000000004
    47   1      1.8800000000000023                      47      43.240000000000002
    48   1      1.8800000000000023      48.880000000000003      45.120000000000005
    49   1      3.7600000000000047                      47      45.120000000000005
    50   1      3.7600000000000047      48.880000000000003      43.240000000000002
    51   1      1.8800000000000023                      47                      47
    52   1      1.8800000000000023      48.880000000000003      48.880000000000003
    53   1      3.7600000000000047                      47      48.880000000000003
    54   1      3.7600000000000047      48.880000000000003                      47
    55   1      1.8800000000000023                      47      50.760000000000005
    56   1      1.8800000000000023      48.880000000000003      52.640000000000001
    57   1      3.7600000000000047                      47      52.640000000000001
    58   1      3.7600000000000047      48.880000000000003      50.760000000000005
    59   1      3.7600000000000047                      47      56.400000000000006
    60   1      3.7600000000000047      48.880000000000003      54.519999999999996
    61   1      3.7600000000000047      50.760000000000005      37.600000000000001
    62   1      1.8800000000000023      52.640000000000001      41.360000000000007
    63   1      3.7600000000000047      50.760000000000005      41.360000000000007
    64   1      3.7600000000000047      52.640000000000001      39.480000000000004
    65   1      1.8800000000000023      50.760000000000005      43.240000000000002
    66   1      1.8800000000000023      52.640000000000001      45.120000000000005
    67   1      3.7600000000000047      50.760000000000005      45.120000000000005
    68   1      3.7600000000000047      52.640000000000001      43.240000000000002
    69   1      1.8800000000000023      50.760000000000005                      47
    70   1      1.8800000000000023      52.640000000000001      48.880000000000003
    71   1      3.7600000000000047      50.760000000000005      48.880000000000003
    72   1      3.7600000000000047      52.640000000000001                      47
    73   1      1.8800000000000023      50.760000000000005      50.760000000000005
    74   1      1.8800000000000023      52.640000000000001      52.640000000000001
    75   1      3.7600000000000047      50.760000000000005      52.640000000000001
    76   1      3.7600000000000047      52.640000000000001      50.760000000000005
    77   1      3.7600000000000047      50.760000000000005      56.400000000000006
    78   1      3.7600000000000047      52.640000000000001      54.519999999999996
    79   1      3.7600000000000047      54.519999999999996      37.600000000000001
    80   1      3.7600000000000047      54.519999999999996      41.360000000000007
    81   1      3.7600000000000047      56.400000000000006      39.480000000000004
    82   1      3.7600000000000047      54.519999999999996      45.120000000000005
    83   1      3.7600000000000047      56.400000000000006      43.240000000000002
    84   1      3.7600000000000047      54.519999999999996      48.880000000000003
    85   1      3.7600000000000047      56.400000000000006                      47
    86   1      3.7600000000000047      54.519999999999996      52.640000000000001
    87   1      3.7600000000000047      56.400000000000006      50.760000000000005
    88   1      3.7600000000000047      54.519999999999996      56.400000000000006
    89   1      3.7600000000000047      56.400000000000006      54.519999999999996
    90   1      7.5200000000000031      30.080000000000002      31.960000000000001
    91   1      7.5200000000000031      30.080000000000002      35.719999999999999
    92   1      7.5200000000000031      30.080000000000002      39.480000000000004
    93   1      7.5200000000000031      30.080000000000002      43.240000000000002
    94   1      7.5200000000000031      30.080000000000002                      47
    95   1      7.5200000000000031      30.080000000000002      50.760000000000005
    96   1      7.5200000000000031      30.080000000000002      54.519999999999996
    97   1      7.5200000000000031      30.080000000000002      58.279999999999994
    98   1      7.5200000000000031      30.080000000000002      62.039999999999999
    99   1      7.5200000000000031      31.960000000000001      30.080000000000002
   100   1      5.6400000000000006      33.840000000000003      33.840000000000003
   101   1      7.5200000000000031      31.960000000000001      33.840000000000003
   102   1      7.5200000000000031      33.840000000000003      31.960000000000001
   103   1      5.6400000000000006      33.840000000000003      37.600000000000001
   104   1      7.5200000000000031      31.960000000000001      37.600000000000001
   105   1      7.5200000000000031      33.840000000000003      35.719999999999999
   106   1      5.6400000000000006      33.840000000000003      41.360000000000007
   107   1      7.5200000000000031      31.960000000000001      41.360000000000007
   108   1      7.5200000000000031      33.840000000000003      39.480000000000004
   109   1      5.6400000000000006      33.840000000000003      45.120000000000005
   110   1      7.5200000000000031      31.960000000000001      45.120000000000005
   111   1      7.5200000000000031      33.840000000000003      43.240000000000002
   112   1      5.6400000000000006      33.840000000000003      48.880000000000003
   113   1      7.5200000000000031      31.960000000000001      48.880000000000003
   114   1      7.5200000000000031      33.840000000000003                      47
   115   1      5.6400000000000006      33.840000000000003      52.640000000000001
   116   1      7.5200000000000031      31.960000000000001      52.640000000000001
   117   1      7.5200000000000031      33.840000000000003      50.760000000000005
   118   1      5.6400000000000006      33.840000000000003      56.400000000000006
   119   1      7.5200000000000031      31.960000000000001      56.400000000000006
   120   1      7.5200000000000031      33.840000000000003      54.519999999999996
   121   1      5.6400000000000006      33.840000000000003      60.160000000000004
   122   1      7.5200000000000031      31.960000000000001      60.160000000000004
   123   1      7.5200000000000031      33.840000000000003      58.279999999999994
   124   1      7.5200000000000031      31.960000000000001      63.920000000000002
   125   1      7.5200000000000031      33.840000000000003      62.039999999999999
   126   1      7.5200000000000031      35.719999999999999      30.080000000000002
   127   1      5.6400000000000006      37.600000000000001      33.840000000000003
   128   1      7.5200000000000031      35.719999999999999      33.840000000000003
   129   1      7.5200000000000031      37.600000000000001      31.960000000000001
   130   1      5.6400000000000006      35.719999999999999      35.719999999999999
   131   1      5.6400000000000006      37.600000000000001      37.600000000000001
   132   1      7.5200000000000031      35.719999999999999      37.600000000000001
   133   1      7.5200000000000031      37.600000000000001      35.719999999999999
   134   1      5.6400000000000006      35.719999999999999      39.480000000000004
   135   1      5.6400000000000006      37.600000000000001      41.360000000000007
   136   1      7.5200000000000031      35.719999999999999      41.360000000000007
   137   1      7.5200000000000031      37.600000000000001      39.480000000000004
   138   1      5.6400000000000006      35.719999999999999      43.240000000000002
   139   1      5.6400000000000006      37.600000000000001      45.120000000000005
   140   1      7.5200000000000031      35.719999999999999      45.120000000000005
   141   1      7.5200000000000031      37.600000000000001      43.240000000000002
   142   1      5.6400000000000006      35.719999999999999                      47
   143   1      5.6400000000000006      37.600000000000001      48.880000000000003
   144   1      7.5200000000000031      35.719999999999999      48.880000000000003
   145   1      7.5200000000000031      37.600000000000001                      47
   146   1      5.6400000000000006      35.719999999999999      50.760000000000005
   147   1      5.6400000000000006      37.600000000000001      52.640000000000001
   148   1      7.5200000000000031      35.719999999999999      52.640000000000001
   149   1      7.5200000000000031      37.600000000000001      50.760000000000005
   150   1      5.6400000000000006      35.719999999999999      54.519999999999996
   151   1      5.6400000000000006      37.600000000000001      56.400000000000006
   152   1      7.5200000000000031      35.719999999999999      56.400000000000006
   153   1      7.5200000000000031      37.600000000000001      54.519999999999996
   154   1      5.6400000000000006      35.719999999999999      58.279999999999994
   155   1      5.6400000000000006      37.600000000000001      60.160000000000004
   156   1      7.5200000000000031      35.719999999999999      60.160000000000004
   157   1      7.5200000000000031      37.600000000000001      58.279999999999994
   158   1      7.5200000000000031      35.719999999999999      63.920000000000002
   159   1      7.5200000000000031      37.600000000000001      62.039999999999999
   160   1      7.5200000000000031      39.480000000000004      30.080000000000002
   161   1      5.6400000000000006      41.360000000000007      33.840000000000003
   162   1      7.5200000000000031      39.480000000000004      33.840000000000003
   163   1      7.5200000000000031      41.360000000000007      31.960000000000001
   164   1      5.6400000000000006      39.480000000000004      35.719999999999999
   165   1      5.6400000000000006      41.360000000000007      37.600000000000001
   166   1      7.5200000000000031      39.480000000000004      37.600000000000001
   167   1      7.5200000000000031      41.360000000000007      35.719999999999999
   168   1      5.6400000000000006      39.480000000000004      39.480000000000004
   169   1      5.6400000000000006      41.360000000000007      41.360000000000007
   170   1      7.5200000000000031      39.480000000000004      41.360000000000007
   171   1      7.5200000000000031      41.360000000000007      39.480000000000004
   172   1      5.6400000000000006      39.480000000000004      43.240000000000002
   173   1      5.6400000000000006      41.360000000000007      45.120000000000005
   174   1      7.5200000000000031      39.480000000000004      45.120000000000005
   175   1      7.5200000000000031      41.360000000000007      43.240000000000002
   176   1      5.6400000000000006      39.480000000000004                      47
   177   1      5.6400000000000006      41.360000000000007      48.880000000000003
   178   1      7.5200000000000031      39.480000000000004      48.880000000000003
   179   1      7.5200000000000031      41.360000000000007                      47
   180   1      5.6400000000000006      39.480000000000004      50.760000000000005
   181   1      5.6400000000000006      41.360000000000007      52.640000000000001
   182   1      7.5200000000000031      39.480000000000004      52.640000000000001
   183   1      7.5200000000000031      41.360000000000007      50.760000000000005
   184   1      5.6400000000000006      39.480000000000004      54.519999999999996
   185   1      5.6400000000000006      41.360000000000007      56.400000000000006
   186   1      7.5200000000000031      39.480000000000004      56.400000000000006
   187   1      7.5200000000000031      41.360000000000007      54.519999999999996
   188   1      5.6400000000000006      39.480000000000004      58.279999999999994
   189   1      5.6400000000000006      41.360000000000007      60.160000000000004
   190   1      7.5200000000000031      39.480000000000004      60.160000000000004
   191   1      7.5200000000000031      41.360000000000007      58.279999999999994
   192   1      7.5200000000000031      39.480000000000004      63.920000000000002
   193   1      7.5200000000000031      41.360000000000007      62.039999999999999
   194   1      7.5200000000000031      43.240000000000002      30.080000000000002
   195   1      5.6400000000000006      45.120000000000005      33.840000000000003
   196   1      7.5200000000000031      43.240000000000002      33.840000000000003
   197   1      7.5200000000000031      45.120000000000005      31.960000000000001
   198   1      5.6400000000000006      43.240000000000002      35.719999999999999
   199   1      5.6400000000000006      45.120000000000005      37.600000000000001
   200   1      7.5200000000000031      43.240000000000002      37.600000000000001
   201   1      7.5200000000000031      45.120000000000005      35.719999999999999
   202   1      5.6400000000000006      43.240000000000002      39.480000000000004
   203   1      5.6400000000000006      45.120000000000005      41.360000000000007
   204   1      7.5200000000000031      43.240000000000002      41.360000000000007
   205   1      7.5200000000000031      45.120000000000005      39.480000000000004
   206   1      5.6400000000000006      43.240000000000002      43.240000000000002
   207   1      5.6400000000000006      45.120000000000005      45.120000000000005
   208   1      7.5200000000000031      43.240000000000002      45.120000000000005
   209   1      7.5200000000000031      45.120000000000005      43.240000000000002
   210   1      5.6400000000000006      43.240000000000002                      47
   211   1      5.6400000000000006      45.120000000000005      48.880000000000003
   212   1      7.5200000000000031      43.240000000000002      48.880000000000003
   213   1      7.5200000000000031      45.120000000000005                      47
   214   1      5.6400000000000006      43.240000000000002      50.760000000000005
   215   1      5.6400000000000006      45.120000000000005      52.640000000000001
   216   1      7.5200000000000031      43.240000000000002      52.640000000000001
   217   1      7.5200000000000031      45.120000000000005      50.760000000000005
   218   1      5.6400000000000006      43.240000000000002      54.519999999999996
   219   1      5.6400000000000006      45.120000000000005      56.400000000000006
   220   1      7.5200000000000031      43.240000000000002      56.400000000000006
   221   1      7.5200000000000031      45.120000000000005      54.519999999999996
   222   1      5.6400000000000006      43.240000000000002      58.279999999999994
   223   1      5.6400000000000006      45.120000000000005      60.160000000000004
   224   1      7.5200000000000031      43.240000000000002      60.160000000000004
   225   1      7.5200000000000031      45.120000000000005      58.279999999999994
   226   1      7.5200000000000031      43.240000000000002      63.920000000000002
   227   1      7.5200000000000031      45.120000000000005      62.039999999999999
   228   1      7.5200000000000031                      47      30.080000000000002
   229   1      5.6400000000000006      48.880000000000003      33.840000000000003
   230   1      7.5200000000000031                      47      33.840000000000003
   231   1      7.5200000000000031      48.880000000000003      31.960000000000001
   232   1      5.6400000000000006                      47      35.719999999999999
   233   1      5.6400000000000006      48.880000000000003      37.600000000000001
   234   1      7.5200000000000031                      47      37.600000000000001
   235   1      7.5200000000000031      48.880000000000003      35.719999999999999
   236   1      5.6400000000000006                      47      39.480000000000004
   237   1      5.6400000000000006      48.880000000000003      41.360000000000007
   238   1      7.5200000000000031                      47      41.360000000000007
   239   1      7.5200000000000031      48.880000000000003      39.480000000000004
   240   1      5.6400000000000006                      47      43.240000000000002
   241   1      5.6400000000000006      48.880000000000003      45.120000000000005
   242   1      7.5200000000000031                      47      45.120000000000005
   243   1      7.5200000000000031      48.880000000000003      43.240000000000002
   244   1      5.6400000000000006                      47                      47
   245   1      5.6400000000000006      48.880000000000003      48.880000000000003
   246   1      7.5200000000000031                      47      48.880000000000003
   247   1      7.5200000000000031      48.880000000000003                      47
   248   1      5.6400000000000006                      47      50.760000000000005
   249   1      5.6400000000000006      48.880000000000003      52.640000000000001
   250   1      7.5200000000000031                      47      52.640000000000001
   251   1      7.5200000000000031      48.880000000000003      50.760000000000005
   252   1      5.6400000000000006                      47      54.519999999999996
   253   1      5.6400000000000006      48.880000000000003      56.400000000000006
   254   1      7.5200000000000031                      47      56.400000000000006
   255   1      7.5200000000000031      48.880000000000003      54.519999999999996
   256   1      5.6400000000000006                      47      58.279999999999994
   257   1      5.6400000000000006      48.880000000000003      60.160000000000004
   258   1      7.5200000000000031                      47      60.160000000000004
   259   1      7.5200000000000031      48.880000000000003      58.279999999999994
   260   1      7.5200000000000031                      47      63.920000000000002
   261   1      7.5200000000000031      48.880000000000003      62.039999999999999
   262   1      7.5200000000000031      50.760000000000005      30.080000000000002
   263   1      5.6400000000000006      52.640000000000001      33.840000000000003
   264   1      7.5200000000000031      50.760000000000005      33.840000000000003
   265   1      7.5200000000000031      52.640000000000001      31.960000000000001
   266   1      5.6400000000000006      50.760000000000005      35.719999999999999
   267   1      5.6400000000000006      52.640000000000001      37.600000000000001
   268   1      7.5200000000000031      50.760000000000005      37.600000000000001
   269   1      7.5200000000000031      52.640000000000001      35.719999999999999
   270   1      5.6400000000000006      50.760000000000005      39.480000000000004
   271   1      5.6400000000000006      52.640000000000001      41.360000000000007
   272   1      7.5200000000000031      50.760000000000005      41.360000000000007
   273   1      7.5200000000000031      52.640000000000001      39.480000000000004
   274   1      5.6400000000000006      50.760000000000005      43.240000000000002
   275   1      5.6400000000000006      52.640000000000001      45.120000000000005
   276   1      7.5200000000000031      50.760000000000005      45.120000000000005
   277   1      7.5200000000000031      52.640000000000001      43.240000000000002
   278   1      5.6400000000000006      50.760000000000005                      47
   279   1      5.6400000000000006      52.640000000000001      48.880000000000003
   280   1      7.5200000000000031      50.760000000000005      48.880000000000003
   281   1      7.5200000000000031      52.640000000000001                      47
   282   1      5.6400000000000006      50.760000000000005      50.760000000000005
   283   1      5.6400000000000006      52.640000000000001      52.640000000000001
   284   1      7.5200000000000031      50.760000000000005      52.640000000000001
   285   1      7.5200000000000031      52.640000000000001      50.760000000000005
   286   1      5.6400000000000006      50.760000000000005      54.519999999999996
   287   1      5.6400000000000006      52.640000000000001      56.400000000000006
   288   1      7.5200000000000031      50.760000000000005      56.400000000000006
   289   1      7.5200000000000031      52.640000000000001      54.519999999999996
   290   1      5.6400000000000006      50.760000000000005      58.279999999999994
   291   1      5.6400000000000006      52.640000000000001      60.160000000000004
   292   1      7.5200000000000031      50.760000000000005      60.160000000000004
   293   1      7.5200000000000031      52.640000000000001      58.279999999999994
   294   1      7.5200000000000031      50.760000000000005      63.920000000000002
   295   1      7.5200000000000031      52.640000000000001      62.039999999999999
   296   1      7.5200000000000031      54.519999999999996      30.080000000000002
   297   1      5.6400000000000006      56.400000000000006      33.840000000000003
   298   1      7.5200000000000031      54.519999999999996      33.840000000000003
   299   1      7.5200000000000031      56.400000000000006      31.960000000000001
   300   1      5.6400000000000006      54.519999999999996      35.719999999999999
   301   1      5.6400000000000006      56.400000000000006      37.600000000000001
   302   1      7.5200000000000031      54.519999999999996      37.600000000000001
   303   1      7.5200000000000031      56.400000000000006      35.719999999999999
   304   1      5.6400000000000006      54.519999999999996      39.480000000000004
   305   1      5.6400000000000006      56.400000000000006      41.360000000000007
   306   1      7.5200000000000031      54.519999999999996      41.360000000000007
   307   1      7.5200000000000031      56.400000000000006      39.480000000000004
   308   1      5.6400000000000006      54.519999999999996      43.240000000000002
   309   1      5.6400000000000006      56.400000000000006      45.120000000000005
   310   1      7.5200000000000031      54.519999999999996      45.120000000000005
   311   1      7.5200000000000031      56.400000000000006      43.240000000000002
   312   1      5.6400000000000006      54.519999999999996                      47
   313   1      5.6400000000000006      56.400000000000006      48.880000000000003
   314   1      7.5200000000000031      54.519999999999996      48.880000000000003
   315   1      7.5200000000000031      56.400000000000006                      47
   316   1      5.6400000000000006      54.519999999999996      50.760000000000005
   317   1      5.6400000000000006      56.400000000000006      52.640000000000001
   318   1      7.5200000000000031      54.519999999999996      52.640000000000001
   319   1      7.5200000000000031      56.400000000000006      50.760000000000005
   320   1      5.6400000000000006      54.519999999999996      54.519999999999996
   321   1      5.6400000000000006      56.400000000000006      56.400000000000006
   322   1      7.5200000000000031      54.519999999999996      56.400000000000006
   323   1      7.5200000000000031      56.400000000000006      54.519999999999996
   324   1      5.6400000000000006      54.519999999999996      58.279999999999994
   325   1      5.6400000000000006      56.400000000000006      60.160000000000004
   326   1      7.5200000000000031      54.519999999999996      60.160000000000004
   327   1      7.5200000000000031      56.400000000000006      58.279999999999994
   328   1      7.5200000000000031      54.519999999999996      63.920000000000002
   329   1      7.5200000000000031      56.400000000000006      62.039999999999999
   330   1      7.5200000000000031      58.279999999999994      30.080000000000002
   331   1      5.6400000000000006      60.160000000000004      33.840000000000003
   332   1      7.5200000000000031      58.279999999999994      33.840000000000003
   333   1      7.5200000000000031      60.160000000000004      31.960000000000001
   334   1      5.6400000000000006      58.279999999999994      35.719999999999999
   335   1      5.6400000000000006      60.160000000000004      37.600000000000001
   336   1      7.5200000000000031      58.279999999999994      37.600000000000001
   337   1      7.5200000000000031      60.160000000000004      35.719999999999999
   338   1      5.6400000000000006      58.279999999999994      39.480000000000004
   339   1      5.6400000000000006      60.160000000000004      41.360000000000007
   340   1      7.5200000000000031      58.279999999999994      41.360000000000007
   341   1      7.5200000000000031      60.160000000000004      39.480000000000004
   342   1      5.6400000000000006      58.279999999999994      43.240000000000002
   343   1      5.6400000000000006      60.160000000000004      45.120000000000005
   344   1      7.5200000000000031      58.279999999999994      45.120000000000005
   345   1      7.5200000000000031      60.160000000000004      43.240000000000002
   346   1      5.6400000000000006      58.279999999999994                      47
   347   1      5.6400000000000006      60.160000000000004      48.880000000000003
   348   1      7.5200000000000031      58.279999999999994      48.880000000000003
   349   1      7.5200000000000031      60.160000000000004                      47
   350   1      5.6400000000000006      58.279999999999994      50.760000000000005
   351   1      5.6400000000000006      60.160000000000004      52.640000000000001
   352   1      7.5200000000000031      58.279999999999994      52.640000000000001
   353   1      7.5200000000000031      60.160000000000004      50.760000000000005
   354   1      5.6400000000000006      58.279999999999994      54.519999999999996
   355   1      5.6400000000000006      60.160000000000004      56.400000000000006
   356   1      7.5200000000000031      58.279999999999994      56.400000000000006
   357   1      7.5200000000000031      60.160000000000004      54.519999999999996
   358   1      5.6400000000000006      58.279999999999994      58.279999999999994