model_files/PtNi/PtNi_30000/PtNi_511/PtNi_511_fcc_30527_temp.data (written by ASE) 

30527 	 atoms 
2  atom types
0.0                      88  xlo xhi
0.0                      88  ylo yhi
0.0                      88  zlo zhi


Atoms 

     1   1  7.1054273576010019e-15       42.13000000000001      44.045000000000009
     2   1  7.1054273576010019e-15      44.045000000000009       42.13000000000001
     3   1  7.1054273576010019e-15      44.045000000000009      45.960000000000008
     4   1  7.1054273576010019e-15      45.960000000000008      44.045000000000009
     5   1      3.8300000000000058      22.980000000000008      44.045000000000009
     6   1      3.8300000000000058       24.89500000000001       42.13000000000001
     7   1      3.8300000000000058      26.810000000000013      40.215000000000011
     8   1      3.8300000000000058       24.89500000000001      45.960000000000008
     9   1      3.8300000000000058      26.810000000000013      44.045000000000009
    10   1      3.8300000000000058      26.810000000000013      47.875000000000014
    11   1      3.8300000000000058      28.725000000000009      38.300000000000004
    12   1      3.8300000000000058      30.640000000000008      36.385000000000005
    13   1      3.8300000000000058      28.725000000000009       42.13000000000001
    14   1      3.8300000000000058      30.640000000000008      40.215000000000011
    15   1      3.8300000000000058      28.725000000000009      45.960000000000008
    16   1      3.8300000000000058      30.640000000000008      44.045000000000009
    17   1      3.8300000000000058      28.725000000000009      49.790000000000006
    18   1      3.8300000000000058      30.640000000000008      47.875000000000014
    19   1      3.8300000000000058      30.640000000000008       51.70500000000002
    20   1      3.8300000000000058      32.555000000000007      34.470000000000006
    21   1      3.8300000000000058      34.470000000000006      32.555000000000007
    22   1      3.8300000000000058      32.555000000000007      38.300000000000004
    23   1      3.8300000000000058      34.470000000000006      36.385000000000005
    24   1      1.9150000000000063      34.470000000000006       42.13000000000001
    25   1      3.8300000000000058      32.555000000000007       42.13000000000001
    26   1      3.8300000000000058      34.470000000000006      40.215000000000011
    27   1      1.9150000000000063      32.555000000000007      44.045000000000009
    28   1      1.9150000000000063      34.470000000000006      45.960000000000008
    29   1      3.8300000000000058      32.555000000000007      45.960000000000008
    30   1      3.8300000000000058      34.470000000000006      44.045000000000009
    31   1      3.8300000000000058      32.555000000000007      49.790000000000006
    32   1      3.8300000000000058      34.470000000000006      47.875000000000014
    33   1      3.8300000000000058      32.555000000000007      53.620000000000012
    34   1      3.8300000000000058      34.470000000000006       51.70500000000002
    35   1      3.8300000000000058      34.470000000000006      55.535000000000011
    36   1      3.8300000000000058      36.385000000000005      30.640000000000008
    37   1      3.8300000000000058      38.300000000000004      28.725000000000009
    38   1      3.8300000000000058      36.385000000000005      34.470000000000006
    39   1      3.8300000000000058      38.300000000000004      32.555000000000007
    40   1      1.9150000000000063      38.300000000000004      38.300000000000004
    41   1      3.8300000000000058      36.385000000000005      38.300000000000004
    42   1      3.8300000000000058      38.300000000000004      36.385000000000005
    43   1      1.9150000000000063      36.385000000000005      40.215000000000011
    44   1      1.9150000000000063      38.300000000000004       42.13000000000001
    45   1      3.8300000000000058      36.385000000000005       42.13000000000001
    46   1      3.8300000000000058      38.300000000000004      40.215000000000011
    47   1      1.9150000000000063      36.385000000000005      44.045000000000009
    48   1      1.9150000000000063      38.300000000000004      45.960000000000008
    49   1      3.8300000000000058      36.385000000000005      45.960000000000008
    50   1      3.8300000000000058      38.300000000000004      44.045000000000009
    51   1      1.9150000000000063      36.385000000000005      47.875000000000014
    52   1      1.9150000000000063      38.300000000000004      49.790000000000006
    53   1      3.8300000000000058      36.385000000000005      49.790000000000006
    54   1      3.8300000000000058      38.300000000000004      47.875000000000014
    55   1      3.8300000000000058      36.385000000000005      53.620000000000012
    56   1      3.8300000000000058      38.300000000000004       51.70500000000002
    57   1      3.8300000000000058      36.385000000000005       57.45000000000001
    58   1      3.8300000000000058      38.300000000000004      55.535000000000011
    59   1      3.8300000000000058      38.300000000000004      59.365000000000009
    60   1      3.8300000000000058      40.215000000000011      26.810000000000013
    61   1      3.8300000000000058       42.13000000000001       24.89500000000001
    62   1      3.8300000000000058      40.215000000000011      30.640000000000008
    63   1      3.8300000000000058       42.13000000000001      28.725000000000009
    64   1      1.9150000000000063       42.13000000000001      34.470000000000006
    65   1      3.8300000000000058      40.215000000000011      34.470000000000006
    66   1      3.8300000000000058       42.13000000000001      32.555000000000007
    67   1      1.9150000000000063      40.215000000000011      36.385000000000005
    68   1      1.9150000000000063       42.13000000000001      38.300000000000004
    69   1      3.8300000000000058      40.215000000000011      38.300000000000004
    70   1      3.8300000000000058       42.13000000000001      36.385000000000005
    71   1      1.9150000000000063      40.215000000000011      40.215000000000011
    72   1      1.9150000000000063       42.13000000000001       42.13000000000001
    73   1      3.8300000000000058      40.215000000000011       42.13000000000001
    74   1      3.8300000000000058       42.13000000000001      40.215000000000011
    75   1      1.9150000000000063      40.215000000000011      44.045000000000009
    76   1      1.9150000000000063       42.13000000000001      45.960000000000008
    77   1      3.8300000000000058      40.215000000000011      45.960000000000008
    78   1      3.8300000000000058       42.13000000000001      44.045000000000009
    79   1      1.9150000000000063      40.215000000000011      47.875000000000014
    80   1      1.9150000000000063       42.13000000000001      49.790000000000006
    81   1      3.8300000000000058      40.215000000000011      49.790000000000006
    82   1      3.8300000000000058       42.13000000000001      47.875000000000014
    83   1      1.9150000000000063      40.215000000000011       51.70500000000002
    84   1      1.9150000000000063       42.13000000000001      53.620000000000012
    85   1      3.8300000000000058      40.215000000000011      53.620000000000012
    86   1      3.8300000000000058       42.13000000000001       51.70500000000002
    87   1      3.8300000000000058      40.215000000000011       57.45000000000001
    88   1      3.8300000000000058       42.13000000000001      55.535000000000011
    89   1      3.8300000000000058      40.215000000000011      61.280000000000015
    90   1      3.8300000000000058       42.13000000000001      59.365000000000009
    91   1      3.8300000000000058       42.13000000000001      63.195000000000007
    92   1      3.8300000000000058      44.045000000000009      22.980000000000008
    93   1      3.8300000000000058      44.045000000000009      26.810000000000013
    94   1      3.8300000000000058      45.960000000000008       24.89500000000001
    95   1      3.8300000000000058      44.045000000000009      30.640000000000008
    96   1      3.8300000000000058      45.960000000000008      28.725000000000009
    97   1      1.9150000000000063      44.045000000000009      32.555000000000007
    98   1      1.9150000000000063      45.960000000000008      34.470000000000006
    99   1      3.8300000000000058      44.045000000000009      34.470000000000006
   100   1      3.8300000000000058      45.960000000000008      32.555000000000007
   101   1      1.9150000000000063      44.045000000000009      36.385000000000005
   102   1      1.9150000000000063      45.960000000000008      38.300000000000004
   103   1      3.8300000000000058      44.045000000000009      38.300000000000004
   104   1      3.8300000000000058      45.960000000000008      36.385000000000005
   105   1      1.9150000000000063      44.045000000000009      40.215000000000011
   106   1      1.9150000000000063      45.960000000000008       42.13000000000001
   107   1      3.8300000000000058      44.045000000000009       42.13000000000001
   108   1      3.8300000000000058      45.960000000000008      40.215000000000011
   109   1      1.9150000000000063      44.045000000000009      44.045000000000009
   110   1      1.9150000000000063      45.960000000000008      45.960000000000008
   111   1      3.8300000000000058      44.045000000000009      45.960000000000008
   112   1      3.8300000000000058      45.960000000000008      44.045000000000009
   113   1      1.9150000000000063      44.045000000000009      47.875000000000014
   114   1      1.9150000000000063      45.960000000000008      49.790000000000006
   115   1      3.8300000000000058      44.045000000000009      49.790000000000006
   116   1      3.8300000000000058      45.960000000000008      47.875000000000014
   117   1      1.9150000000000063      44.045000000000009       51.70500000000002
   118   1      1.9150000000000063      45.960000000000008      53.620000000000012
   119   1      3.8300000000000058      44.045000000000009      53.620000000000012
   120   1      3.8300000000000058      45.960000000000008       51.70500000000002
   121   1      1.9150000000000063      44.045000000000009      55.535000000000011
   122   1      3.8300000000000058      44.045000000000009       57.45000000000001
   123   1      3.8300000000000058      45.960000000000008      55.535000000000011
   124   1      3.8300000000000058      44.045000000000009      61.280000000000015
   125   1      3.8300000000000058      45.960000000000008      59.365000000000009
   126   1      3.8300000000000058      44.045000000000009      65.110000000000014
   127   1      3.8300000000000058      45.960000000000008      63.195000000000007
   128   1      3.8300000000000058      47.875000000000014      26.810000000000013
   129   1      3.8300000000000058      47.875000000000014      30.640000000000008
   130   1      3.8300000000000058      49.790000000000006      28.725000000000009
   131   1      3.8300000000000058      47.875000000000014      34.470000000000006
   132   1      3.8300000000000058      49.790000000000006      32.555000000000007
   133   1      1.9150000000000063      47.875000000000014      36.385000000000005
   134   1      1.9150000000000063      49.790000000000006      38.300000000000004
   135   1      3.8300000000000058      47.875000000000014      38.300000000000004
   136   1      3.8300000000000058      49.790000000000006      36.385000000000005
   137   1      1.9150000000000063      47.875000000000014      40.215000000000011
   138   1      1.9150000000000063      49.790000000000006       42.13000000000001
   139   1      3.8300000000000058      47.875000000000014       42.13000000000001
   140   1      3.8300000000000058      49.790000000000006      40.215000000000011
   141   1      1.9150000000000063      47.875000000000014      44.045000000000009
   142   1      1.9150000000000063      49.790000000000006      45.960000000000008
   143   1      3.8300000000000058      47.875000000000014      45.960000000000008
   144   1      3.8300000000000058      49.790000000000006      44.045000000000009
   145   1      1.9150000000000063      47.875000000000014      47.875000000000014
   146   1      1.9150000000000063      49.790000000000006      49.790000000000006
   147   1      3.8300000000000058      47.875000000000014      49.790000000000006
   148   1      3.8300000000000058      49.790000000000006      47.875000000000014
   149   1      1.9150000000000063      47.875000000000014       51.70500000000002
   150   1      3.8300000000000058      47.875000000000014      53.620000000000012
   151   1      3.8300000000000058      49.790000000000006       51.70500000000002
   152   1      3.8300000000000058      47.875000000000014       57.45000000000001
   153   1      3.8300000000000058      49.790000000000006      55.535000000000011
   154   1      3.8300000000000058      47.875000000000014      61.280000000000015
   155   1      3.8300000000000058      49.790000000000006      59.365000000000009
   156   1      3.8300000000000058       51.70500000000002      30.640000000000008
   157   1      3.8300000000000058       51.70500000000002      34.470000000000006
   158   1      3.8300000000000058      53.620000000000012      32.555000000000007
   159   1      3.8300000000000058       51.70500000000002      38.300000000000004
   160   1      3.8300000000000058      53.620000000000012      36.385000000000005
   161   1      1.9150000000000063       51.70500000000002      40.215000000000011
   162   1      1.9150000000000063      53.620000000000012       42.13000000000001
   163   1      3.8300000000000058       51.70500000000002       42.13000000000001
   164   1      3.8300000000000058      53.620000000000012      40.215000000000011
   165   1      1.9150000000000063       51.70500000000002      44.045000000000009
   166   1      1.9150000000000063      53.620000000000012      45.960000000000008
   167   1      3.8300000000000058       51.70500000000002      45.960000000000008
   168   1      3.8300000000000058      53.620000000000012      44.045000000000009
   169   1      1.9150000000000063       51.70500000000002      47.875000000000014
   170   1      3.8300000000000058       51.70500000000002      49.790000000000006
   171   1      3.8300000000000058      53.620000000000012      47.875000000000014
   172   1      3.8300000000000058       51.70500000000002      53.620000000000012
   173   1      3.8300000000000058      53.620000000000012       51.70500000000002
   174   1      3.8300000000000058       51.70500000000002       57.45000000000001
   175   1      3.8300000000000058      53.620000000000012      55.535000000000011
   176   1      3.8300000000000058      55.535000000000011      34.470000000000006
   177   1      3.8300000000000058      55.535000000000011      38.300000000000004
   178   1      3.8300000000000058       57.45000000000001      36.385000000000005
   179   1      3.8300000000000058      55.535000000000011       42.13000000000001
   180   1      3.8300000000000058       57.45000000000001      40.215000000000011
   181   1      1.9150000000000063      55.535000000000011      44.045000000000009
   182   1      3.8300000000000058      55.535000000000011      45.960000000000008
   183   1      3.8300000000000058       57.45000000000001      44.045000000000009
   184   1      3.8300000000000058      55.535000000000011      49.790000000000006
   185   1      3.8300000000000058       57.45000000000001      47.875000000000014
   186   1      3.8300000000000058      55.535000000000011      53.620000000000012
   187   1      3.8300000000000058       57.45000000000001       51.70500000000002
   188   1      3.8300000000000058      59.365000000000009      38.300000000000004
   189   1      3.8300000000000058      59.365000000000009       42.13000000000001
   190   1      3.8300000000000058      61.280000000000015      40.215000000000011
   191   1      3.8300000000000058      59.365000000000009      45.960000000000008
   192   1      3.8300000000000058      61.280000000000015      44.045000000000009
   193   1      3.8300000000000058      59.365000000000009      49.790000000000006
   194   1      3.8300000000000058      61.280000000000015      47.875000000000014
   195   1      3.8300000000000058      63.195000000000007       42.13000000000001
   196   1      3.8300000000000058      63.195000000000007      45.960000000000008
   197   1      3.8300000000000058      65.110000000000014      44.045000000000009
   198   1      7.6600000000000037      7.6600000000000037      40.215000000000011
   199   1      7.6600000000000037      7.6600000000000037      44.045000000000009
   200   1      7.6600000000000037      7.6600000000000037      47.875000000000014
   201   1      7.6600000000000037      9.5750000000000099      38.300000000000004
   202   1      7.6600000000000037      11.490000000000009      36.385000000000005
   203   1      7.6600000000000037      9.5750000000000099       42.13000000000001
   204   1      7.6600000000000037      11.490000000000009      40.215000000000011
   205   1      7.6600000000000037      9.5750000000000099      45.960000000000008
   206   1      7.6600000000000037      11.490000000000009      44.045000000000009
   207   1      7.6600000000000037      9.5750000000000099      49.790000000000006
   208   1      7.6600000000000037      11.490000000000009      47.875000000000014
   209   1      7.6600000000000037      11.490000000000009       51.70500000000002
   210   1      7.6600000000000037      13.405000000000008      34.470000000000006
   211   1      7.6600000000000037      15.320000000000007      32.555000000000007
   212   1      7.6600000000000037      13.405000000000008      38.300000000000004
   213   1      7.6600000000000037      15.320000000000007      36.385000000000005
   214   1      5.7450000000000117      15.320000000000007       42.13000000000001
   215   1      7.6600000000000037      13.405000000000008       42.13000000000001
   216   1      7.6600000000000037      15.320000000000007      40.215000000000011
   217   1      5.7450000000000117      13.405000000000008      44.045000000000009
   218   1      5.7450000000000117      15.320000000000007      45.960000000000008
   219   1      7.6600000000000037      13.405000000000008      45.960000000000008
   220   1      7.6600000000000037      15.320000000000007      44.045000000000009
   221   1      7.6600000000000037      13.405000000000008      49.790000000000006
   222   1      7.6600000000000037      15.320000000000007      47.875000000000014
   223   1      7.6600000000000037      13.405000000000008      53.620000000000012
   224   1      7.6600000000000037      15.320000000000007       51.70500000000002
   225   1      7.6600000000000037      15.320000000000007      55.535000000000011
   226   1      7.6600000000000037      17.235000000000007      30.640000000000008
   227   1      7.6600000000000037      19.150000000000006      28.725000000000009
   228   1      7.6600000000000037      17.235000000000007      34.470000000000006
   229   1      7.6600000000000037      19.150000000000006      32.555000000000007
   230   1      5.7450000000000117      19.150000000000006      38.300000000000004
   231   1      7.6600000000000037      17.235000000000007      38.300000000000004
   232   1      7.6600000000000037      19.150000000000006      36.385000000000005
   233   1      5.7450000000000117      17.235000000000007      40.215000000000011
   234   1      5.7450000000000117      19.150000000000006       42.13000000000001
   235   1      7.6600000000000037      17.235000000000007       42.13000000000001
   236   1      7.6600000000000037      19.150000000000006      40.215000000000011
   237   1      5.7450000000000117      17.235000000000007      44.045000000000009
   238   1      5.7450000000000117      19.150000000000006      45.960000000000008
   239   1      7.6600000000000037      17.235000000000007      45.960000000000008
   240   1      7.6600000000000037      19.150000000000006      44.045000000000009
   241   1      5.7450000000000117      17.235000000000007      47.875000000000014
   242   1      5.7450000000000117      19.150000000000006      49.790000000000006
   243   1      7.6600000000000037      17.235000000000007      49.790000000000006
   244   1      7.6600000000000037      19.150000000000006      47.875000000000014
   245   1      7.6600000000000037      17.235000000000007      53.620000000000012
   246   1      7.6600000000000037      19.150000000000006       51.70500000000002
   247   1      7.6600000000000037      17.235000000000007       57.45000000000001
   248   1      7.6600000000000037      19.150000000000006      55.535000000000011
   249   1      7.6600000000000037      19.150000000000006      59.365000000000009
   250   1      7.6600000000000037      21.065000000000012      26.810000000000013
   251   1      7.6600000000000037      22.980000000000008       24.89500000000001
   252   1      7.6600000000000037      21.065000000000012      30.640000000000008
   253   1      7.6600000000000037      22.980000000000008      28.725000000000009
   254   1      5.7450000000000117      22.980000000000008      34.470000000000006
   255   1      7.6600000000000037      21.065000000000012      34.470000000000006
   256   1      7.6600000000000037      22.980000000000008      32.555000000000007
   257   1      5.7450000000000117      21.065000000000012      36.385000000000005
   258   1      5.7450000000000117      22.980000000000008      38.300000000000004
   259   1      7.6600000000000037      21.065000000000012      38.300000000000004
   260   1      7.6600000000000037      22.980000000000008      36.385000000000005
   261   1      5.7450000000000117      21.065000000000012      40.215000000000011
   262   1      5.7450000000000117      22.980000000000008       42.13000000000001
   263   1      7.6600000000000037      21.065000000000012       42.13000000000001
   264   1      7.6600000000000037      22.980000000000008      40.215000000000011
   265   1      5.7450000000000117      21.065000000000012      44.045000000000009
   266   1      5.7450000000000117      22.980000000000008      45.960000000000008
   267   1      7.6600000000000037      21.065000000000012      45.960000000000008
   268   1      7.6600000000000037      22.980000000000008      44.045000000000009
   269   1      5.7450000000000117      21.065000000000012      47.875000000000014
   270   1      5.7450000000000117      22.980000000000008      49.790000000000006
   271   1      7.6600000000000037      21.065000000000012      49.790000000000006
   272   1      7.6600000000000037      22.980000000000008      47.875000000000014
   273   1      5.7450000000000117      21.065000000000012       51.70500000000002
   274   1      5.7450000000000117      22.980000000000008      53.620000000000012
   275   1      7.6600000000000037      21.065000000000012      53.620000000000012
   276   1      7.6600000000000037      22.980000000000008       51.70500000000002
   277   1      7.6600000000000037      21.065000000000012       57.45000000000001
   278   1      7.6600000000000037      22.980000000000008      55.535000000000011
   279   1      7.6600000000000037      21.065000000000012      61.280000000000015
   280   1      7.6600000000000037      22.980000000000008      59.365000000000009
   281   1      7.6600000000000037      22.980000000000008      63.195000000000007
   282   1      7.6600000000000037       24.89500000000001      22.980000000000008
   283   1      7.6600000000000037      26.810000000000013      21.065000000000012
   284   1      7.6600000000000037       24.89500000000001      26.810000000000013
   285   1      7.6600000000000037      26.810000000000013       24.89500000000001
   286   1      5.7450000000000117      26.810000000000013      30.640000000000008
   287   1      7.6600000000000037       24.89500000000001      30.640000000000008
   288   1      7.6600000000000037      26.810000000000013      28.725000000000009
   289   1      5.7450000000000117       24.89500000000001      32.555000000000007
   290   1      5.7450000000000117      26.810000000000013      34.470000000000006
   291   1      7.6600000000000037       24.89500000000001      34.470000000000006
   292   1      7.6600000000000037      26.810000000000013      32.555000000000007
   293   1      5.7450000000000117       24.89500000000001      36.385000000000005
   294   1      5.7450000000000117      26.810000000000013      38.300000000000004
   295   1      7.6600000000000037       24.89500000000001      38.300000000000004
   296   1      7.6600000000000037      26.810000000000013      36.385000000000005
   297   1      5.7450000000000117       24.89500000000001      40.215000000000011
   298   1      5.7450000000000117      26.810000000000013       42.13000000000001
   299   1      7.6600000000000037       24.89500000000001       42.13000000000001
   300   1      7.6600000000000037      26.810000000000013      40.215000000000011
   301   1      5.7450000000000117       24.89500000000001      44.045000000000009
   302   1      5.7450000000000117      26.810000000000013      45.960000000000008
   303   1      7.6600000000000037       24.89500000000001      45.960000000000008
   304   1      7.6600000000000037      26.810000000000013      44.045000000000009
   305   1      5.7450000000000117       24.89500000000001      47.875000000000014
   306   1      5.7450000000000117      26.810000000000013      49.790000000000006
   307   1      7.6600000000000037       24.89500000000001      49.790000000000006
   308   1      7.6600000000000037      26.810000000000013      47.875000000000014
   309   1      5.7450000000000117       24.89500000000001       51.70500000000002
   310   1      5.7450000000000117      26.810000000000013      53.620000000000012
   311   1      7.6600000000000037       24.89500000000001      53.620000000000012
   312   1      7.6600000000000037      26.810000000000013       51.70500000000002
   313   1      5.7450000000000117       24.89500000000001      55.535000000000011
   314   1      5.7450000000000117      26.810000000000013       57.45000000000001
   315   1      7.6600000000000037       24.89500000000001       57.45000000000001
   316   1      7.6600000000000037      26.810000000000013      55.535000000000011
   317   1      7.6600000000000037       24.89500000000001      61.280000000000015
   318   1      7.6600000000000037      26.810000000000013      59.365000000000009
   319   1      7.6600000000000037       24.89500000000001      65.110000000000014
   320   1      7.6600000000000037      26.810000000000013      63.195000000000007
   321   1      7.6600000000000037      26.810000000000013      67.025000000000006
   322   1      7.6600000000000037      28.725000000000009      19.150000000000006
   323   1      7.6600000000000037      30.640000000000008      17.235000000000007
   324   1      7.6600000000000037      28.725000000000009      22.980000000000008
   325   1      7.6600000000000037      30.640000000000008      21.065000000000012
   326   1      5.7450000000000117      30.640000000000008      26.810000000000013
   327   1      7.6600000000000037      28.725000000000009      26.810000000000013
   328   1      7.6600000000000037      30.640000000000008       24.89500000000001
   329   1      5.7450000000000117      28.725000000000009      28.725000000000009
   330   1      5.7450000000000117      30.640000000000008      30.640000000000008
   331   1      7.6600000000000037      28.725000000000009      30.640000000000008
   332   1      7.6600000000000037      30.640000000000008      28.725000000000009
   333   1      5.7450000000000117      28.725000000000009      32.555000000000007
   334   1      5.7450000000000117      30.640000000000008      34.470000000000006
   335   1      7.6600000000000037      28.725000000000009      34.470000000000006
   336   1      7.6600000000000037      30.640000000000008      32.555000000000007
   337   1      5.7450000000000117      28.725000000000009      36.385000000000005
   338   1      5.7450000000000117      30.640000000000008      38.300000000000004
   339   1      7.6600000000000037      28.725000000000009      38.300000000000004
   340   1      7.6600000000000037      30.640000000000008      36.385000000000005
   341   1      5.7450000000000117      28.725000000000009      40.215000000000011
   342   1      5.7450000000000117      30.640000000000008       42.13000000000001
   343   1      7.6600000000000037      28.725000000000009       42.13000000000001
   344   1      7.6600000000000037      30.640000000000008      40.215000000000011
   345   1      5.7450000000000117      28.725000000000009      44.045000000000009
   346   1      5.7450000000000117      30.640000000000008      45.960000000000008
   347   1      7.6600000000000037      28.725000000000009      45.960000000000008
   348   1      7.6600000000000037      30.640000000000008      44.045000000000009
   349   1      5.7450000000000117      28.725000000000009      47.875000000000014
   350   1      5.7450000000000117      30.640000000000008      49.790000000000006
   351   1      7.6600000000000037      28.725000000000009      49.790000000000006
   352   1      7.6600000000000037      30.640000000000008      47.875000000000014
   353   1      5.7450000000000117      28.725000000000009       51.70500000000002
   354   1      5.7450000000000117      30.640000000000008      53.620000000000012
   355   1      7.6600000000000037      28.725000000000009      53.620000000000012
   356   1      7.6600000000000037      30.640000000000008       51.70500000000002
   357   1      5.7450000000000117      28.725000000000009      55.535000000000011
   358   1      5.7450000000000117      30.640000000000008       57.45000000000001