model_files/Fe/Fe_30000/Fe_311/data.Fe_311_fcc_29985 (written by ASE) 

29985 	 atoms 
1  atom types
0.0                      93  xlo xhi
0.0                      93  ylo yhi
0.0                      93  zlo zhi


Atoms 

     1   1      1.4350000000000096      44.485000000000014      44.485000000000014
     2   1      1.4350000000000096      44.485000000000014      47.355000000000004
     3   1      1.4350000000000096      47.355000000000004      44.485000000000014
     4   1  7.1054273576010019e-15      45.920000000000009      45.920000000000009
     5   1      1.4350000000000096      47.355000000000004      47.355000000000004
     6   1      4.3050000000000068      35.875000000000007      44.485000000000014
     7   1      4.3050000000000068      35.875000000000007      47.355000000000004
     8   1      4.3050000000000068      38.745000000000005      41.615000000000016
     9   1      4.3050000000000068      38.745000000000005      44.485000000000014
    10   1      2.8700000000000121      37.310000000000002      45.920000000000009
    11   1      4.3050000000000068      38.745000000000005      47.355000000000004
    12   1      4.3050000000000068      38.745000000000005      50.225000000000009
    13   1      4.3050000000000068      41.615000000000016      38.745000000000005
    14   1      4.3050000000000068      41.615000000000016      41.615000000000016
    15   1      2.8700000000000121      40.180000000000014      43.050000000000011
    16   1      4.3050000000000068      41.615000000000016      44.485000000000014
    17   1      2.8700000000000121      40.180000000000014      45.920000000000009
    18   1      4.3050000000000068      41.615000000000016      47.355000000000004
    19   1      2.8700000000000121      40.180000000000014      48.790000000000013
    20   1      4.3050000000000068      41.615000000000016      50.225000000000009
    21   1      4.3050000000000068      41.615000000000016      53.095000000000013
    22   1      4.3050000000000068      44.485000000000014      35.875000000000007
    23   1      4.3050000000000068      44.485000000000014      38.745000000000005
    24   1      2.8700000000000121      43.050000000000011      40.180000000000014
    25   1      4.3050000000000068      44.485000000000014      41.615000000000016
    26   1      2.8700000000000121      43.050000000000011      43.050000000000011
    27   1      4.3050000000000068      44.485000000000014      44.485000000000014
    28   1      2.8700000000000121      43.050000000000011      45.920000000000009
    29   1      4.3050000000000068      44.485000000000014      47.355000000000004
    30   1      2.8700000000000121      43.050000000000011      48.790000000000013
    31   1      4.3050000000000068      44.485000000000014      50.225000000000009
    32   1      2.8700000000000121      43.050000000000011      51.660000000000004
    33   1      4.3050000000000068      44.485000000000014      53.095000000000013
    34   1      4.3050000000000068      44.485000000000014      55.965000000000003
    35   1      4.3050000000000068      47.355000000000004      35.875000000000007
    36   1      2.8700000000000121      45.920000000000009      37.310000000000002
    37   1      4.3050000000000068      47.355000000000004      38.745000000000005
    38   1      2.8700000000000121      45.920000000000009      40.180000000000014
    39   1      4.3050000000000068      47.355000000000004      41.615000000000016
    40   1      2.8700000000000121      45.920000000000009      43.050000000000011
    41   1      4.3050000000000068      47.355000000000004      44.485000000000014
    42   1      2.8700000000000121      45.920000000000009      45.920000000000009
    43   1      4.3050000000000068      47.355000000000004      47.355000000000004
    44   1      2.8700000000000121      45.920000000000009      48.790000000000013
    45   1      4.3050000000000068      47.355000000000004      50.225000000000009
    46   1      2.8700000000000121      45.920000000000009      51.660000000000004
    47   1      4.3050000000000068      47.355000000000004      53.095000000000013
    48   1      2.8700000000000121      45.920000000000009      54.530000000000008
    49   1      4.3050000000000068      47.355000000000004      55.965000000000003
    50   1      4.3050000000000068      50.225000000000009      38.745000000000005
    51   1      2.8700000000000121      48.790000000000013      40.180000000000014
    52   1      4.3050000000000068      50.225000000000009      41.615000000000016
    53   1      2.8700000000000121      48.790000000000013      43.050000000000011
    54   1      4.3050000000000068      50.225000000000009      44.485000000000014
    55   1      2.8700000000000121      48.790000000000013      45.920000000000009
    56   1      4.3050000000000068      50.225000000000009      47.355000000000004
    57   1      2.8700000000000121      48.790000000000013      48.790000000000013
    58   1      4.3050000000000068      50.225000000000009      50.225000000000009
    59   1      2.8700000000000121      48.790000000000013      51.660000000000004
    60   1      4.3050000000000068      50.225000000000009      53.095000000000013
    61   1      4.3050000000000068      53.095000000000013      41.615000000000016
    62   1      2.8700000000000121      51.660000000000004      43.050000000000011
    63   1      4.3050000000000068      53.095000000000013      44.485000000000014
    64   1      2.8700000000000121      51.660000000000004      45.920000000000009
    65   1      4.3050000000000068      53.095000000000013      47.355000000000004
    66   1      2.8700000000000121      51.660000000000004      48.790000000000013
    67   1      4.3050000000000068      53.095000000000013      50.225000000000009
    68   1      4.3050000000000068      55.965000000000003      44.485000000000014
    69   1      2.8700000000000121      54.530000000000008      45.920000000000009
    70   1      4.3050000000000068      55.965000000000003      47.355000000000004
    71   1      7.1750000000000114      27.265000000000008      44.485000000000014
    72   1      7.1750000000000114      27.265000000000008      47.355000000000004
    73   1      7.1750000000000114      30.135000000000005      41.615000000000016
    74   1      7.1750000000000114      30.135000000000005      44.485000000000014
    75   1        5.74000000000001       28.70000000000001      45.920000000000009
    76   1      7.1750000000000114      30.135000000000005      47.355000000000004
    77   1      7.1750000000000114      30.135000000000005      50.225000000000009
    78   1      7.1750000000000114       33.00500000000001      38.745000000000005
    79   1      7.1750000000000114       33.00500000000001      41.615000000000016
    80   1        5.74000000000001      31.570000000000011      43.050000000000011
    81   1      7.1750000000000114       33.00500000000001      44.485000000000014
    82   1        5.74000000000001      31.570000000000011      45.920000000000009
    83   1      7.1750000000000114       33.00500000000001      47.355000000000004
    84   1        5.74000000000001      31.570000000000011      48.790000000000013
    85   1      7.1750000000000114       33.00500000000001      50.225000000000009
    86   1      7.1750000000000114       33.00500000000001      53.095000000000013
    87   1      7.1750000000000114      35.875000000000007      35.875000000000007
    88   1      7.1750000000000114      35.875000000000007      38.745000000000005
    89   1        5.74000000000001      34.440000000000012      40.180000000000014
    90   1      7.1750000000000114      35.875000000000007      41.615000000000016
    91   1        5.74000000000001      34.440000000000012      43.050000000000011
    92   1      7.1750000000000114      35.875000000000007      44.485000000000014
    93   1        5.74000000000001      34.440000000000012      45.920000000000009
    94   1      7.1750000000000114      35.875000000000007      47.355000000000004
    95   1        5.74000000000001      34.440000000000012      48.790000000000013
    96   1      7.1750000000000114      35.875000000000007      50.225000000000009
    97   1        5.74000000000001      34.440000000000012      51.660000000000004
    98   1      7.1750000000000114      35.875000000000007      53.095000000000013
    99   1      7.1750000000000114      35.875000000000007      55.965000000000003
   100   1      7.1750000000000114      38.745000000000005       33.00500000000001
   101   1      7.1750000000000114      38.745000000000005      35.875000000000007
   102   1        5.74000000000001      37.310000000000002      37.310000000000002
   103   1      7.1750000000000114      38.745000000000005      38.745000000000005
   104   1        5.74000000000001      37.310000000000002      40.180000000000014
   105   1      7.1750000000000114      38.745000000000005      41.615000000000016
   106   1        5.74000000000001      37.310000000000002      43.050000000000011
   107   1      7.1750000000000114      38.745000000000005      44.485000000000014
   108   1        5.74000000000001      37.310000000000002      45.920000000000009
   109   1      7.1750000000000114      38.745000000000005      47.355000000000004
   110   1        5.74000000000001      37.310000000000002      48.790000000000013
   111   1      7.1750000000000114      38.745000000000005      50.225000000000009
   112   1        5.74000000000001      37.310000000000002      51.660000000000004
   113   1      7.1750000000000114      38.745000000000005      53.095000000000013
   114   1        5.74000000000001      37.310000000000002      54.530000000000008
   115   1      7.1750000000000114      38.745000000000005      55.965000000000003
   116   1      7.1750000000000114      38.745000000000005      58.835000000000015
   117   1      7.1750000000000114      41.615000000000016      30.135000000000005
   118   1      7.1750000000000114      41.615000000000016       33.00500000000001
   119   1        5.74000000000001      40.180000000000014      34.440000000000012
   120   1      7.1750000000000114      41.615000000000016      35.875000000000007
   121   1        5.74000000000001      40.180000000000014      37.310000000000002
   122   1      7.1750000000000114      41.615000000000016      38.745000000000005
   123   1        5.74000000000001      40.180000000000014      40.180000000000014
   124   1      7.1750000000000114      41.615000000000016      41.615000000000016
   125   1        5.74000000000001      40.180000000000014      43.050000000000011
   126   1      7.1750000000000114      41.615000000000016      44.485000000000014
   127   1        5.74000000000001      40.180000000000014      45.920000000000009
   128   1      7.1750000000000114      41.615000000000016      47.355000000000004
   129   1        5.74000000000001      40.180000000000014      48.790000000000013
   130   1      7.1750000000000114      41.615000000000016      50.225000000000009
   131   1        5.74000000000001      40.180000000000014      51.660000000000004
   132   1      7.1750000000000114      41.615000000000016      53.095000000000013
   133   1        5.74000000000001      40.180000000000014      54.530000000000008
   134   1      7.1750000000000114      41.615000000000016      55.965000000000003
   135   1        5.74000000000001      40.180000000000014      57.400000000000006
   136   1      7.1750000000000114      41.615000000000016      58.835000000000015
   137   1      7.1750000000000114      41.615000000000016      61.705000000000005
   138   1      7.1750000000000114      44.485000000000014      27.265000000000008
   139   1      7.1750000000000114      44.485000000000014      30.135000000000005
   140   1        5.74000000000001      43.050000000000011      31.570000000000011
   141   1      7.1750000000000114      44.485000000000014       33.00500000000001
   142   1        5.74000000000001      43.050000000000011      34.440000000000012
   143   1      7.1750000000000114      44.485000000000014      35.875000000000007
   144   1        5.74000000000001      43.050000000000011      37.310000000000002
   145   1      7.1750000000000114      44.485000000000014      38.745000000000005
   146   1        5.74000000000001      43.050000000000011      40.180000000000014
   147   1      7.1750000000000114      44.485000000000014      41.615000000000016
   148   1        5.74000000000001      43.050000000000011      43.050000000000011
   149   1      7.1750000000000114      44.485000000000014      44.485000000000014
   150   1        5.74000000000001      43.050000000000011      45.920000000000009
   151   1      7.1750000000000114      44.485000000000014      47.355000000000004
   152   1        5.74000000000001      43.050000000000011      48.790000000000013
   153   1      7.1750000000000114      44.485000000000014      50.225000000000009
   154   1        5.74000000000001      43.050000000000011      51.660000000000004
   155   1      7.1750000000000114      44.485000000000014      53.095000000000013
   156   1        5.74000000000001      43.050000000000011      54.530000000000008
   157   1      7.1750000000000114      44.485000000000014      55.965000000000003
   158   1        5.74000000000001      43.050000000000011      57.400000000000006
   159   1      7.1750000000000114      44.485000000000014      58.835000000000015
   160   1        5.74000000000001      43.050000000000011       60.27000000000001
   161   1      7.1750000000000114      44.485000000000014      61.705000000000005
   162   1      7.1750000000000114      44.485000000000014      64.575000000000003
   163   1      7.1750000000000114      47.355000000000004      27.265000000000008
   164   1        5.74000000000001      45.920000000000009       28.70000000000001
   165   1      7.1750000000000114      47.355000000000004      30.135000000000005
   166   1        5.74000000000001      45.920000000000009      31.570000000000011
   167   1      7.1750000000000114      47.355000000000004       33.00500000000001
   168   1        5.74000000000001      45.920000000000009      34.440000000000012
   169   1      7.1750000000000114      47.355000000000004      35.875000000000007
   170   1        5.74000000000001      45.920000000000009      37.310000000000002
   171   1      7.1750000000000114      47.355000000000004      38.745000000000005
   172   1        5.74000000000001      45.920000000000009      40.180000000000014
   173   1      7.1750000000000114      47.355000000000004      41.615000000000016
   174   1        5.74000000000001      45.920000000000009      43.050000000000011
   175   1      7.1750000000000114      47.355000000000004      44.485000000000014
   176   1        5.74000000000001      45.920000000000009      45.920000000000009
   177   1      7.1750000000000114      47.355000000000004      47.355000000000004
   178   1        5.74000000000001      45.920000000000009      48.790000000000013
   179   1      7.1750000000000114      47.355000000000004      50.225000000000009
   180   1        5.74000000000001      45.920000000000009      51.660000000000004
   181   1      7.1750000000000114      47.355000000000004      53.095000000000013
   182   1        5.74000000000001      45.920000000000009      54.530000000000008
   183   1      7.1750000000000114      47.355000000000004      55.965000000000003
   184   1        5.74000000000001      45.920000000000009      57.400000000000006
   185   1      7.1750000000000114      47.355000000000004      58.835000000000015
   186   1        5.74000000000001      45.920000000000009       60.27000000000001
   187   1      7.1750000000000114      47.355000000000004      61.705000000000005
   188   1        5.74000000000001      45.920000000000009      63.140000000000001
   189   1      7.1750000000000114      47.355000000000004      64.575000000000003
   190   1      7.1750000000000114      50.225000000000009      30.135000000000005
   191   1        5.74000000000001      48.790000000000013      31.570000000000011
   192   1      7.1750000000000114      50.225000000000009       33.00500000000001
   193   1        5.74000000000001      48.790000000000013      34.440000000000012
   194   1      7.1750000000000114      50.225000000000009      35.875000000000007
   195   1        5.74000000000001      48.790000000000013      37.310000000000002
   196   1      7.1750000000000114      50.225000000000009      38.745000000000005
   197   1        5.74000000000001      48.790000000000013      40.180000000000014
   198   1      7.1750000000000114      50.225000000000009      41.615000000000016
   199   1        5.74000000000001      48.790000000000013      43.050000000000011
   200   1      7.1750000000000114      50.225000000000009      44.485000000000014
   201   1        5.74000000000001      48.790000000000013      45.920000000000009
   202   1      7.1750000000000114      50.225000000000009      47.355000000000004
   203   1        5.74000000000001      48.790000000000013      48.790000000000013
   204   1      7.1750000000000114      50.225000000000009      50.225000000000009
   205   1        5.74000000000001      48.790000000000013      51.660000000000004
   206   1      7.1750000000000114      50.225000000000009      53.095000000000013
   207   1        5.74000000000001      48.790000000000013      54.530000000000008
   208   1      7.1750000000000114      50.225000000000009      55.965000000000003
   209   1        5.74000000000001      48.790000000000013      57.400000000000006
   210   1      7.1750000000000114      50.225000000000009      58.835000000000015
   211   1        5.74000000000001      48.790000000000013       60.27000000000001
   212   1      7.1750000000000114      50.225000000000009      61.705000000000005
   213   1      7.1750000000000114      53.095000000000013       33.00500000000001
   214   1        5.74000000000001      51.660000000000004      34.440000000000012
   215   1      7.1750000000000114      53.095000000000013      35.875000000000007
   216   1        5.74000000000001      51.660000000000004      37.310000000000002
   217   1      7.1750000000000114      53.095000000000013      38.745000000000005
   218   1        5.74000000000001      51.660000000000004      40.180000000000014
   219   1      7.1750000000000114      53.095000000000013      41.615000000000016
   220   1        5.74000000000001      51.660000000000004      43.050000000000011
   221   1      7.1750000000000114      53.095000000000013      44.485000000000014
   222   1        5.74000000000001      51.660000000000004      45.920000000000009
   223   1      7.1750000000000114      53.095000000000013      47.355000000000004
   224   1        5.74000000000001      51.660000000000004      48.790000000000013
   225   1      7.1750000000000114      53.095000000000013      50.225000000000009
   226   1        5.74000000000001      51.660000000000004      51.660000000000004
   227   1      7.1750000000000114      53.095000000000013      53.095000000000013
   228   1        5.74000000000001      51.660000000000004      54.530000000000008
   229   1      7.1750000000000114      53.095000000000013      55.965000000000003
   230   1        5.74000000000001      51.660000000000004      57.400000000000006
   231   1      7.1750000000000114      53.095000000000013      58.835000000000015
   232   1      7.1750000000000114      55.965000000000003      35.875000000000007
   233   1        5.74000000000001      54.530000000000008      37.310000000000002
   234   1      7.1750000000000114      55.965000000000003      38.745000000000005
   235   1        5.74000000000001      54.530000000000008      40.180000000000014
   236   1      7.1750000000000114      55.965000000000003      41.615000000000016
   237   1        5.74000000000001      54.530000000000008      43.050000000000011
   238   1      7.1750000000000114      55.965000000000003      44.485000000000014
   239   1        5.74000000000001      54.530000000000008      45.920000000000009
   240   1      7.1750000000000114      55.965000000000003      47.355000000000004
   241   1        5.74000000000001      54.530000000000008      48.790000000000013
   242   1      7.1750000000000114      55.965000000000003      50.225000000000009
   243   1        5.74000000000001      54.530000000000008      51.660000000000004
   244   1      7.1750000000000114      55.965000000000003      53.095000000000013
   245   1        5.74000000000001      54.530000000000008      54.530000000000008
   246   1      7.1750000000000114      55.965000000000003      55.965000000000003
   247   1      7.1750000000000114      58.835000000000015      38.745000000000005
   248   1        5.74000000000001      57.400000000000006      40.180000000000014
   249   1      7.1750000000000114      58.835000000000015      41.615000000000016
   250   1        5.74000000000001      57.400000000000006      43.050000000000011
   251   1      7.1750000000000114      58.835000000000015      44.485000000000014
   252   1        5.74000000000001      57.400000000000006      45.920000000000009
   253   1      7.1750000000000114      58.835000000000015      47.355000000000004
   254   1        5.74000000000001      57.400000000000006      48.790000000000013
   255   1      7.1750000000000114      58.835000000000015      50.225000000000009
   256   1        5.74000000000001      57.400000000000006      51.660000000000004
   257   1      7.1750000000000114      58.835000000000015      53.095000000000013
   258   1      7.1750000000000114      61.705000000000005      41.615000000000016
   259   1        5.74000000000001       60.27000000000001      43.050000000000011
   260   1      7.1750000000000114      61.705000000000005      44.485000000000014
   261   1        5.74000000000001       60.27000000000001      45.920000000000009
   262   1      7.1750000000000114      61.705000000000005      47.355000000000004
   263   1        5.74000000000001       60.27000000000001      48.790000000000013
   264   1      7.1750000000000114      61.705000000000005      50.225000000000009
   265   1      7.1750000000000114      64.575000000000003      44.485000000000014
   266   1        5.74000000000001      63.140000000000001      45.920000000000009
   267   1      7.1750000000000114      64.575000000000003      47.355000000000004
   268   1      10.045000000000009      18.655000000000005      44.485000000000014
   269   1      10.045000000000009      18.655000000000005      47.355000000000004
   270   1      10.045000000000009      21.525000000000006      41.615000000000016
   271   1      10.045000000000009      21.525000000000006      44.485000000000014
   272   1      8.6100000000000065      20.090000000000011      45.920000000000009
   273   1      10.045000000000009      21.525000000000006      47.355000000000004
   274   1      10.045000000000009      21.525000000000006      50.225000000000009
   275   1      10.045000000000009      24.395000000000007      38.745000000000005
   276   1      10.045000000000009      24.395000000000007      41.615000000000016
   277   1      8.6100000000000065      22.960000000000012      43.050000000000011
   278   1      10.045000000000009      24.395000000000007      44.485000000000014
   279   1      8.6100000000000065      22.960000000000012      45.920000000000009
   280   1      10.045000000000009      24.395000000000007      47.355000000000004
   281   1      8.6100000000000065      22.960000000000012      48.790000000000013
   282   1      10.045000000000009      24.395000000000007      50.225000000000009
   283   1      10.045000000000009      24.395000000000007      53.095000000000013
   284   1      10.045000000000009      27.265000000000008      35.875000000000007
   285   1      10.045000000000009      27.265000000000008      38.745000000000005
   286   1      8.6100000000000065      25.830000000000009      40.180000000000014
   287   1      10.045000000000009      27.265000000000008      41.615000000000016
   288   1      8.6100000000000065      25.830000000000009      43.050000000000011
   289   1      10.045000000000009      27.265000000000008      44.485000000000014
   290   1      8.6100000000000065      25.830000000000009      45.920000000000009
   291   1      10.045000000000009      27.265000000000008      47.355000000000004
   292   1      8.6100000000000065      25.830000000000009      48.790000000000013
   293   1      10.045000000000009      27.265000000000008      50.225000000000009
   294   1      8.6100000000000065      25.830000000000009      51.660000000000004
   295   1      10.045000000000009      27.265000000000008      53.095000000000013
   296   1      10.045000000000009      27.265000000000008      55.965000000000003
   297   1      10.045000000000009      30.135000000000005       33.00500000000001
   298   1      10.045000000000009      30.135000000000005      35.875000000000007
   299   1      8.6100000000000065       28.70000000000001      37.310000000000002
   300   1      10.045000000000009      30.135000000000005      38.745000000000005
   301   1      8.6100000000000065       28.70000000000001      40.180000000000014
   302   1      10.045000000000009      30.135000000000005      41.615000000000016
   303   1      8.6100000000000065       28.70000000000001      43.050000000000011
   304   1      10.045000000000009      30.135000000000005      44.485000000000014
   305   1      8.6100000000000065       28.70000000000001      45.920000000000009
   306   1      10.045000000000009      30.135000000000005      47.355000000000004
   307   1      8.6100000000000065       28.70000000000001      48.790000000000013
   308   1      10.045000000000009      30.135000000000005      50.225000000000009
   309   1      8.6100000000000065       28.70000000000001      51.660000000000004
   310   1      10.045000000000009      30.135000000000005      53.095000000000013
   311   1      8.6100000000000065       28.70000000000001      54.530000000000008
   312   1      10.045000000000009      30.135000000000005      55.965000000000003
   313   1      10.045000000000009      30.135000000000005      58.835000000000015
   314   1      10.045000000000009       33.00500000000001      30.135000000000005
   315   1      10.045000000000009       33.00500000000001       33.00500000000001
   316   1      8.6100000000000065      31.570000000000011      34.440000000000012
   317   1      10.045000000000009       33.00500000000001      35.875000000000007
   318   1      8.6100000000000065      31.570000000000011      37.310000000000002
   319   1      10.045000000000009       33.00500000000001      38.745000000000005
   320   1      8.6100000000000065      31.570000000000011      40.180000000000014
   321   1      10.045000000000009       33.00500000000001      41.615000000000016
   322   1      8.6100000000000065      31.570000000000011      43.050000000000011
   323   1      10.045000000000009       33.00500000000001      44.485000000000014
   324   1      8.6100000000000065      31.570000000000011      45.920000000000009
   325   1      10.045000000000009       33.00500000000001      47.355000000000004
   326   1      8.6100000000000065      31.570000000000011      48.790000000000013
   327   1      10.045000000000009       33.00500000000001      50.225000000000009
   328   1      8.6100000000000065      31.570000000000011      51.660000000000004
   329   1      10.045000000000009       33.00500000000001      53.095000000000013
   330   1      8.6100000000000065      31.570000000000011      54.530000000000008
   331   1      10.045000000000009       33.00500000000001      55.965000000000003
   332   1      8.6100000000000065      31.570000000000011      57.400000000000006
   333   1      10.045000000000009       33.00500000000001      58.835000000000015
   334   1      10.045000000000009       33.00500000000001      61.705000000000005
   335   1      10.045000000000009      35.875000000000007      27.265000000000008
   336   1      10.045000000000009      35.875000000000007      30.135000000000005
   337   1      8.6100000000000065      34.440000000000012      31.570000000000011
   338   1      10.045000000000009      35.875000000000007       33.00500000000001
   339   1      8.6100000000000065      34.440000000000012      34.440000000000012
   340   1      10.045000000000009      35.875000000000007      35.875000000000007
   341   1      8.6100000000000065      34.440000000000012      37.310000000000002
   342   1      10.045000000000009      35.875000000000007      38.745000000000005
   343   1      8.6100000000000065      34.440000000000012      40.180000000000014
   344   1      10.045000000000009      35.875000000000007      41.615000000000016
   345   1      8.6100000000000065      34.440000000000012      43.050000000000011
   346   1      10.045000000000009      35.875000000000007      44.485000000000014
   347   1      8.6100000000000065      34.440000000000012      45.920000000000009
   348   1      10.045000000000009      35.875000000000007      47.355000000000004
   349   1      8.6100000000000065      34.440000000000012      48.790000000000013
   350   1      10.045000000000009      35.875000000000007      50.225000000000009
   351   1      8.6100000000000065      34.440000000000012      51.660000000000004
   352   1      10.045000000000009      35.875000000000007      53.095000000000013
   353   1      8.6100000000000065      34.440000000000012      54.530000000000008
   354   1      10.045000000000009      35.875000000000007      55.965000000000003
   355   1      8.6100000000000065      34.440000000000012      57.400000000000006
   356   1      10.045000000000009      35.875000000000007      58.835000000000015
   357   1      8.6100000000000065      34.440000000000012       60.27000000000001
   358   1      10.045000000000009      35.875000000000007      61.705000000000005