model_files/PdCu/PdCu_30000/PdCu_530/PdCu_530_fcc_29831_temp.data (written by ASE) 

29831 	 atoms 
2  atom types
0.0                      98  xlo xhi
0.0                      98  ylo yhi
0.0                      98  zlo zhi


Atoms 

     1   1      97.999999999999986      47.187499999999986      47.187499999999986
     2   1      1.8874999999999955       45.29999999999999      47.187499999999986
     3   1      1.8874999999999955      47.187499999999986       45.29999999999999
     4   1      97.999999999999986      47.187499999999986      50.962499999999999
     5   1      1.8874999999999955       45.29999999999999      50.962499999999999
     6   1      1.8874999999999955      47.187499999999986      49.074999999999989
     7   1      1.8874999999999955      47.187499999999986      52.849999999999987
     8   1      97.999999999999986      50.962499999999999      47.187499999999986
     9   1      1.8874999999999955      49.074999999999989      47.187499999999986
    10   1      1.8874999999999955      50.962499999999999       45.29999999999999
    11   1      97.999999999999986      49.074999999999989      49.074999999999989
    12   1      97.999999999999986      50.962499999999999      50.962499999999999
    13   1      1.8874999999999955      49.074999999999989      50.962499999999999
    14   1      1.8874999999999955      50.962499999999999      49.074999999999989
    15   1      1.8874999999999955      50.962499999999999      52.849999999999987
    16   1      1.8874999999999955      52.849999999999987      47.187499999999986
    17   1      1.8874999999999955      52.849999999999987      50.962499999999999
    18   1      5.6624999999999934      37.749999999999993      39.637499999999996
    19   1      5.6624999999999934      39.637499999999996      37.749999999999993
    20   1      5.6624999999999934      37.749999999999993      43.412499999999987
    21   1      5.6624999999999934      39.637499999999996      41.524999999999991
    22   1      5.6624999999999934      37.749999999999993      47.187499999999986
    23   1      5.6624999999999934      39.637499999999996       45.29999999999999
    24   1      5.6624999999999934      37.749999999999993      50.962499999999999
    25   1      5.6624999999999934      39.637499999999996      49.074999999999989
    26   1      5.6624999999999934      37.749999999999993      54.737499999999997
    27   1      5.6624999999999934      39.637499999999996      52.849999999999987
    28   1      5.6624999999999934      37.749999999999993      58.512499999999996
    29   1      5.6624999999999934      39.637499999999996      56.624999999999986
    30   1      5.6624999999999934      39.637499999999996      60.399999999999984
    31   1      5.6624999999999934      41.524999999999991      39.637499999999996
    32   1      5.6624999999999934      43.412499999999987      37.749999999999993
    33   1       3.774999999999991      41.524999999999991      41.524999999999991
    34   1       3.774999999999991      43.412499999999987      43.412499999999987
    35   1      5.6624999999999934      41.524999999999991      43.412499999999987
    36   1      5.6624999999999934      43.412499999999987      41.524999999999991
    37   1       3.774999999999991      41.524999999999991       45.29999999999999
    38   1       3.774999999999991      43.412499999999987      47.187499999999986
    39   1      5.6624999999999934      41.524999999999991      47.187499999999986
    40   1      5.6624999999999934      43.412499999999987       45.29999999999999
    41   1       3.774999999999991      41.524999999999991      49.074999999999989
    42   1       3.774999999999991      43.412499999999987      50.962499999999999
    43   1      5.6624999999999934      41.524999999999991      50.962499999999999
    44   1      5.6624999999999934      43.412499999999987      49.074999999999989
    45   1       3.774999999999991      41.524999999999991      52.849999999999987
    46   1       3.774999999999991      43.412499999999987      54.737499999999997
    47   1      5.6624999999999934      41.524999999999991      54.737499999999997
    48   1      5.6624999999999934      43.412499999999987      52.849999999999987
    49   1       3.774999999999991      41.524999999999991      56.624999999999986
    50   1      5.6624999999999934      41.524999999999991      58.512499999999996
    51   1      5.6624999999999934      43.412499999999987      56.624999999999986
    52   1      5.6624999999999934      43.412499999999987      60.399999999999984
    53   1      5.6624999999999934       45.29999999999999      39.637499999999996
    54   1      5.6624999999999934      47.187499999999986      37.749999999999993
    55   1       3.774999999999991       45.29999999999999      41.524999999999991
    56   1       3.774999999999991      47.187499999999986      43.412499999999987
    57   1      5.6624999999999934       45.29999999999999      43.412499999999987
    58   1      5.6624999999999934      47.187499999999986      41.524999999999991
    59   1       3.774999999999991       45.29999999999999       45.29999999999999
    60   1       3.774999999999991      47.187499999999986      47.187499999999986
    61   1      5.6624999999999934       45.29999999999999      47.187499999999986
    62   1      5.6624999999999934      47.187499999999986       45.29999999999999
    63   1       3.774999999999991       45.29999999999999      49.074999999999989
    64   1       3.774999999999991      47.187499999999986      50.962499999999999
    65   1      5.6624999999999934       45.29999999999999      50.962499999999999
    66   1      5.6624999999999934      47.187499999999986      49.074999999999989
    67   1       3.774999999999991       45.29999999999999      52.849999999999987
    68   1       3.774999999999991      47.187499999999986      54.737499999999997
    69   1      5.6624999999999934       45.29999999999999      54.737499999999997
    70   1      5.6624999999999934      47.187499999999986      52.849999999999987
    71   1       3.774999999999991       45.29999999999999      56.624999999999986
    72   1      5.6624999999999934       45.29999999999999      58.512499999999996
    73   1      5.6624999999999934      47.187499999999986      56.624999999999986
    74   1      5.6624999999999934      47.187499999999986      60.399999999999984
    75   1      5.6624999999999934      49.074999999999989      39.637499999999996
    76   1      5.6624999999999934      50.962499999999999      37.749999999999993
    77   1       3.774999999999991      49.074999999999989      41.524999999999991
    78   1       3.774999999999991      50.962499999999999      43.412499999999987
    79   1      5.6624999999999934      49.074999999999989      43.412499999999987
    80   1      5.6624999999999934      50.962499999999999      41.524999999999991
    81   1       3.774999999999991      49.074999999999989       45.29999999999999
    82   1       3.774999999999991      50.962499999999999      47.187499999999986
    83   1      5.6624999999999934      49.074999999999989      47.187499999999986
    84   1      5.6624999999999934      50.962499999999999       45.29999999999999
    85   1       3.774999999999991      49.074999999999989      49.074999999999989
    86   1       3.774999999999991      50.962499999999999      50.962499999999999
    87   1      5.6624999999999934      49.074999999999989      50.962499999999999
    88   1      5.6624999999999934      50.962499999999999      49.074999999999989
    89   1       3.774999999999991      49.074999999999989      52.849999999999987
    90   1       3.774999999999991      50.962499999999999      54.737499999999997
    91   1      5.6624999999999934      49.074999999999989      54.737499999999997
    92   1      5.6624999999999934      50.962499999999999      52.849999999999987
    93   1       3.774999999999991      49.074999999999989      56.624999999999986
    94   1      5.6624999999999934      49.074999999999989      58.512499999999996
    95   1      5.6624999999999934      50.962499999999999      56.624999999999986
    96   1      5.6624999999999934      50.962499999999999      60.399999999999984
    97   1      5.6624999999999934      52.849999999999987      39.637499999999996
    98   1      5.6624999999999934      54.737499999999997      37.749999999999993
    99   1       3.774999999999991      52.849999999999987      41.524999999999991
   100   1       3.774999999999991      54.737499999999997      43.412499999999987
   101   1      5.6624999999999934      52.849999999999987      43.412499999999987
   102   1      5.6624999999999934      54.737499999999997      41.524999999999991
   103   1       3.774999999999991      52.849999999999987       45.29999999999999
   104   1       3.774999999999991      54.737499999999997      47.187499999999986
   105   1      5.6624999999999934      52.849999999999987      47.187499999999986
   106   1      5.6624999999999934      54.737499999999997       45.29999999999999
   107   1       3.774999999999991      52.849999999999987      49.074999999999989
   108   1       3.774999999999991      54.737499999999997      50.962499999999999
   109   1      5.6624999999999934      52.849999999999987      50.962499999999999
   110   1      5.6624999999999934      54.737499999999997      49.074999999999989
   111   1       3.774999999999991      52.849999999999987      52.849999999999987
   112   1       3.774999999999991      54.737499999999997      54.737499999999997
   113   1      5.6624999999999934      52.849999999999987      54.737499999999997
   114   1      5.6624999999999934      54.737499999999997      52.849999999999987
   115   1       3.774999999999991      52.849999999999987      56.624999999999986
   116   1      5.6624999999999934      52.849999999999987      58.512499999999996
   117   1      5.6624999999999934      54.737499999999997      56.624999999999986
   118   1      5.6624999999999934      54.737499999999997      60.399999999999984
   119   1      5.6624999999999934      56.624999999999986      39.637499999999996
   120   1      5.6624999999999934      58.512499999999996      37.749999999999993
   121   1       3.774999999999991      56.624999999999986      41.524999999999991
   122   1      5.6624999999999934      56.624999999999986      43.412499999999987
   123   1      5.6624999999999934      58.512499999999996      41.524999999999991
   124   1       3.774999999999991      56.624999999999986       45.29999999999999
   125   1      5.6624999999999934      56.624999999999986      47.187499999999986
   126   1      5.6624999999999934      58.512499999999996       45.29999999999999
   127   1       3.774999999999991      56.624999999999986      49.074999999999989
   128   1      5.6624999999999934      56.624999999999986      50.962499999999999
   129   1      5.6624999999999934      58.512499999999996      49.074999999999989
   130   1       3.774999999999991      56.624999999999986      52.849999999999987
   131   1      5.6624999999999934      56.624999999999986      54.737499999999997
   132   1      5.6624999999999934      58.512499999999996      52.849999999999987
   133   1       3.774999999999991      56.624999999999986      56.624999999999986
   134   1      5.6624999999999934      56.624999999999986      58.512499999999996
   135   1      5.6624999999999934      58.512499999999996      56.624999999999986
   136   1      5.6624999999999934      58.512499999999996      60.399999999999984
   137   1      5.6624999999999934      60.399999999999984      39.637499999999996
   138   1      5.6624999999999934      60.399999999999984      43.412499999999987
   139   1      5.6624999999999934      60.399999999999984      47.187499999999986
   140   1      5.6624999999999934      60.399999999999984      50.962499999999999
   141   1      5.6624999999999934      60.399999999999984      54.737499999999997
   142   1      5.6624999999999934      60.399999999999984      58.512499999999996
   143   1      9.4374999999999929      32.087499999999999      33.974999999999994
   144   1      9.4374999999999929      32.087499999999999      37.749999999999993
   145   1      9.4374999999999929      32.087499999999999      41.524999999999991
   146   1      9.4374999999999929      32.087499999999999       45.29999999999999
   147   1      9.4374999999999929      32.087499999999999      49.074999999999989
   148   1      9.4374999999999929      32.087499999999999      52.849999999999987
   149   1      9.4374999999999929      32.087499999999999      56.624999999999986
   150   1      9.4374999999999929      32.087499999999999      60.399999999999984
   151   1      9.4374999999999929      32.087499999999999      64.174999999999997
   152   1      9.4374999999999929      33.974999999999994      32.087499999999999
   153   1      7.5499999999999901      35.862499999999997      35.862499999999997
   154   1      9.4374999999999929      33.974999999999994      35.862499999999997
   155   1      9.4374999999999929      35.862499999999997      33.974999999999994
   156   1      7.5499999999999901      35.862499999999997      39.637499999999996
   157   1      9.4374999999999929      33.974999999999994      39.637499999999996
   158   1      9.4374999999999929      35.862499999999997      37.749999999999993
   159   1      7.5499999999999901      35.862499999999997      43.412499999999987
   160   1      9.4374999999999929      33.974999999999994      43.412499999999987
   161   1      9.4374999999999929      35.862499999999997      41.524999999999991
   162   1      7.5499999999999901      35.862499999999997      47.187499999999986
   163   1      9.4374999999999929      33.974999999999994      47.187499999999986
   164   1      9.4374999999999929      35.862499999999997       45.29999999999999
   165   1      7.5499999999999901      35.862499999999997      50.962499999999999
   166   1      9.4374999999999929      33.974999999999994      50.962499999999999
   167   1      9.4374999999999929      35.862499999999997      49.074999999999989
   168   1      7.5499999999999901      35.862499999999997      54.737499999999997
   169   1      9.4374999999999929      33.974999999999994      54.737499999999997
   170   1      9.4374999999999929      35.862499999999997      52.849999999999987
   171   1      7.5499999999999901      35.862499999999997      58.512499999999996
   172   1      9.4374999999999929      33.974999999999994      58.512499999999996
   173   1      9.4374999999999929      35.862499999999997      56.624999999999986
   174   1      7.5499999999999901      35.862499999999997      62.287499999999994
   175   1      9.4374999999999929      33.974999999999994      62.287499999999994
   176   1      9.4374999999999929      35.862499999999997      60.399999999999984
   177   1      9.4374999999999929      33.974999999999994                 66.0625
   178   1      9.4374999999999929      35.862499999999997      64.174999999999997
   179   1      9.4374999999999929      37.749999999999993      32.087499999999999
   180   1      7.5499999999999901      39.637499999999996      35.862499999999997
   181   1      9.4374999999999929      37.749999999999993      35.862499999999997
   182   1      9.4374999999999929      39.637499999999996      33.974999999999994
   183   1      7.5499999999999901      37.749999999999993      37.749999999999993
   184   1      7.5499999999999901      39.637499999999996      39.637499999999996
   185   1      9.4374999999999929      37.749999999999993      39.637499999999996
   186   1      9.4374999999999929      39.637499999999996      37.749999999999993
   187   1      7.5499999999999901      37.749999999999993      41.524999999999991
   188   1      7.5499999999999901      39.637499999999996      43.412499999999987
   189   1      9.4374999999999929      37.749999999999993      43.412499999999987
   190   1      9.4374999999999929      39.637499999999996      41.524999999999991
   191   1      7.5499999999999901      37.749999999999993       45.29999999999999
   192   1      7.5499999999999901      39.637499999999996      47.187499999999986
   193   1      9.4374999999999929      37.749999999999993      47.187499999999986
   194   1      9.4374999999999929      39.637499999999996       45.29999999999999
   195   1      7.5499999999999901      37.749999999999993      49.074999999999989
   196   1      7.5499999999999901      39.637499999999996      50.962499999999999
   197   1      9.4374999999999929      37.749999999999993      50.962499999999999
   198   1      9.4374999999999929      39.637499999999996      49.074999999999989
   199   1      7.5499999999999901      37.749999999999993      52.849999999999987
   200   1      7.5499999999999901      39.637499999999996      54.737499999999997
   201   1      9.4374999999999929      37.749999999999993      54.737499999999997
   202   1      9.4374999999999929      39.637499999999996      52.849999999999987
   203   1      7.5499999999999901      37.749999999999993      56.624999999999986
   204   1      7.5499999999999901      39.637499999999996      58.512499999999996
   205   1      9.4374999999999929      37.749999999999993      58.512499999999996
   206   1      9.4374999999999929      39.637499999999996      56.624999999999986
   207   1      7.5499999999999901      37.749999999999993      60.399999999999984
   208   1      7.5499999999999901      39.637499999999996      62.287499999999994
   209   1      9.4374999999999929      37.749999999999993      62.287499999999994
   210   1      9.4374999999999929      39.637499999999996      60.399999999999984
   211   1      9.4374999999999929      37.749999999999993                 66.0625
   212   1      9.4374999999999929      39.637499999999996      64.174999999999997
   213   1      9.4374999999999929      41.524999999999991      32.087499999999999
   214   1      7.5499999999999901      43.412499999999987      35.862499999999997
   215   1      9.4374999999999929      41.524999999999991      35.862499999999997
   216   1      9.4374999999999929      43.412499999999987      33.974999999999994
   217   1      7.5499999999999901      41.524999999999991      37.749999999999993
   218   1      7.5499999999999901      43.412499999999987      39.637499999999996
   219   1      9.4374999999999929      41.524999999999991      39.637499999999996
   220   1      9.4374999999999929      43.412499999999987      37.749999999999993
   221   1      7.5499999999999901      41.524999999999991      41.524999999999991
   222   1      7.5499999999999901      43.412499999999987      43.412499999999987
   223   1      9.4374999999999929      41.524999999999991      43.412499999999987
   224   1      9.4374999999999929      43.412499999999987      41.524999999999991
   225   1      7.5499999999999901      41.524999999999991       45.29999999999999
   226   1      7.5499999999999901      43.412499999999987      47.187499999999986
   227   1      9.4374999999999929      41.524999999999991      47.187499999999986
   228   1      9.4374999999999929      43.412499999999987       45.29999999999999
   229   1      7.5499999999999901      41.524999999999991      49.074999999999989
   230   1      7.5499999999999901      43.412499999999987      50.962499999999999
   231   1      9.4374999999999929      41.524999999999991      50.962499999999999
   232   1      9.4374999999999929      43.412499999999987      49.074999999999989
   233   1      7.5499999999999901      41.524999999999991      52.849999999999987
   234   1      7.5499999999999901      43.412499999999987      54.737499999999997
   235   1      9.4374999999999929      41.524999999999991      54.737499999999997
   236   1      9.4374999999999929      43.412499999999987      52.849999999999987
   237   1      7.5499999999999901      41.524999999999991      56.624999999999986
   238   1      7.5499999999999901      43.412499999999987      58.512499999999996
   239   1      9.4374999999999929      41.524999999999991      58.512499999999996
   240   1      9.4374999999999929      43.412499999999987      56.624999999999986
   241   1      7.5499999999999901      41.524999999999991      60.399999999999984
   242   1      7.5499999999999901      43.412499999999987      62.287499999999994
   243   1      9.4374999999999929      41.524999999999991      62.287499999999994
   244   1      9.4374999999999929      43.412499999999987      60.399999999999984
   245   1      9.4374999999999929      41.524999999999991                 66.0625
   246   1      9.4374999999999929      43.412499999999987      64.174999999999997
   247   1      9.4374999999999929       45.29999999999999      32.087499999999999
   248   1      7.5499999999999901      47.187499999999986      35.862499999999997
   249   1      9.4374999999999929       45.29999999999999      35.862499999999997
   250   1      9.4374999999999929      47.187499999999986      33.974999999999994
   251   1      7.5499999999999901       45.29999999999999      37.749999999999993
   252   1      7.5499999999999901      47.187499999999986      39.637499999999996
   253   1      9.4374999999999929       45.29999999999999      39.637499999999996
   254   1      9.4374999999999929      47.187499999999986      37.749999999999993
   255   1      7.5499999999999901       45.29999999999999      41.524999999999991
   256   1      7.5499999999999901      47.187499999999986      43.412499999999987
   257   1      9.4374999999999929       45.29999999999999      43.412499999999987
   258   1      9.4374999999999929      47.187499999999986      41.524999999999991
   259   1      7.5499999999999901       45.29999999999999       45.29999999999999
   260   1      7.5499999999999901      47.187499999999986      47.187499999999986
   261   1      9.4374999999999929       45.29999999999999      47.187499999999986
   262   1      9.4374999999999929      47.187499999999986       45.29999999999999
   263   1      7.5499999999999901       45.29999999999999      49.074999999999989
   264   1      7.5499999999999901      47.187499999999986      50.962499999999999
   265   1      9.4374999999999929       45.29999999999999      50.962499999999999
   266   1      9.4374999999999929      47.187499999999986      49.074999999999989
   267   1      7.5499999999999901       45.29999999999999      52.849999999999987
   268   1      7.5499999999999901      47.187499999999986      54.737499999999997
   269   1      9.4374999999999929       45.29999999999999      54.737499999999997
   270   1      9.4374999999999929      47.187499999999986      52.849999999999987
   271   1      7.5499999999999901       45.29999999999999      56.624999999999986
   272   1      7.5499999999999901      47.187499999999986      58.512499999999996
   273   1      9.4374999999999929       45.29999999999999      58.512499999999996
   274   1      9.4374999999999929      47.187499999999986      56.624999999999986
   275   1      7.5499999999999901       45.29999999999999      60.399999999999984
   276   1      7.5499999999999901      47.187499999999986      62.287499999999994
   277   1      9.4374999999999929       45.29999999999999      62.287499999999994
   278   1      9.4374999999999929      47.187499999999986      60.399999999999984
   279   1      9.4374999999999929       45.29999999999999                 66.0625
   280   1      9.4374999999999929      47.187499999999986      64.174999999999997
   281   1      9.4374999999999929      49.074999999999989      32.087499999999999
   282   1      7.5499999999999901      50.962499999999999      35.862499999999997
   283   1      9.4374999999999929      49.074999999999989      35.862499999999997
   284   1      9.4374999999999929      50.962499999999999      33.974999999999994
   285   1      7.5499999999999901      49.074999999999989      37.749999999999993
   286   1      7.5499999999999901      50.962499999999999      39.637499999999996
   287   1      9.4374999999999929      49.074999999999989      39.637499999999996
   288   1      9.4374999999999929      50.962499999999999      37.749999999999993
   289   1      7.5499999999999901      49.074999999999989      41.524999999999991
   290   1      7.5499999999999901      50.962499999999999      43.412499999999987
   291   1      9.4374999999999929      49.074999999999989      43.412499999999987
   292   1      9.4374999999999929      50.962499999999999      41.524999999999991
   293   1      7.5499999999999901      49.074999999999989       45.29999999999999
   294   1      7.5499999999999901      50.962499999999999      47.187499999999986
   295   1      9.4374999999999929      49.074999999999989      47.187499999999986
   296   1      9.4374999999999929      50.962499999999999       45.29999999999999
   297   1      7.5499999999999901      49.074999999999989      49.074999999999989
   298   1      7.5499999999999901      50.962499999999999      50.962499999999999
   299   1      9.4374999999999929      49.074999999999989      50.962499999999999
   300   1      9.4374999999999929      50.962499999999999      49.074999999999989
   301   1      7.5499999999999901      49.074999999999989      52.849999999999987
   302   1      7.5499999999999901      50.962499999999999      54.737499999999997
   303   1      9.4374999999999929      49.074999999999989      54.737499999999997
   304   1      9.4374999999999929      50.962499999999999      52.849999999999987
   305   1      7.5499999999999901      49.074999999999989      56.624999999999986
   306   1      7.5499999999999901      50.962499999999999      58.512499999999996
   307   1      9.4374999999999929      49.074999999999989      58.512499999999996
   308   1      9.4374999999999929      50.962499999999999      56.624999999999986
   309   1      7.5499999999999901      49.074999999999989      60.399999999999984
   310   1      7.5499999999999901      50.962499999999999      62.287499999999994
   311   1      9.4374999999999929      49.074999999999989      62.287499999999994
   312   1      9.4374999999999929      50.962499999999999      60.399999999999984
   313   1      9.4374999999999929      49.074999999999989                 66.0625
   314   1      9.4374999999999929      50.962499999999999      64.174999999999997
   315   1      9.4374999999999929      52.849999999999987      32.087499999999999
   316   1      7.5499999999999901      54.737499999999997      35.862499999999997
   317   1      9.4374999999999929      52.849999999999987      35.862499999999997
   318   1      9.4374999999999929      54.737499999999997      33.974999999999994
   319   1      7.5499999999999901      52.849999999999987      37.749999999999993
   320   1      7.5499999999999901      54.737499999999997      39.637499999999996
   321   1      9.4374999999999929      52.849999999999987      39.637499999999996
   322   1      9.4374999999999929      54.737499999999997      37.749999999999993
   323   1      7.5499999999999901      52.849999999999987      41.524999999999991
   324   1      7.5499999999999901      54.737499999999997      43.412499999999987
   325   1      9.4374999999999929      52.849999999999987      43.412499999999987
   326   1      9.4374999999999929      54.737499999999997      41.524999999999991
   327   1      7.5499999999999901      52.849999999999987       45.29999999999999
   328   1      7.5499999999999901      54.737499999999997      47.187499999999986
   329   1      9.4374999999999929      52.849999999999987      47.187499999999986
   330   1      9.4374999999999929      54.737499999999997       45.29999999999999
   331   1      7.5499999999999901      52.849999999999987      49.074999999999989
   332   1      7.5499999999999901      54.737499999999997      50.962499999999999
   333   1      9.4374999999999929      52.849999999999987      50.962499999999999
   334   1      9.4374999999999929      54.737499999999997      49.074999999999989
   335   1      7.5499999999999901      52.849999999999987      52.849999999999987
   336   1      7.5499999999999901      54.737499999999997      54.737499999999997
   337   1      9.4374999999999929      52.849999999999987      54.737499999999997
   338   1      9.4374999999999929      54.737499999999997      52.849999999999987
   339   1      7.5499999999999901      52.849999999999987      56.624999999999986
   340   1      7.5499999999999901      54.737499999999997      58.512499999999996
   341   1      9.4374999999999929      52.849999999999987      58.512499999999996
   342   1      9.4374999999999929      54.737499999999997      56.624999999999986
   343   1      7.5499999999999901      52.849999999999987      60.399999999999984
   344   1      7.5499999999999901      54.737499999999997      62.287499999999994
   345   1      9.4374999999999929      52.849999999999987      62.287499999999994
   346   1      9.4374999999999929      54.737499999999997      60.399999999999984
   347   1      9.4374999999999929      52.849999999999987                 66.0625
   348   1      9.4374999999999929      54.737499999999997      64.174999999999997
   349   1      9.4374999999999929      56.624999999999986      32.087499999999999
   350   1      7.5499999999999901      58.512499999999996      35.862499999999997
   351   1      9.4374999999999929      56.624999999999986      35.862499999999997
   352   1      9.4374999999999929      58.512499999999996      33.974999999999994
   353   1      7.5499999999999901      56.624999999999986      37.749999999999993
   354   1      7.5499999999999901      58.512499999999996      39.637499999999996
   355   1      9.4374999999999929      56.624999999999986      39.637499999999996
   356   1      9.4374999999999929      58.512499999999996      37.749999999999993
   357   1      7.5499999999999901      56.624999999999986      41.524999999999991
   358   1      7.5499999999999901      58.512499999999996      43.412499999999987