LAMMPS data file via write_data, version 30 Nov 2020, timestep = 0

29765 atoms
5 atom types

0 100 xlo xhi
0 100 ylo yhi
0 100 zlo zhi

Masses

1 58.69
2 58.933
3 51.96
4 55.847
5 54.94

Atoms # atomic

1 2 0 48.532500000000006 48.532500000000006 0 0 0
2 5 1.7974999999999994 46.73500000000001 48.532500000000006 0 0 0
3 4 1.7974999999999994 48.532500000000006 46.73500000000001 0 0 0
18 3 3.594999999999999 44.9375 44.9375 0 0 0
19 4 5.392500000000005 43.14 44.9375 0 0 0
20 1 5.392500000000005 44.9375 43.14 0 0 0
21 5 3.594999999999999 44.9375 48.532500000000006 0 0 0
22 5 5.392500000000005 43.14 48.532500000000006 0 0 0
23 3 5.392500000000005 44.9375 46.73500000000001 0 0 0
31 1 3.594999999999999 48.532500000000006 44.9375 0 0 0
32 5 5.392500000000005 46.73500000000001 44.9375 0 0 0
33 2 5.392500000000005 48.532500000000006 43.14 0 0 0
34 4 3.594999999999999 46.73500000000001 46.73500000000001 0 0 0
35 4 3.594999999999999 48.532500000000006 48.532500000000006 0 0 0
36 3 5.392500000000005 46.73500000000001 48.532500000000006 0 0 0
37 2 5.392500000000005 48.532500000000006 46.73500000000001 0 0 0
83 3 8.987500000000004 37.7475 39.545 0 0 0
84 2 8.987500000000004 37.7475 43.14 0 0 0
85 5 8.987500000000004 37.7475 46.73500000000001 0 0 0
90 5 8.987500000000004 39.545 37.7475 0 0 0
91 2 7.190000000000005 39.545 39.545 0 0 0
92 1 7.190000000000005 41.3425 41.3425 0 0 0
93 4 8.987500000000004 39.545 41.3425 0 0 0
94 4 8.987500000000004 41.3425 39.545 0 0 0
95 4 7.190000000000005 39.545 43.14 0 0 0
96 1 7.190000000000005 41.3425 44.9375 0 0 0
97 4 8.987500000000004 39.545 44.9375 0 0 0
98 4 8.987500000000004 41.3425 43.14 0 0 0
99 1 7.190000000000005 39.545 46.73500000000001 0 0 0
100 5 7.190000000000005 41.3425 48.532500000000006 0 0 0
101 1 8.987500000000004 39.545 48.532500000000006 0 0 0
102 1 8.987500000000004 41.3425 46.73500000000001 0 0 0
118 3 8.987500000000004 43.14 37.7475 0 0 0
119 2 7.190000000000005 43.14 39.545 0 0 0
120 5 7.190000000000005 44.9375 41.3425 0 0 0
121 5 8.987500000000004 43.14 41.3425 0 0 0
122 2 8.987500000000004 44.9375 39.545 0 0 0
123 2 7.190000000000005 43.14 43.14 0 0 0
124 4 7.190000000000005 44.9375 44.9375 0 0 0
125 2 8.987500000000004 43.14 44.9375 0 0 0
126 1 8.987500000000004 44.9375 43.14 0 0 0
127 3 7.190000000000005 43.14 46.73500000000001 0 0 0
128 4 7.190000000000005 44.9375 48.532500000000006 0 0 0
129 5 8.987500000000004 43.14 48.532500000000006 0 0 0
130 5 8.987500000000004 44.9375 46.73500000000001 0 0 0
146 4 8.987500000000004 46.73500000000001 37.7475 0 0 0
147 3 7.190000000000005 46.73500000000001 39.545 0 0 0
148 1 7.190000000000005 48.532500000000006 41.3425 0 0 0
149 1 8.987500000000004 46.73500000000001 41.3425 0 0 0
150 4 8.987500000000004 48.532500000000006 39.545 0 0 0
151 3 7.190000000000005 46.73500000000001 43.14 0 0 0
152 4 7.190000000000005 48.532500000000006 44.9375 0 0 0
153 1 8.987500000000004 46.73500000000001 44.9375 0 0 0
154 4 8.987500000000004 48.532500000000006 43.14 0 0 0
155 5 7.190000000000005 46.73500000000001 46.73500000000001 0 0 0
156 1 7.190000000000005 48.532500000000006 48.532500000000006 0 0 0
157 4 8.987500000000004 46.73500000000001 48.532500000000006 0 0 0
158 3 8.987500000000004 48.532500000000006 46.73500000000001 0 0 0
280 3 12.582500000000001 34.1525 35.95 0 0 0
281 1 12.582500000000001 34.1525 39.545 0 0 0
282 4 12.582500000000001 34.1525 43.14 0 0 0
283 4 12.582500000000001 34.1525 46.73500000000001 0 0 0
289 1 12.582500000000001 35.95 34.1525 0 0 0
290 3 10.785000000000004 35.95 35.95 0 0 0
291 2 10.785000000000004 37.7475 37.7475 0 0 0
292 3 12.582500000000001 35.95 37.7475 0 0 0
293 3 12.582500000000001 37.7475 35.95 0 0 0
294 4 10.785000000000004 35.95 39.545 0 0 0
295 4 10.785000000000004 37.7475 41.3425 0 0 0
296 3 12.582500000000001 35.95 41.3425 0 0 0
297 5 12.582500000000001 37.7475 39.545 0 0 0
298 5 10.785000000000004 35.95 43.14 0 0 0
299 2 10.785000000000004 37.7475 44.9375 0 0 0
300 4 12.582500000000001 35.95 44.9375 0 0 0
301 3 12.582500000000001 37.7475 43.14 0 0 0
302 2 10.785000000000004 35.95 46.73500000000001 0 0 0
303 3 10.785000000000004 37.7475 48.532500000000006 0 0 0
304 1 12.582500000000001 35.95 48.532500000000006 0 0 0
305 2 12.582500000000001 37.7475 46.73500000000001 0 0 0
325 1 12.582500000000001 39.545 34.1525 0 0 0
326 5 10.785000000000004 39.545 35.95 0 0 0
327 2 10.785000000000004 41.3425 37.7475 0 0 0
328 4 12.582500000000001 39.545 37.7475 0 0 0
329 4 12.582500000000001 41.3425 35.95 0 0 0
330 5 10.785000000000004 39.545 39.545 0 0 0
331 5 10.785000000000004 41.3425 41.3425 0 0 0
332 5 12.582500000000001 39.545 41.3425 0 0 0
333 4 12.582500000000001 41.3425 39.545 0 0 0
334 4 10.785000000000004 39.545 43.14 0 0 0
335 5 10.785000000000004 41.3425 44.9375 0 0 0
336 2 12.582500000000001 39.545 44.9375 0 0 0
337 2 12.582500000000001 41.3425 43.14 0 0 0
338 3 10.785000000000004 39.545 46.73500000000001 0 0 0
339 2 10.785000000000004 41.3425 48.532500000000006 0 0 0
340 1 12.582500000000001 39.545 48.532500000000006 0 0 0
341 5 12.582500000000001 41.3425 46.73500000000001 0 0 0
361 4 12.582500000000001 43.14 34.1525 0 0 0
362 5 10.785000000000004 43.14 35.95 0 0 0
363 5 10.785000000000004 44.9375 37.7475 0 0 0
364 1 12.582500000000001 43.14 37.7475 0 0 0
365 1 12.582500000000001 44.9375 35.95 0 0 0
366 4 10.785000000000004 43.14 39.545 0 0 0
367 4 10.785000000000004 44.9375 41.3425 0 0 0
368 2 12.582500000000001 43.14 41.3425 0 0 0
369 1 12.582500000000001 44.9375 39.545 0 0 0
370 4 10.785000000000004 43.14 43.14 0 0 0
371 2 10.785000000000004 44.9375 44.9375 0 0 0
372 4 12.582500000000001 43.14 44.9375 0 0 0
373 4 12.582500000000001 44.9375 43.14 0 0 0
374 4 10.785000000000004 43.14 46.73500000000001 0 0 0
375 5 10.785000000000004 44.9375 48.532500000000006 0 0 0
376 4 12.582500000000001 43.14 48.532500000000006 0 0 0
377 1 12.582500000000001 44.9375 46.73500000000001 0 0 0
397 1 12.582500000000001 46.73500000000001 34.1525 0 0 0
398 5 10.785000000000004 46.73500000000001 35.95 0 0 0
399 3 10.785000000000004 48.532500000000006 37.7475 0 0 0
400 2 12.582500000000001 46.73500000000001 37.7475 0 0 0
401 5 12.582500000000001 48.532500000000006 35.95 0 0 0
402 2 10.785000000000004 46.73500000000001 39.545 0 0 0
403 2 10.785000000000004 48.532500000000006 41.3425 0 0 0
404 1 12.582500000000001 46.73500000000001 41.3425 0 0 0
405 1 12.582500000000001 48.532500000000006 39.545 0 0 0
406 1 10.785000000000004 46.73500000000001 43.14 0 0 0
407 3 10.785000000000004 48.532500000000006 44.9375 0 0 0
408 2 12.582500000000001 46.73500000000001 44.9375 0 0 0
409 5 12.582500000000001 48.532500000000006 43.14 0 0 0
410 4 10.785000000000004 46.73500000000001 46.73500000000001 0 0 0
411 5 10.785000000000004 48.532500000000006 48.532500000000006 0 0 0
412 3 12.582500000000001 46.73500000000001 48.532500000000006 0 0 0
413 3 12.582500000000001 48.532500000000006 46.73500000000001 0 0 0
605 4 14.380000000000004 30.557500000000005 30.557500000000005 0 0 0
606 1 16.177500000000002 28.76000000000001 30.557500000000005 0 0 0
607 4 16.177500000000002 30.557500000000005 28.76000000000001 0 0 0
608 4 14.380000000000004 30.557500000000005 34.1525 0 0 0
609 2 16.177500000000002 28.76000000000001 34.1525 0 0 0
610 4 16.177500000000002 30.557500000000005 32.355000000000004 0 0 0
611 1 14.380000000000004 30.557500000000005 37.7475 0 0 0
612 1 16.177500000000002 28.76000000000001 37.7475 0 0 0
613 2 16.177500000000002 30.557500000000005 35.95 0 0 0
614 5 14.380000000000004 30.557500000000005 41.3425 0 0 0
615 5 16.177500000000002 28.76000000000001 41.3425 0 0 0
616 1 16.177500000000002 30.557500000000005 39.545 0 0 0
617 2 14.380000000000004 30.557500000000005 44.9375 0 0 0
618 5 16.177500000000002 28.76000000000001 44.9375 0 0 0
619 1 16.177500000000002 30.557500000000005 43.14 0 0 0
620 2 14.380000000000004 30.557500000000005 48.532500000000006 0 0 0
621 3 16.177500000000002 28.76000000000001 48.532500000000006 0 0 0
622 3 16.177500000000002 30.557500000000005 46.73500000000001 0 0 0
642 4 14.380000000000004 34.1525 30.557500000000005 0 0 0
643 2 16.177500000000002 32.355000000000004 30.557500000000005 0 0 0
644 1 16.177500000000002 34.1525 28.76000000000001 0 0 0
645 4 14.380000000000004 32.355000000000004 32.355000000000004 0 0 0
646 2 14.380000000000004 34.1525 34.1525 0 0 0
647 3 16.177500000000002 32.355000000000004 34.1525 0 0 0
648 5 16.177500000000002 34.1525 32.355000000000004 0 0 0
649 3 14.380000000000004 32.355000000000004 35.95 0 0 0
650 5 14.380000000000004 34.1525 37.7475 0 0 0
651 5 16.177500000000002 32.355000000000004 37.7475 0 0 0
652 4 16.177500000000002 34.1525 35.95 0 0 0
653 4 14.380000000000004 32.355000000000004 39.545 0 0 0
654 1 14.380000000000004 34.1525 41.3425 0 0 0
655 5 16.177500000000002 32.355000000000004 41.3425 0 0 0
656 1 16.177500000000002 34.1525 39.545 0 0 0
657 2 14.380000000000004 32.355000000000004 43.14 0 0 0
658 1 14.380000000000004 34.1525 44.9375 0 0 0
659 1 16.177500000000002 32.355000000000004 44.9375 0 0 0
660 3 16.177500000000002 34.1525 43.14 0 0 0
661 4 14.380000000000004 32.355000000000004 46.73500000000001 0 0 0
662 2 14.380000000000004 34.1525 48.532500000000006 0 0 0
663 4 16.177500000000002 32.355000000000004 48.532500000000006 0 0 0
664 5 16.177500000000002 34.1525 46.73500000000001 0 0 0
690 1 14.380000000000004 37.7475 30.557500000000005 0 0 0
691 1 16.177500000000002 35.95 30.557500000000005 0 0 0
692 2 16.177500000000002 37.7475 28.76000000000001 0 0 0
693 3 14.380000000000004 35.95 32.355000000000004 0 0 0
694 2 14.380000000000004 37.7475 34.1525 0 0 0
695 2 16.177500000000002 35.95 34.1525 0 0 0
696 4 16.177500000000002 37.7475 32.355000000000004 0 0 0
697 3 14.380000000000004 35.95 35.95 0 0 0
698 5 14.380000000000004 37.7475 37.7475 0 0 0
699 4 16.177500000000002 35.95 37.7475 0 0 0
700 2 16.177500000000002 37.7475 35.95 0 0 0
701 4 14.380000000000004 35.95 39.545 0 0 0
702 2 14.380000000000004 37.7475 41.3425 0 0 0
703 2 16.177500000000002 35.95 41.3425 0 0 0
704 4 16.177500000000002 37.7475 39.545 0 0 0
705 1 14.380000000000004 35.95 43.14 0 0 0
706 2 14.380000000000004 37.7475 44.9375 0 0 0
707 4 16.177500000000002 35.95 44.9375 0 0 0
708 2 16.177500000000002 37.7475 43.14 0 0 0
709 2 14.380000000000004 35.95 46.73500000000001 0 0 0
710 4 14.380000000000004 37.7475 48.532500000000006 0 0 0
711 3 16.177500000000002 35.95 48.532500000000006 0 0 0
712 2 16.177500000000002 37.7475 46.73500000000001 0 0 0
738 1 14.380000000000004 41.3425 30.557500000000005 0 0 0
739 1 16.177500000000002 39.545 30.557500000000005 0 0 0
740 2 16.177500000000002 41.3425 28.76000000000001 0 0 0
741 5 14.380000000000004 39.545 32.355000000000004 0 0 0
742 4 14.380000000000004 41.3425 34.1525 0 0 0
743 5 16.177500000000002 39.545 34.1525 0 0 0
744 2 16.177500000000002 41.3425 32.355000000000004 0 0 0
745 3 14.380000000000004 39.545 35.95 0 0 0
746 5 14.380000000000004 41.3425 37.7475 0 0 0
747 5 16.177500000000002 39.545 37.7475 0 0 0
748 5 16.177500000000002 41.3425 35.95 0 0 0
749 5 14.380000000000004 39.545 39.545 0 0 0
750 3 14.380000000000004 41.3425 41.3425 0 0 0
751 1 16.177500000000002 39.545 41.3425 0 0 0
752 5 16.177500000000002 41.3425 39.545 0 0 0
753 4 14.380000000000004 39.545 43.14 0 0 0
754 3 14.380000000000004 41.3425 44.9375 0 0 0
755 3 16.177500000000002 39.545 44.9375 0 0 0
756 4 16.177500000000002 41.3425 43.14 0 0 0
757 3 14.380000000000004 39.545 46.73500000000001 0 0 0
758 4 14.380000000000004 41.3425 48.532500000000006 0 0 0
759 5 16.177500000000002 39.545 48.532500000000006 0 0 0
760 5 16.177500000000002 41.3425 46.73500000000001 0 0 0
786 1 14.380000000000004 44.9375 30.557500000000005 0 0 0
787 1 16.177500000000002 43.14 30.557500000000005 0 0 0
788 5 16.177500000000002 44.9375 28.76000000000001 0 0 0
789 1 14.380000000000004 43.14 32.355000000000004 0 0 0
790 2 14.380000000000004 44.9375 34.1525 0 0 0
791 3 16.177500000000002 43.14 34.1525 0 0 0
792 4 16.177500000000002 44.9375 32.355000000000004 0 0 0
793 2 14.380000000000004 43.14 35.95 0 0 0
794 2 14.380000000000004 44.9375 37.7475 0 0 0
795 1 16.177500000000002 43.14 37.7475 0 0 0
796 1 16.177500000000002 44.9375 35.95 0 0 0
797 1 14.380000000000004 43.14 39.545 0 0 0
798 5 14.380000000000004 44.9375 41.3425 0 0 0
799 5 16.177500000000002 43.14 41.3425 0 0 0
800 4 16.177500000000002 44.9375 39.545 0 0 0
801 3 14.380000000000004 43.14 43.14 0 0 0
802 1 14.380000000000004 44.9375 44.9375 0 0 0
803 3 16.177500000000002 43.14 44.9375 0 0 0
804 5 16.177500000000002 44.9375 43.14 0 0 0
805 4 14.380000000000004 43.14 46.73500000000001 0 0 0
806 2 14.380000000000004 44.9375 48.532500000000006 0 0 0
807 4 16.177500000000002 43.14 48.532500000000006 0 0 0
808 3 16.177500000000002 44.9375 46.73500000000001 0 0 0
834 3 14.380000000000004 48.532500000000006 30.557500000000005 0 0 0
835 2 16.177500000000002 46.73500000000001 30.557500000000005 0 0 0
836 3 16.177500000000002 48.532500000000006 28.76000000000001 0 0 0
837 4 14.380000000000004 46.73500000000001 32.355000000000004 0 0 0
838 4 14.380000000000004 48.532500000000006 34.1525 0 0 0
839 1 16.177500000000002 46.73500000000001 34.1525 0 0 0
840 3 16.177500000000002 48.532500000000006 32.355000000000004 0 0 0
841 4 14.380000000000004 46.73500000000001 35.95 0 0 0
842 1 14.380000000000004 48.532500000000006 37.7475 0 0 0
843 4 16.177500000000002 46.73500000000001 37.7475 0 0 0
844 4 16.177500000000002 48.532500000000006 35.95 0 0 0
845 2 14.380000000000004 46.73500000000001 39.545 0 0 0
846 3 14.380000000000004 48.532500000000006 41.3425 0 0 0
847 3 16.177500000000002 46.73500000000001 41.3425 0 0 0
848 1 16.177500000000002 48.532500000000006 39.545 0 0 0
849 5 14.380000000000004 46.73500000000001 43.14 0 0 0
850 2 14.380000000000004 48.532500000000006 44.9375 0 0 0
851 3 16.177500000000002 46.73500000000001 44.9375 0 0 0
852 4 16.177500000000002 48.532500000000006 43.14 0 0 0
853 3 14.380000000000004 46.73500000000001 46.73500000000001 0 0 0
854 1 14.380000000000004 48.532500000000006 48.532500000000006 0 0 0
855 5 16.177500000000002 46.73500000000001 48.532500000000006 0 0 0
856 2 16.177500000000002 48.532500000000006 46.73500000000001 0 0 0
1182 4 17.975 26.9625 26.9625 0 0 0
1183 2 19.7725 25.165000000000003 26.9625 0 0 0
1184 3 19.7725 26.9625 25.165000000000003 0 0 0
1185 3 17.975 26.9625 30.557500000000005 0 0 0
1186 5 19.7725 25.165000000000003 30.557500000000005 0 0 0
1187 2 19.7725 26.9625 28.76000000000001 0 0 0
1188 1 17.975 26.9625 34.1525 0 0 0
1189 2 19.7725 25.165000000000003 34.1525 0 0 0
1190 1 19.7725 26.9625 32.355000000000004 0 0 0
1191 5 17.975 26.9625 37.7475 0 0 0
1192 5 19.7725 25.165000000000003 37.7475 0 0 0
1193 1 19.7725 26.9625 35.95 0 0 0
1194 1 17.975 26.9625 41.3425 0 0 0
1195 4 19.7725 25.165000000000003 41.3425 0 0 0
1196 5 19.7725 26.9625 39.545 0 0 0
1197 1 17.975 26.9625 44.9375 0 0 0
1198 1 19.7725 25.165000000000003 44.9375 0 0 0
1199 4 19.7725 26.9625 43.14 0 0 0
1200 2 17.975 26.9625 48.532500000000006 0 0 0
1201 3 19.7725 25.165000000000003 48.532500000000006 0 0 0
1202 5 19.7725 26.9625 46.73500000000001 0 0 0
1225 1 17.975 30.557500000000005 26.9625 0 0 0
1226 1 19.7725 28.76000000000001 26.9625 0 0 0
1227 3 19.7725 30.557500000000005 25.165000000000003 0 0 0
1228 5 17.975 28.76000000000001 28.76000000000001 0 0 0
1229 1 17.975 30.557500000000005 30.557500000000005 0 0 0
1230 5 19.7725 28.76000000000001 30.557500000000005 0 0 0
1231 1 19.7725 30.557500000000005 28.76000000000001 0 0 0
1232 3 17.975 28.76000000000001 32.355000000000004 0 0 0
1233 2 17.975 30.557500000000005 34.1525 0 0 0
1234 1 19.7725 28.76000000000001 34.1525 0 0 0
1235 3 19.7725 30.557500000000005 32.355000000000004 0 0 0
1236 2 17.975 28.76000000000001 35.95 0 0 0
1237 1 17.975 30.557500000000005 37.7475 0 0 0
1238 4 19.7725 28.76000000000001 37.7475 0 0 0
1239 2 19.7725 30.557500000000005 35.95 0 0 0
1240 2 17.975 28.76000000000001 39.545 0 0 0
1241 5 17.975 30.557500000000005 41.3425 0 0 0
1242 2 19.7725 28.76000000000001 41.3425 0 0 0
1243 5 19.7725 30.557500000000005 39.545 0 0 0
1244 4 17.975 28.76000000000001 43.14 0 0 0
1245 1 17.975 30.557500000000005 44.9375 0 0 0
1246 3 19.7725 28.76000000000001 44.9375 0 0 0
1247 3 19.7725 30.557500000000005 43.14 0 0 0
1248 4 17.975 28.76000000000001 46.73500000000001 0 0 0
1249 3 17.975 30.557500000000005 48.532500000000006 0 0 0
1250 4 19.7725 28.76000000000001 48.532500000000006 0 0 0
1251 4 19.7725 30.557500000000005 46.73500000000001 0 0 0
1281 2 17.975 34.1525 26.9625 0 0 0
1282 5 19.7725 32.355000000000004 26.9625 0 0 0
1283 3 19.7725 34.1525 25.165000000000003 0 0 0
1284 2 17.975 32.355000000000004 28.76000000000001 0 0 0
1285 1 17.975 34.1525 30.557500000000005 0 0 0
1286 2 19.7725 32.355000000000004 30.557500000000005 0 0 0
1287 5 19.7725 34.1525 28.76000000000001 0 0 0
1288 1 17.975 32.355000000000004 32.355000000000004 0 0 0
1289 1 17.975 34.1525 34.1525 0 0 0
1290 3 19.7725 32.355000000000004 34.1525 0 0 0
1291 2 19.7725 34.1525 32.355000000000004 0 0 0
1292 2 17.975 32.355000000000004 35.95 0 0 0
1293 5 17.975 34.1525 37.7475 0 0 0
1294 3 19.7725 32.355000000000004 37.7475 0 0 0
1295 3 19.7725 34.1525 35.95 0 0 0
1296 1 17.975 32.355000000000004 39.545 0 0 0
1297 5 17.975 34.1525 41.3425 0 0 0
1298 2 19.7725 32.355000000000004 41.3425 0 0 0
1299 1 19.7725 34.1525 39.545 0 0 0
1300 5 17.975 32.355000000000004 43.14 0 0 0
1301 1 17.975 34.1525 44.9375 0 0 0
1302 4 19.7725 32.355000000000004 44.9375 0 0 0
1303 2 19.7725 34.1525 43.14 0 0 0
1304 5 17.975 32.355000000000004 46.73500000000001 0 0 0
1305 5 17.975 34.1525 48.532500000000006 0 0 0
1306 1 19.7725 32.355000000000004 48.532500000000006 0 0 0
1307 5 19.7725 34.1525 46.73500000000001 0 0 0
1337 3 17.975 37.7475 26.9625 0 0 0
1338 1 19.7725 35.95 26.9625 0 0 0
1339 4 19.7725 37.7475 25.165000000000003 0 0 0
1340 4 17.975 35.95 28.76000000000001 0 0 0
1341 5 17.975 37.7475 30.557500000000005 0 0 0
1342 4 19.7725 35.95 30.557500000000005 0 0 0
1343 3 19.7725 37.7475 28.76000000000001 0 0 0
1344 1 17.975 35.95 32.355000000000004 0 0 0
1345 2 17.975 37.7475 34.1525 0 0 0
1346 5 19.7725 35.95 34.1525 0 0 0
1347 2 19.7725 37.7475 32.355000000000004 0 0 0
1348 2 17.975 35.95 35.95 0 0 0
1349 3 17.975 37.7475 37.7475 0 0 0
1350 2 19.7725 35.95 37.7475 0 0 0
1351 2 19.7725 37.7475 35.95 0 0 0
1352 3 17.975 35.95 39.545 0 0 0
1353 2 17.975 37.7475 41.3425 0 0 0
1354 2 19.7725 35.95 41.3425 0 0 0
1355 3 19.7725 37.7475 39.545 0 0 0
1356 4 17.975 35.95 43.14 0 0 0
1357 2 17.975 37.7475 44.9375 0 0 0
1358 4 19.7725 35.95 44.9375 0 0 0
1359 4 19.7725 37.7475 43.14 0 0 0
1360 2 17.975 35.95 46.73500000000001 0 0 0
1361 4 17.975 37.7475 48.532500000000006 0 0 0
1362 5 19.7725 35.95 48.532500000000006 0 0 0
1363 3 19.7725 37.7475 46.73500000000001 0 0 0
1393 2 17.975 41.3425 26.9625 0 0 0
1394 1 19.7725 39.545 26.9625 0 0 0
1395 4 19.7725 41.3425 25.165000000000003 0 0 0
1396 3 17.975 39.545 28.76000000000001 0 0 0
1397 4 17.975 41.3425 30.557500000000005 0 0 0
1398 2 19.7725 39.545 30.557500000000005 0 0 0
1399 2 19.7725 41.3425 28.76000000000001 0 0 0
1400 5 17.975 39.545 32.355000000000004 0 0 0
1401 5 17.975 41.3425 34.1525 0 0 0
1402 1 19.7725 39.545 34.1525 0 0 0
1403 3 19.7725 41.3425 32.355000000000004 0 0 0
1404 4 17.975 39.545 35.95 0 0 0
1405 1 17.975 41.3425 37.7475 0 0 0
1406 3 19.7725 39.545 37.7475 0 0 0
1407 4 19.7725 41.3425 35.95 0 0 0
1408 1 17.975 39.545 39.545 0 0 0
1409 5 17.975 41.3425 41.3425 0 0 0
1410 3 19.7725 39.545 41.3425 0 0 0
1411 2 19.7725 41.3425 39.545 0 0 0
1412 4 17.975 39.545 43.14 0 0 0
1413 5 17.975 41.3425 44.9375 0 0 0
1414 5 19.7725 39.545 44.9375 0 0 0
1415 4 19.7725 41.3425 43.14 0 0 0
1416 2 17.975 39.545 46.73500000000001 0 0 0
1417 5 17.975 41.3425 48.532500000000006 0 0 0
1418 2 19.7725 39.545 48.532500000000006 0 0 0
1419 1 19.7725 41.3425 46.73500000000001 0 0 0
1449 2 17.975 44.9375 26.9625 0 0 0
1450 4 19.7725 43.14 26.9625 0 0 0
1451 3 19.7725 44.9375 25.165000000000003 0 0 0
1452 4 17.975 43.14 28.76000000000001 0 0 0
1453 1 17.975 44.9375 30.557500000000005 0 0 0
1454 4 19.7725 43.14 30.557500000000005 0 0 0
1455 2 19.7725 44.9375 28.76000000000001 0 0 0
1456 5 17.975 43.14 32.355000000000004 0 0 0
1457 2 17.975 44.9375 34.1525 0 0 0
1458 4 19.7725 43.14 34.1525 0 0 0
1459 5 19.7725 44.9375 32.355000000000004 0 0 0
1460 1 17.975 43.14 35.95 0 0 0
1461 5 17.975 44.9375 37.7475 0 0 0
1462 3 19.7725 43.14 37.7475 0 0 0
1463 2 19.7725 44.9375 35.95 0 0 0
1464 3 17.975 43.14 39.545 0 0 0
1465 5 17.975 44.9375 41.3425 0 0 0
1466 4 19.7725 43.14 41.3425 0 0 0
1467 1 19.7725 44.9375 39.545 0 0 0
1468 3 17.975 43.14 43.14 0 0 0
1469 3 17.975 44.9375 44.9375 0 0 0
1470 2 19.7725 43.14 44.9375 0 0 0
1471 1 19.7725 44.9375 43.14 0 0 0
1472 5 17.975 43.14 46.73500000000001 0 0 0
1473 1 17.975 44.9375 48.532500000000006 0 0 0
1474 2 19.7725 43.14 48.532500000000006 0 0 0
1475 1 19.7725 44.9375 46.73500000000001 0 0 0
1505 5 17.975 48.532500000000006 26.9625 0 0 0
1506 1 19.7725 46.73500000000001 26.9625 0 0 0
1507 2 19.7725 48.532500000000006 25.165000000000003 0 0 0
1508 1 17.975 46.73500000000001 28.76000000000001 0 0 0
1509 3 17.975 48.532500000000006 30.557500000000005 0 0 0
1510 3 19.7725 46.73500000000001 30.557500000000005 0 0 0
1511 3 19.7725 48.532500000000006 28.76000000000001 0 0 0
1512 1 17.975 46.73500000000001 32.355000000000004 0 0 0
1513 1 17.975 48.532500000000006 34.1525 0 0 0
1514 4 19.7725 46.73500000000001 34.1525 0 0 0
1515 4 19.7725 48.532500000000006 32.355000000000004 0 0 0
1516 4 17.975 46.73500000000001 35.95 0 0 0
1517 1 17.975 48.532500000000006 37.7475 0 0 0
1518 3 19.7725 46.73500000000001 37.7475 0 0 0
1519 3 19.7725 48.532500000000006 35.95 0 0 0
1520 3 17.975 46.73500000000001 39.545 0 0 0
1521 3 17.975 48.532500000000006 41.3425 0 0 0
1522 4 19.7725 46.73500000000001 41.3425 0 0 0
1523 2 19.7725 48.532500000000006 39.545 0 0 0
1524 5 17.975 46.73500000000001 43.14 0 0 0
1525 1 17.975 48.532500000000006 44.9375 0 0 0
1526 1 19.7725 46.73500000000001 44.9375 0 0 0
1527 1 19.7725 48.532500000000006 43.14 0 0 0
1528 1 17.975 46.73500000000001 46.73500000000001 0 0 0
1529 1 17.975 48.532500000000006 48.532500000000006 0 0 0
1530 2 19.7725 46.73500000000001 48.532500000000006 0 0 0
1531 4 19.7725 48.532500000000006 46.73500000000001 0 0 0
1967 4 21.570000000000004 21.570000000000004 21.570000000000004 0 0 0
1968 2 21.570000000000004 23.367500000000003 23.367500000000003 0 0 0
1969 5 23.367500000000003 21.570000000000004 23.367500000000003 0 0 0
1970 1 23.367500000000003 23.367500000000003 21.570000000000004 0 0 0
1971 1 21.570000000000004 21.570000000000004 25.165000000000003 0 0 0
1972 2 21.570000000000004 23.367500000000003 26.9625 0 0 0
1973 1 23.367500000000003 21.570000000000004 26.9625 0 0 0
1974 5 23.367500000000003 23.367500000000003 25.165000000000003 0 0 0
1975 4 21.570000000000004 21.570000000000004 28.76000000000001 0 0 0
1976 2 21.570000000000004 23.367500000000003 30.557500000000005 0 0 0
1977 1 23.367500000000003 21.570000000000004 30.557500000000005 0 0 0
1978 3 23.367500000000003 23.367500000000003 28.76000000000001 0 0 0
1979 5 21.570000000000004 21.570000000000004 32.355000000000004 0 0 0
1980 4 21.570000000000004 23.367500000000003 34.1525 0 0 0
1981 4 23.367500000000003 21.570000000000004 34.1525 0 0 0
1982 2 23.367500000000003 23.367500000000003 32.355000000000004 0 0 0
1983 1 21.570000000000004 21.570000000000004 35.95 0 0 0
1984 2 21.570000000000004 23.367500000000003 37.7475 0 0 0
1985 2 23.367500000000003 21.570000000000004 37.7475 0 0 0
1986 1 23.367500000000003 23.367500000000003 35.95 0 0 0
1987 4 21.570000000000004 21.570000000000004 39.545 0 0 0
1988 2 21.570000000000004 23.367500000000003 41.3425 0 0 0
1989 5 23.367500000000003 21.570000000000004 41.3425 0 0 0
1990 5 23.367500000000003 23.367500000000003 39.545 0 0 0
1991 5 21.570000000000004 21.570000000000004 43.14 0 0 0
1992 1 21.570000000000004 23.367500000000003 44.9375 0 0 0
1993 4 23.367500000000003 21.570000000000004 44.9375 0 0 0
1994 3 23.367500000000003 23.367500000000003 43.14 0 0 0
1995 5 21.570000000000004 21.570000000000004 46.73500000000001 0 0 0
1996 3 21.570000000000004 23.367500000000003 48.532500000000006 0 0 0
1997 3 23.367500000000003 21.570000000000004 48.532500000000006 0 0 0
1998 1 23.367500000000003 23.367500000000003 46.73500000000001 0 0 0
2033 2 21.570000000000004 25.165000000000003 21.570000000000004 0 0 0
2034 1 21.570000000000004 26.9625 23.367500000000003 0 0 0
2035 1 23.367500000000003 25.165000000000003 23.367500000000003 0 0 0
2036 5 23.367500000000003 26.9625 21.570000000000004 0 0 0
2037 4 21.570000000000004 25.165000000000003 25.165000000000003 0 0 0
2038 5 21.570000000000004 26.9625 26.9625 0 0 0
2039 1 23.367500000000003 25.165000000000003 26.9625 0 0 0
2040 3 23.367500000000003 26.9625 25.165000000000003 0 0 0
2041 3 21.570000000000004 25.165000000000003 28.76000000000001 0 0 0
2042 4 21.570000000000004 26.9625 30.557500000000005 0 0 0
2043 1 23.367500000000003 25.165000000000003 30.557500000000005 0 0 0
2044 1 23.367500000000003 26.9625 28.76000000000001 0 0 0
2045 2 21.570000000000004 25.165000000000003 32.355000000000004 0 0 0
2046 1 21.570000000000004 26.9625 34.1525 0 0 0
2047 5 23.367500000000003 25.165000000000003 34.1525 0 0 0
2048 4 23.367500000000003 26.9625 32.355000000000004 0 0 0
2049 5 21.570000000000004 25.165000000000003 35.95 0 0 0
2050 3 21.570000000000004 26.9625 37.7475 0 0 0
2051 4 23.367500000000003 25.165000000000003 37.7475 0 0 0
2052 5 23.367500000000003 26.9625 35.95 0 0 0
2053 4 21.570000000000004 25.165000000000003 39.545 0 0 0
2054 5 21.570000000000004 26.9625 41.3425 0 0 0
2055 2 23.367500000000003 25.165000000000003 41.3425 0 0 0
2056 1 23.367500000000003 26.9625 39.545 0 0 0
2057 1 21.570000000000004 25.165000000000003 43.14 0 0 0
2058 3 21.570000000000004 26.9625 44.9375 0 0 0
2059 5 23.367500000000003 25.165000000000003 44.9375 0 0 0
2060 3 23.367500000000003 26.9625 43.14 0 0 0
2061 3 21.570000000000004 25.165000000000003 46.73500000000001 0 0 0
2062 5 21.570000000000004 26.9625 48.532500000000006 0 0 0
2063 2 23.367500000000003 25.165000000000003 48.532500000000006 0 0 0
2064 5 23.367500000000003 26.9625 46.73500000000001 0 0 0
2099 3 21.570000000000004 28.76000000000001 21.570000000000004 0 0 0
2100 1 21.570000000000004 30.557500000000005 23.367500000000003 0 0 0
2101 2 23.367500000000003 28.76000000000001 23.367500000000003 0 0 0
2102 3 23.367500000000003 30.557500000000005 21.570000000000004 0 0 0
2103 3 21.570000000000004 28.76000000000001 25.165000000000003 0 0 0
2104 4 21.570000000000004 30.557500000000005 26.9625 0 0 0
2105 5 23.367500000000003 28.76000000000001 26.9625 0 0 0
2106 5 23.367500000000003 30.557500000000005 25.165000000000003 0 0 0
2107 4 21.570000000000004 28.76000000000001 28.76000000000001 0 0 0
2108 2 21.570000000000004 30.557500000000005 30.557500000000005 0 0 0
2109 3 23.367500000000003 28.76000000000001 30.557500000000005 0 0 0
2110 1 23.367500000000003 30.557500000000005 28.76000000000001 0 0 0
2111 1 21.570000000000004 28.76000000000001 32.355000000000004 0 0 0
2112 5 21.570000000000004 30.557500000000005 34.1525 0 0 0
2113 1 23.367500000000003 28.76000000000001 34.1525 0 0 0
2114 2 23.367500000000003 30.557500000000005 32.355000000000004 0 0 0
2115 3 21.570000000000004 28.76000000000001 35.95 0 0 0
2116 1 21.570000000000004 30.557500000000005 37.7475 0 0 0
2117 1 23.367500000000003 28.76000000000001 37.7475 0 0 0
2118 1 23.367500000000003 30.557500000000005 35.95 0 0 0
2119 3 21.570000000000004 28.76000000000001 39.545 0 0 0
2120 4 21.570000000000004 30.557500000000005 41.3425 0 0 0
2121 4 23.367500000000003 28.76000000000001 41.3425 0 0 0
2122 3 23.367500000000003 30.557500000000005 39.545 0 0 0
2123 5 21.570000000000004 28.76000000000001 43.14 0 0 0
2124 5 21.570000000000004 30.557500000000005 44.9375 0 0 0
2125 4 23.367500000000003 28.76000000000001 44.9375 0 0 0
2126 4 23.367500000000003 30.557500000000005 43.14 0 0 0
2127 1 21.570000000000004 28.76000000000001 46.73500000000001 0 0 0
2128 5 21.570000000000004 30.557500000000005 48.532500000000006 0 0 0
2129 4 23.367500000000003 28.76000000000001 48.532500000000006 0 0 0
2130 2 23.367500000000003 30.557500000000005 46.73500000000001 0 0 0
2165 1 21.570000000000004 32.355000000000004 21.570000000000004 0 0 0
2166 3 21.570000000000004 34.1525 23.367500000000003 0 0 0
2167 4 23.367500000000003 32.355000000000004 23.367500000000003 0 0 0
2168 2 23.367500000000003 34.1525 21.570000000000004 0 0 0
2169 1 21.570000000000004 32.355000000000004 25.165000000000003 0 0 0
2170 4 21.570000000000004 34.1525 26.9625 0 0 0
2171 2 23.367500000000003 32.355000000000004 26.9625 0 0 0
2172 2 23.367500000000003 34.1525 25.165000000000003 0 0 0
2173 5 21.570000000000004 32.355000000000004 28.76000000000001 0 0 0
2174 5 21.570000000000004 34.1525 30.557500000000005 0 0 0
2175 1 23.367500000000003 32.355000000000004 30.557500000000005 0 0 0
2176 2 23.367500000000003 34.1525 28.76000000000001 0 0 0
2177 5 21.570000000000004 32.355000000000004 32.355000000000004 0 0 0
2178 5 21.570000000000004 34.1525 34.1525 0 0 0
2179 1 23.367500000000003 32.355000000000004 34.1525 0 0 0
2180 1 23.367500000000003 34.1525 32.355000000000004 0 0 0
2181 5 21.570000000000004 32.355000000000004 35.95 0 0 0
2182 2 21.570000000000004 34.1525 37.7475 0 0 0
2183 1 23.367500000000003 32.355000000000004 37.7475 0 0 0
2184 3 23.367500000000003 34.1525 35.95 0 0 0
2185 4 21.570000000000004 32.355000000000004 39.545 0 0 0
2186 1 21.570000000000004 34.1525 41.3425 0 0 0
2187 4 23.367500000000003 32.355000000000004 41.3425 0 0 0
2188 5 23.367500000000003 34.1525 39.545 0 0 0
2189 2 21.570000000000004 32.355000000000004 43.14 0 0 0
2190 2 21.570000000000004 34.1525 44.9375 0 0 0
2191 1 23.367500000000003 32.355000000000004 44.9375 0 0 0
2192 4 23.367500000000003 34.1525 43.14 0 0 0
2193 2 21.570000000000004 32.355000000000004 46.73500000000001 0 0 0
2194 5 21.570000000000004 34.1525 48.532500000000006 0 0 0