model_files/NiCoCrFeMn/NiCoCrFeMn_30000/NiCoCrFeMn_540/NiCoCrFeMn_540_fcc_29765_temp.data (written by ASE) 

29765 	 atoms 
5  atom types
0.0                     100  xlo xhi
0.0                     100  ylo yhi
0.0                     100  zlo zhi


Atoms 

     1   1                       0      48.532500000000006      48.532500000000006
     2   1      1.7974999999999994      46.735000000000007      48.532500000000006
     3   1      1.7974999999999994      48.532500000000006      46.735000000000007
     4   1                       0      48.532500000000006      52.127500000000005
     5   1      1.7974999999999994      46.735000000000007      52.127500000000005
     6   1      1.7974999999999994      48.532500000000006      50.330000000000005
     7   1      1.7974999999999994      48.532500000000006      53.924999999999997
     8   1                       0      52.127500000000005      48.532500000000006
     9   1      1.7974999999999994      50.330000000000005      48.532500000000006
    10   1      1.7974999999999994      52.127500000000005      46.735000000000007
    11   1                       0      50.330000000000005      50.330000000000005
    12   1                       0      52.127500000000005      52.127500000000005
    13   1      1.7974999999999994      50.330000000000005      52.127500000000005
    14   1      1.7974999999999994      52.127500000000005      50.330000000000005
    15   1      1.7974999999999994      52.127500000000005      53.924999999999997
    16   1      1.7974999999999994      53.924999999999997      48.532500000000006
    17   1      1.7974999999999994      53.924999999999997      52.127500000000005
    18   1      3.5949999999999989                 44.9375                 44.9375
    19   1      5.3925000000000054      43.140000000000001                 44.9375
    20   1      5.3925000000000054                 44.9375      43.140000000000001
    21   1      3.5949999999999989                 44.9375      48.532500000000006
    22   1      5.3925000000000054      43.140000000000001      48.532500000000006
    23   1      5.3925000000000054                 44.9375      46.735000000000007
    24   1      3.5949999999999989                 44.9375      52.127500000000005
    25   1      5.3925000000000054      43.140000000000001      52.127500000000005
    26   1      5.3925000000000054                 44.9375      50.330000000000005
    27   1      3.5949999999999989                 44.9375      55.722500000000011
    28   1      5.3925000000000054      43.140000000000001      55.722500000000011
    29   1      5.3925000000000054                 44.9375      53.924999999999997
    30   1      5.3925000000000054                 44.9375      57.520000000000003
    31   1      3.5949999999999989      48.532500000000006                 44.9375
    32   1      5.3925000000000054      46.735000000000007                 44.9375
    33   1      5.3925000000000054      48.532500000000006      43.140000000000001
    34   1      3.5949999999999989      46.735000000000007      46.735000000000007
    35   1      3.5949999999999989      48.532500000000006      48.532500000000006
    36   1      5.3925000000000054      46.735000000000007      48.532500000000006
    37   1      5.3925000000000054      48.532500000000006      46.735000000000007
    38   1      3.5949999999999989      46.735000000000007      50.330000000000005
    39   1      3.5949999999999989      48.532500000000006      52.127500000000005
    40   1      5.3925000000000054      46.735000000000007      52.127500000000005
    41   1      5.3925000000000054      48.532500000000006      50.330000000000005
    42   1      3.5949999999999989      46.735000000000007      53.924999999999997
    43   1      3.5949999999999989      48.532500000000006      55.722500000000011
    44   1      5.3925000000000054      46.735000000000007      55.722500000000011
    45   1      5.3925000000000054      48.532500000000006      53.924999999999997
    46   1      5.3925000000000054      48.532500000000006      57.520000000000003
    47   1      3.5949999999999989      52.127500000000005                 44.9375
    48   1      5.3925000000000054      50.330000000000005                 44.9375
    49   1      5.3925000000000054      52.127500000000005      43.140000000000001
    50   1      3.5949999999999989      50.330000000000005      46.735000000000007
    51   1      3.5949999999999989      52.127500000000005      48.532500000000006
    52   1      5.3925000000000054      50.330000000000005      48.532500000000006
    53   1      5.3925000000000054      52.127500000000005      46.735000000000007
    54   1      3.5949999999999989      50.330000000000005      50.330000000000005
    55   1      3.5949999999999989      52.127500000000005      52.127500000000005
    56   1      5.3925000000000054      50.330000000000005      52.127500000000005
    57   1      5.3925000000000054      52.127500000000005      50.330000000000005
    58   1      3.5949999999999989      50.330000000000005      53.924999999999997
    59   1      3.5949999999999989      52.127500000000005      55.722500000000011
    60   1      5.3925000000000054      50.330000000000005      55.722500000000011
    61   1      5.3925000000000054      52.127500000000005      53.924999999999997
    62   1      5.3925000000000054      52.127500000000005      57.520000000000003
    63   1      3.5949999999999989      55.722500000000011                 44.9375
    64   1      5.3925000000000054      53.924999999999997                 44.9375
    65   1      5.3925000000000054      55.722500000000011      43.140000000000001
    66   1      3.5949999999999989      53.924999999999997      46.735000000000007
    67   1      3.5949999999999989      55.722500000000011      48.532500000000006
    68   1      5.3925000000000054      53.924999999999997      48.532500000000006
    69   1      5.3925000000000054      55.722500000000011      46.735000000000007
    70   1      3.5949999999999989      53.924999999999997      50.330000000000005
    71   1      3.5949999999999989      55.722500000000011      52.127500000000005
    72   1      5.3925000000000054      53.924999999999997      52.127500000000005
    73   1      5.3925000000000054      55.722500000000011      50.330000000000005
    74   1      3.5949999999999989      53.924999999999997      53.924999999999997
    75   1      3.5949999999999989      55.722500000000011      55.722500000000011
    76   1      5.3925000000000054      53.924999999999997      55.722500000000011
    77   1      5.3925000000000054      55.722500000000011      53.924999999999997
    78   1      5.3925000000000054      55.722500000000011      57.520000000000003
    79   1      5.3925000000000054      57.520000000000003                 44.9375
    80   1      5.3925000000000054      57.520000000000003      48.532500000000006
    81   1      5.3925000000000054      57.520000000000003      52.127500000000005
    82   1      5.3925000000000054      57.520000000000003      55.722500000000011
    83   1      8.9875000000000043      37.747500000000002      39.545000000000002
    84   1      8.9875000000000043      37.747500000000002      43.140000000000001
    85   1      8.9875000000000043      37.747500000000002      46.735000000000007
    86   1      8.9875000000000043      37.747500000000002      50.330000000000005
    87   1      8.9875000000000043      37.747500000000002      53.924999999999997
    88   1      8.9875000000000043      37.747500000000002      57.520000000000003
    89   1      8.9875000000000043      37.747500000000002      61.115000000000009
    90   1      8.9875000000000043      39.545000000000002      37.747500000000002
    91   1      7.1900000000000048      39.545000000000002      39.545000000000002
    92   1      7.1900000000000048      41.342500000000001      41.342500000000001
    93   1      8.9875000000000043      39.545000000000002      41.342500000000001
    94   1      8.9875000000000043      41.342500000000001      39.545000000000002
    95   1      7.1900000000000048      39.545000000000002      43.140000000000001
    96   1      7.1900000000000048      41.342500000000001                 44.9375
    97   1      8.9875000000000043      39.545000000000002                 44.9375
    98   1      8.9875000000000043      41.342500000000001      43.140000000000001
    99   1      7.1900000000000048      39.545000000000002      46.735000000000007
   100   1      7.1900000000000048      41.342500000000001      48.532500000000006
   101   1      8.9875000000000043      39.545000000000002      48.532500000000006
   102   1      8.9875000000000043      41.342500000000001      46.735000000000007
   103   1      7.1900000000000048      39.545000000000002      50.330000000000005
   104   1      7.1900000000000048      41.342500000000001      52.127500000000005
   105   1      8.9875000000000043      39.545000000000002      52.127500000000005
   106   1      8.9875000000000043      41.342500000000001      50.330000000000005
   107   1      7.1900000000000048      39.545000000000002      53.924999999999997
   108   1      7.1900000000000048      41.342500000000001      55.722500000000011
   109   1      8.9875000000000043      39.545000000000002      55.722500000000011
   110   1      8.9875000000000043      41.342500000000001      53.924999999999997
   111   1      7.1900000000000048      39.545000000000002      57.520000000000003
   112   1      7.1900000000000048      41.342500000000001      59.317500000000003
   113   1      8.9875000000000043      39.545000000000002      59.317500000000003
   114   1      8.9875000000000043      41.342500000000001      57.520000000000003
   115   1      7.1900000000000048      39.545000000000002      61.115000000000009
   116   1      8.9875000000000043      39.545000000000002      62.912500000000001
   117   1      8.9875000000000043      41.342500000000001      61.115000000000009
   118   1      8.9875000000000043      43.140000000000001      37.747500000000002
   119   1      7.1900000000000048      43.140000000000001      39.545000000000002
   120   1      7.1900000000000048                 44.9375      41.342500000000001
   121   1      8.9875000000000043      43.140000000000001      41.342500000000001
   122   1      8.9875000000000043                 44.9375      39.545000000000002
   123   1      7.1900000000000048      43.140000000000001      43.140000000000001
   124   1      7.1900000000000048                 44.9375                 44.9375
   125   1      8.9875000000000043      43.140000000000001                 44.9375
   126   1      8.9875000000000043                 44.9375      43.140000000000001
   127   1      7.1900000000000048      43.140000000000001      46.735000000000007
   128   1      7.1900000000000048                 44.9375      48.532500000000006
   129   1      8.9875000000000043      43.140000000000001      48.532500000000006
   130   1      8.9875000000000043                 44.9375      46.735000000000007
   131   1      7.1900000000000048      43.140000000000001      50.330000000000005
   132   1      7.1900000000000048                 44.9375      52.127500000000005
   133   1      8.9875000000000043      43.140000000000001      52.127500000000005
   134   1      8.9875000000000043                 44.9375      50.330000000000005
   135   1      7.1900000000000048      43.140000000000001      53.924999999999997
   136   1      7.1900000000000048                 44.9375      55.722500000000011
   137   1      8.9875000000000043      43.140000000000001      55.722500000000011
   138   1      8.9875000000000043                 44.9375      53.924999999999997
   139   1      7.1900000000000048      43.140000000000001      57.520000000000003
   140   1      7.1900000000000048                 44.9375      59.317500000000003
   141   1      8.9875000000000043      43.140000000000001      59.317500000000003
   142   1      8.9875000000000043                 44.9375      57.520000000000003
   143   1      7.1900000000000048      43.140000000000001      61.115000000000009
   144   1      8.9875000000000043      43.140000000000001      62.912500000000001
   145   1      8.9875000000000043                 44.9375      61.115000000000009
   146   1      8.9875000000000043      46.735000000000007      37.747500000000002
   147   1      7.1900000000000048      46.735000000000007      39.545000000000002
   148   1      7.1900000000000048      48.532500000000006      41.342500000000001
   149   1      8.9875000000000043      46.735000000000007      41.342500000000001
   150   1      8.9875000000000043      48.532500000000006      39.545000000000002
   151   1      7.1900000000000048      46.735000000000007      43.140000000000001
   152   1      7.1900000000000048      48.532500000000006                 44.9375
   153   1      8.9875000000000043      46.735000000000007                 44.9375
   154   1      8.9875000000000043      48.532500000000006      43.140000000000001
   155   1      7.1900000000000048      46.735000000000007      46.735000000000007
   156   1      7.1900000000000048      48.532500000000006      48.532500000000006
   157   1      8.9875000000000043      46.735000000000007      48.532500000000006
   158   1      8.9875000000000043      48.532500000000006      46.735000000000007
   159   1      7.1900000000000048      46.735000000000007      50.330000000000005
   160   1      7.1900000000000048      48.532500000000006      52.127500000000005
   161   1      8.9875000000000043      46.735000000000007      52.127500000000005
   162   1      8.9875000000000043      48.532500000000006      50.330000000000005
   163   1      7.1900000000000048      46.735000000000007      53.924999999999997
   164   1      7.1900000000000048      48.532500000000006      55.722500000000011
   165   1      8.9875000000000043      46.735000000000007      55.722500000000011
   166   1      8.9875000000000043      48.532500000000006      53.924999999999997
   167   1      7.1900000000000048      46.735000000000007      57.520000000000003
   168   1      7.1900000000000048      48.532500000000006      59.317500000000003
   169   1      8.9875000000000043      46.735000000000007      59.317500000000003
   170   1      8.9875000000000043      48.532500000000006      57.520000000000003
   171   1      7.1900000000000048      46.735000000000007      61.115000000000009
   172   1      8.9875000000000043      46.735000000000007      62.912500000000001
   173   1      8.9875000000000043      48.532500000000006      61.115000000000009
   174   1      8.9875000000000043      50.330000000000005      37.747500000000002
   175   1      7.1900000000000048      50.330000000000005      39.545000000000002
   176   1      7.1900000000000048      52.127500000000005      41.342500000000001
   177   1      8.9875000000000043      50.330000000000005      41.342500000000001
   178   1      8.9875000000000043      52.127500000000005      39.545000000000002
   179   1      7.1900000000000048      50.330000000000005      43.140000000000001
   180   1      7.1900000000000048      52.127500000000005                 44.9375
   181   1      8.9875000000000043      50.330000000000005                 44.9375
   182   1      8.9875000000000043      52.127500000000005      43.140000000000001
   183   1      7.1900000000000048      50.330000000000005      46.735000000000007
   184   1      7.1900000000000048      52.127500000000005      48.532500000000006
   185   1      8.9875000000000043      50.330000000000005      48.532500000000006
   186   1      8.9875000000000043      52.127500000000005      46.735000000000007
   187   1      7.1900000000000048      50.330000000000005      50.330000000000005
   188   1      7.1900000000000048      52.127500000000005      52.127500000000005
   189   1      8.9875000000000043      50.330000000000005      52.127500000000005
   190   1      8.9875000000000043      52.127500000000005      50.330000000000005
   191   1      7.1900000000000048      50.330000000000005      53.924999999999997
   192   1      7.1900000000000048      52.127500000000005      55.722500000000011
   193   1      8.9875000000000043      50.330000000000005      55.722500000000011
   194   1      8.9875000000000043      52.127500000000005      53.924999999999997
   195   1      7.1900000000000048      50.330000000000005      57.520000000000003
   196   1      7.1900000000000048      52.127500000000005      59.317500000000003
   197   1      8.9875000000000043      50.330000000000005      59.317500000000003
   198   1      8.9875000000000043      52.127500000000005      57.520000000000003
   199   1      7.1900000000000048      50.330000000000005      61.115000000000009
   200   1      8.9875000000000043      50.330000000000005      62.912500000000001
   201   1      8.9875000000000043      52.127500000000005      61.115000000000009
   202   1      8.9875000000000043      53.924999999999997      37.747500000000002
   203   1      7.1900000000000048      53.924999999999997      39.545000000000002
   204   1      7.1900000000000048      55.722500000000011      41.342500000000001
   205   1      8.9875000000000043      53.924999999999997      41.342500000000001
   206   1      8.9875000000000043      55.722500000000011      39.545000000000002
   207   1      7.1900000000000048      53.924999999999997      43.140000000000001
   208   1      7.1900000000000048      55.722500000000011                 44.9375
   209   1      8.9875000000000043      53.924999999999997                 44.9375
   210   1      8.9875000000000043      55.722500000000011      43.140000000000001
   211   1      7.1900000000000048      53.924999999999997      46.735000000000007
   212   1      7.1900000000000048      55.722500000000011      48.532500000000006
   213   1      8.9875000000000043      53.924999999999997      48.532500000000006
   214   1      8.9875000000000043      55.722500000000011      46.735000000000007
   215   1      7.1900000000000048      53.924999999999997      50.330000000000005
   216   1      7.1900000000000048      55.722500000000011      52.127500000000005
   217   1      8.9875000000000043      53.924999999999997      52.127500000000005
   218   1      8.9875000000000043      55.722500000000011      50.330000000000005
   219   1      7.1900000000000048      53.924999999999997      53.924999999999997
   220   1      7.1900000000000048      55.722500000000011      55.722500000000011
   221   1      8.9875000000000043      53.924999999999997      55.722500000000011
   222   1      8.9875000000000043      55.722500000000011      53.924999999999997
   223   1      7.1900000000000048      53.924999999999997      57.520000000000003
   224   1      7.1900000000000048      55.722500000000011      59.317500000000003
   225   1      8.9875000000000043      53.924999999999997      59.317500000000003
   226   1      8.9875000000000043      55.722500000000011      57.520000000000003
   227   1      7.1900000000000048      53.924999999999997      61.115000000000009
   228   1      8.9875000000000043      53.924999999999997      62.912500000000001
   229   1      8.9875000000000043      55.722500000000011      61.115000000000009
   230   1      8.9875000000000043      57.520000000000003      37.747500000000002
   231   1      7.1900000000000048      57.520000000000003      39.545000000000002
   232   1      7.1900000000000048      59.317500000000003      41.342500000000001
   233   1      8.9875000000000043      57.520000000000003      41.342500000000001
   234   1      8.9875000000000043      59.317500000000003      39.545000000000002
   235   1      7.1900000000000048      57.520000000000003      43.140000000000001
   236   1      7.1900000000000048      59.317500000000003                 44.9375
   237   1      8.9875000000000043      57.520000000000003                 44.9375
   238   1      8.9875000000000043      59.317500000000003      43.140000000000001
   239   1      7.1900000000000048      57.520000000000003      46.735000000000007
   240   1      7.1900000000000048      59.317500000000003      48.532500000000006
   241   1      8.9875000000000043      57.520000000000003      48.532500000000006
   242   1      8.9875000000000043      59.317500000000003      46.735000000000007
   243   1      7.1900000000000048      57.520000000000003      50.330000000000005
   244   1      7.1900000000000048      59.317500000000003      52.127500000000005
   245   1      8.9875000000000043      57.520000000000003      52.127500000000005
   246   1      8.9875000000000043      59.317500000000003      50.330000000000005
   247   1      7.1900000000000048      57.520000000000003      53.924999999999997
   248   1      7.1900000000000048      59.317500000000003      55.722500000000011
   249   1      8.9875000000000043      57.520000000000003      55.722500000000011
   250   1      8.9875000000000043      59.317500000000003      53.924999999999997
   251   1      7.1900000000000048      57.520000000000003      57.520000000000003
   252   1      7.1900000000000048      59.317500000000003      59.317500000000003
   253   1      8.9875000000000043      57.520000000000003      59.317500000000003
   254   1      8.9875000000000043      59.317500000000003      57.520000000000003
   255   1      7.1900000000000048      57.520000000000003      61.115000000000009
   256   1      8.9875000000000043      57.520000000000003      62.912500000000001
   257   1      8.9875000000000043      59.317500000000003      61.115000000000009
   258   1      8.9875000000000043      61.115000000000009      37.747500000000002
   259   1      7.1900000000000048      61.115000000000009      39.545000000000002
   260   1      8.9875000000000043      61.115000000000009      41.342500000000001
   261   1      8.9875000000000043      62.912500000000001      39.545000000000002
   262   1      7.1900000000000048      61.115000000000009      43.140000000000001
   263   1      8.9875000000000043      61.115000000000009                 44.9375
   264   1      8.9875000000000043      62.912500000000001      43.140000000000001
   265   1      7.1900000000000048      61.115000000000009      46.735000000000007
   266   1      8.9875000000000043      61.115000000000009      48.532500000000006
   267   1      8.9875000000000043      62.912500000000001      46.735000000000007
   268   1      7.1900000000000048      61.115000000000009      50.330000000000005
   269   1      8.9875000000000043      61.115000000000009      52.127500000000005
   270   1      8.9875000000000043      62.912500000000001      50.330000000000005
   271   1      7.1900000000000048      61.115000000000009      53.924999999999997
   272   1      8.9875000000000043      61.115000000000009      55.722500000000011
   273   1      8.9875000000000043      62.912500000000001      53.924999999999997
   274   1      7.1900000000000048      61.115000000000009      57.520000000000003
   275   1      8.9875000000000043      61.115000000000009      59.317500000000003
   276   1      8.9875000000000043      62.912500000000001      57.520000000000003
   277   1      7.1900000000000048      61.115000000000009      61.115000000000009
   278   1      8.9875000000000043      61.115000000000009      62.912500000000001
   279   1      8.9875000000000043      62.912500000000001      61.115000000000009
   280   1      12.582500000000001      34.152500000000003      35.950000000000003
   281   1      12.582500000000001      34.152500000000003      39.545000000000002
   282   1      12.582500000000001      34.152500000000003      43.140000000000001
   283   1      12.582500000000001      34.152500000000003      46.735000000000007
   284   1      12.582500000000001      34.152500000000003      50.330000000000005
   285   1      12.582500000000001      34.152500000000003      53.924999999999997
   286   1      12.582500000000001      34.152500000000003      57.520000000000003
   287   1      12.582500000000001      34.152500000000003      61.115000000000009
   288   1      12.582500000000001      34.152500000000003      64.710000000000008
   289   1      12.582500000000001      35.950000000000003      34.152500000000003
   290   1      10.785000000000004      35.950000000000003      35.950000000000003
   291   1      10.785000000000004      37.747500000000002      37.747500000000002
   292   1      12.582500000000001      35.950000000000003      37.747500000000002
   293   1      12.582500000000001      37.747500000000002      35.950000000000003
   294   1      10.785000000000004      35.950000000000003      39.545000000000002
   295   1      10.785000000000004      37.747500000000002      41.342500000000001
   296   1      12.582500000000001      35.950000000000003      41.342500000000001
   297   1      12.582500000000001      37.747500000000002      39.545000000000002
   298   1      10.785000000000004      35.950000000000003      43.140000000000001
   299   1      10.785000000000004      37.747500000000002                 44.9375
   300   1      12.582500000000001      35.950000000000003                 44.9375
   301   1      12.582500000000001      37.747500000000002      43.140000000000001
   302   1      10.785000000000004      35.950000000000003      46.735000000000007
   303   1      10.785000000000004      37.747500000000002      48.532500000000006
   304   1      12.582500000000001      35.950000000000003      48.532500000000006
   305   1      12.582500000000001      37.747500000000002      46.735000000000007
   306   1      10.785000000000004      35.950000000000003      50.330000000000005
   307   1      10.785000000000004      37.747500000000002      52.127500000000005
   308   1      12.582500000000001      35.950000000000003      52.127500000000005
   309   1      12.582500000000001      37.747500000000002      50.330000000000005
   310   1      10.785000000000004      35.950000000000003      53.924999999999997
   311   1      10.785000000000004      37.747500000000002      55.722500000000011
   312   1      12.582500000000001      35.950000000000003      55.722500000000011
   313   1      12.582500000000001      37.747500000000002      53.924999999999997
   314   1      10.785000000000004      35.950000000000003      57.520000000000003
   315   1      10.785000000000004      37.747500000000002      59.317500000000003
   316   1      12.582500000000001      35.950000000000003      59.317500000000003
   317   1      12.582500000000001      37.747500000000002      57.520000000000003
   318   1      10.785000000000004      35.950000000000003      61.115000000000009
   319   1      10.785000000000004      37.747500000000002      62.912500000000001
   320   1      12.582500000000001      35.950000000000003      62.912500000000001
   321   1      12.582500000000001      37.747500000000002      61.115000000000009
   322   1      10.785000000000004      35.950000000000003      64.710000000000008
   323   1      12.582500000000001      35.950000000000003      66.507500000000007
   324   1      12.582500000000001      37.747500000000002      64.710000000000008
   325   1      12.582500000000001      39.545000000000002      34.152500000000003
   326   1      10.785000000000004      39.545000000000002      35.950000000000003
   327   1      10.785000000000004      41.342500000000001      37.747500000000002
   328   1      12.582500000000001      39.545000000000002      37.747500000000002
   329   1      12.582500000000001      41.342500000000001      35.950000000000003
   330   1      10.785000000000004      39.545000000000002      39.545000000000002
   331   1      10.785000000000004      41.342500000000001      41.342500000000001
   332   1      12.582500000000001      39.545000000000002      41.342500000000001
   333   1      12.582500000000001      41.342500000000001      39.545000000000002
   334   1      10.785000000000004      39.545000000000002      43.140000000000001
   335   1      10.785000000000004      41.342500000000001                 44.9375
   336   1      12.582500000000001      39.545000000000002                 44.9375
   337   1      12.582500000000001      41.342500000000001      43.140000000000001
   338   1      10.785000000000004      39.545000000000002      46.735000000000007
   339   1      10.785000000000004      41.342500000000001      48.532500000000006
   340   1      12.582500000000001      39.545000000000002      48.532500000000006
   341   1      12.582500000000001      41.342500000000001      46.735000000000007
   342   1      10.785000000000004      39.545000000000002      50.330000000000005
   343   1      10.785000000000004      41.342500000000001      52.127500000000005
   344   1      12.582500000000001      39.545000000000002      52.127500000000005
   345   1      12.582500000000001      41.342500000000001      50.330000000000005
   346   1      10.785000000000004      39.545000000000002      53.924999999999997
   347   1      10.785000000000004      41.342500000000001      55.722500000000011
   348   1      12.582500000000001      39.545000000000002      55.722500000000011
   349   1      12.582500000000001      41.342500000000001      53.924999999999997
   350   1      10.785000000000004      39.545000000000002      57.520000000000003
   351   1      10.785000000000004      41.342500000000001      59.317500000000003
   352   1      12.582500000000001      39.545000000000002      59.317500000000003
   353   1      12.582500000000001      41.342500000000001      57.520000000000003
   354   1      10.785000000000004      39.545000000000002      61.115000000000009
   355   1      10.785000000000004      41.342500000000001      62.912500000000001
   356   1      12.582500000000001      39.545000000000002      62.912500000000001
   357   1      12.582500000000001      41.342500000000001      61.115000000000009
   358   1      10.785000000000004      39.545000000000002      64.710000000000008