model_files/CuFeNi/CuFeNi_30000/CuFeNi_510/CuFeNi_510_fcc_29899_temp.data (written by ASE) 

29899 	 atoms 
3  atom types
0.0                      85  xlo xhi
0.0                      85  ylo yhi
0.0                      85  zlo zhi


Atoms 

     1   1      1.9000000000000057      32.299999999999997      34.199999999999996
     2   1      1.9000000000000057      32.299999999999997      37.999999999999993
     3   1      1.9000000000000057      32.299999999999997      41.799999999999997
     4   1      1.9000000000000057      32.299999999999997      45.599999999999994
     5   1      1.9000000000000057      32.299999999999997      49.399999999999991
     6   1      1.9000000000000057      34.199999999999996      32.299999999999997
     7   1      1.9000000000000057      34.199999999999996      36.099999999999994
     8   1      1.9000000000000057      36.099999999999994      34.199999999999996
     9   1      1.9000000000000057      34.199999999999996      39.899999999999991
    10   1      1.9000000000000057      36.099999999999994      37.999999999999993
    11   1      1.9000000000000057      34.199999999999996      43.699999999999996
    12   1      1.9000000000000057      36.099999999999994      41.799999999999997
    13   1      1.9000000000000057      34.199999999999996      47.499999999999993
    14   1      1.9000000000000057      36.099999999999994      45.599999999999994
    15   1      1.9000000000000057      34.199999999999996       51.29999999999999
    16   1      1.9000000000000057      36.099999999999994      49.399999999999991
    17   1      1.9000000000000057      37.999999999999993      32.299999999999997
    18   1      1.9000000000000057      37.999999999999993      36.099999999999994
    19   1      1.9000000000000057      39.899999999999991      34.199999999999996
    20   1      1.9000000000000057      37.999999999999993      39.899999999999991
    21   1      1.9000000000000057      39.899999999999991      37.999999999999993
    22   1      1.9000000000000057      37.999999999999993      43.699999999999996
    23   1      1.9000000000000057      39.899999999999991      41.799999999999997
    24   1      1.9000000000000057      37.999999999999993      47.499999999999993
    25   1      1.9000000000000057      39.899999999999991      45.599999999999994
    26   1      1.9000000000000057      37.999999999999993       51.29999999999999
    27   1      1.9000000000000057      39.899999999999991      49.399999999999991
    28   1      1.9000000000000057      41.799999999999997      32.299999999999997
    29   1      1.9000000000000057      41.799999999999997      36.099999999999994
    30   1      1.9000000000000057      43.699999999999996      34.199999999999996
    31   1      1.9000000000000057      41.799999999999997      39.899999999999991
    32   1      1.9000000000000057      43.699999999999996      37.999999999999993
    33   1                       0      41.799999999999997      41.799999999999997
    34   1      1.9000000000000057      41.799999999999997      43.699999999999996
    35   1      1.9000000000000057      43.699999999999996      41.799999999999997
    36   1      1.9000000000000057      41.799999999999997      47.499999999999993
    37   1      1.9000000000000057      43.699999999999996      45.599999999999994
    38   1      1.9000000000000057      41.799999999999997       51.29999999999999
    39   1      1.9000000000000057      43.699999999999996      49.399999999999991
    40   1      1.9000000000000057      45.599999999999994      32.299999999999997
    41   1      1.9000000000000057      45.599999999999994      36.099999999999994
    42   1      1.9000000000000057      47.499999999999993      34.199999999999996
    43   1      1.9000000000000057      45.599999999999994      39.899999999999991
    44   1      1.9000000000000057      47.499999999999993      37.999999999999993
    45   1      1.9000000000000057      45.599999999999994      43.699999999999996
    46   1      1.9000000000000057      47.499999999999993      41.799999999999997
    47   1      1.9000000000000057      45.599999999999994      47.499999999999993
    48   1      1.9000000000000057      47.499999999999993      45.599999999999994
    49   1      1.9000000000000057      45.599999999999994       51.29999999999999
    50   1      1.9000000000000057      47.499999999999993      49.399999999999991
    51   1      1.9000000000000057      49.399999999999991      32.299999999999997
    52   1      1.9000000000000057      49.399999999999991      36.099999999999994
    53   1      1.9000000000000057       51.29999999999999      34.199999999999996
    54   1      1.9000000000000057      49.399999999999991      39.899999999999991
    55   1      1.9000000000000057       51.29999999999999      37.999999999999993
    56   1      1.9000000000000057      49.399999999999991      43.699999999999996
    57   1      1.9000000000000057       51.29999999999999      41.799999999999997
    58   1      1.9000000000000057      49.399999999999991      47.499999999999993
    59   1      1.9000000000000057       51.29999999999999      45.599999999999994
    60   1      1.9000000000000057      49.399999999999991       51.29999999999999
    61   1      1.9000000000000057       51.29999999999999      49.399999999999991
    62   1      5.7000000000000028      13.299999999999999      15.199999999999998
    63   1      5.7000000000000028      13.299999999999999                      19
    64   1      5.7000000000000028      13.299999999999999      22.799999999999997
    65   1      5.7000000000000028      13.299999999999999      26.599999999999998
    66   1      5.7000000000000028      13.299999999999999      30.399999999999995
    67   1      5.7000000000000028      13.299999999999999      34.199999999999996
    68   1      5.7000000000000028      13.299999999999999      37.999999999999993
    69   1      5.7000000000000028      13.299999999999999      41.799999999999997
    70   1      5.7000000000000028      13.299999999999999      45.599999999999994
    71   1      5.7000000000000028      13.299999999999999      49.399999999999991
    72   1      5.7000000000000028      13.299999999999999      53.199999999999996
    73   1      5.7000000000000028      13.299999999999999      56.999999999999993
    74   1      5.7000000000000028      13.299999999999999       60.79999999999999
    75   1      5.7000000000000028      13.299999999999999      64.599999999999994
    76   1      5.7000000000000028      13.299999999999999      68.399999999999991
    77   1      5.7000000000000028      15.199999999999998      13.299999999999999
    78   1      5.7000000000000028      15.199999999999998      17.099999999999998
    79   1      5.7000000000000028      17.099999999999998      15.199999999999998
    80   1      5.7000000000000028      15.199999999999998      20.899999999999999
    81   1      5.7000000000000028      17.099999999999998                      19
    82   1      5.7000000000000028      15.199999999999998      24.699999999999996
    83   1      5.7000000000000028      17.099999999999998      22.799999999999997
    84   1      5.7000000000000028      15.199999999999998      28.499999999999996
    85   1      5.7000000000000028      17.099999999999998      26.599999999999998
    86   1      5.7000000000000028      15.199999999999998      32.299999999999997
    87   1      5.7000000000000028      17.099999999999998      30.399999999999995
    88   1      5.7000000000000028      15.199999999999998      36.099999999999994
    89   1      5.7000000000000028      17.099999999999998      34.199999999999996
    90   1      5.7000000000000028      15.199999999999998      39.899999999999991
    91   1      5.7000000000000028      17.099999999999998      37.999999999999993
    92   1      5.7000000000000028      15.199999999999998      43.699999999999996
    93   1      5.7000000000000028      17.099999999999998      41.799999999999997
    94   1      5.7000000000000028      15.199999999999998      47.499999999999993
    95   1      5.7000000000000028      17.099999999999998      45.599999999999994
    96   1      5.7000000000000028      15.199999999999998       51.29999999999999
    97   1      5.7000000000000028      17.099999999999998      49.399999999999991
    98   1      5.7000000000000028      15.199999999999998      55.099999999999994
    99   1      5.7000000000000028      17.099999999999998      53.199999999999996
   100   1      5.7000000000000028      15.199999999999998      58.899999999999991
   101   1      5.7000000000000028      17.099999999999998      56.999999999999993
   102   1      5.7000000000000028      15.199999999999998      62.700000000000003
   103   1      5.7000000000000028      17.099999999999998       60.79999999999999
   104   1      5.7000000000000028      15.199999999999998                    66.5
   105   1      5.7000000000000028      17.099999999999998      64.599999999999994
   106   1      5.7000000000000028      15.199999999999998      70.299999999999997
   107   1      5.7000000000000028      17.099999999999998      68.399999999999991
   108   1      5.7000000000000028                      19      13.299999999999999
   109   1      5.7000000000000028                      19      17.099999999999998
   110   1      5.7000000000000028      20.899999999999999      15.199999999999998
   111   1      5.7000000000000028                      19      20.899999999999999
   112   1      5.7000000000000028      20.899999999999999                      19
   113   1      5.7000000000000028                      19      24.699999999999996
   114   1      5.7000000000000028      20.899999999999999      22.799999999999997
   115   1      5.7000000000000028                      19      28.499999999999996
   116   1      5.7000000000000028      20.899999999999999      26.599999999999998
   117   1      5.7000000000000028                      19      32.299999999999997
   118   1      5.7000000000000028      20.899999999999999      30.399999999999995
   119   1      5.7000000000000028                      19      36.099999999999994
   120   1      5.7000000000000028      20.899999999999999      34.199999999999996
   121   1      5.7000000000000028                      19      39.899999999999991
   122   1      5.7000000000000028      20.899999999999999      37.999999999999993
   123   1      5.7000000000000028                      19      43.699999999999996
   124   1      5.7000000000000028      20.899999999999999      41.799999999999997
   125   1      5.7000000000000028                      19      47.499999999999993
   126   1      5.7000000000000028      20.899999999999999      45.599999999999994
   127   1      5.7000000000000028                      19       51.29999999999999
   128   1      5.7000000000000028      20.899999999999999      49.399999999999991
   129   1      5.7000000000000028                      19      55.099999999999994
   130   1      5.7000000000000028      20.899999999999999      53.199999999999996
   131   1      5.7000000000000028                      19      58.899999999999991
   132   1      5.7000000000000028      20.899999999999999      56.999999999999993
   133   1      5.7000000000000028                      19      62.700000000000003
   134   1      5.7000000000000028      20.899999999999999       60.79999999999999
   135   1      5.7000000000000028                      19                    66.5
   136   1      5.7000000000000028      20.899999999999999      64.599999999999994
   137   1      5.7000000000000028                      19      70.299999999999997
   138   1      5.7000000000000028      20.899999999999999      68.399999999999991
   139   1      5.7000000000000028      22.799999999999997      13.299999999999999
   140   1      5.7000000000000028      22.799999999999997      17.099999999999998
   141   1      5.7000000000000028      24.699999999999996      15.199999999999998
   142   1      5.7000000000000028      22.799999999999997      20.899999999999999
   143   1      5.7000000000000028      24.699999999999996                      19
   144   1      3.8000000000000043      22.799999999999997      22.799999999999997
   145   1      3.8000000000000043      24.699999999999996      24.699999999999996
   146   1      5.7000000000000028      22.799999999999997      24.699999999999996
   147   1      5.7000000000000028      24.699999999999996      22.799999999999997
   148   1      3.8000000000000043      22.799999999999997      26.599999999999998
   149   1      3.8000000000000043      24.699999999999996      28.499999999999996
   150   1      5.7000000000000028      22.799999999999997      28.499999999999996
   151   1      5.7000000000000028      24.699999999999996      26.599999999999998
   152   1      3.8000000000000043      22.799999999999997      30.399999999999995
   153   1      3.8000000000000043      24.699999999999996      32.299999999999997
   154   1      5.7000000000000028      22.799999999999997      32.299999999999997
   155   1      5.7000000000000028      24.699999999999996      30.399999999999995
   156   1      3.8000000000000043      22.799999999999997      34.199999999999996
   157   1      3.8000000000000043      24.699999999999996      36.099999999999994
   158   1      5.7000000000000028      22.799999999999997      36.099999999999994
   159   1      5.7000000000000028      24.699999999999996      34.199999999999996
   160   1      3.8000000000000043      22.799999999999997      37.999999999999993
   161   1      3.8000000000000043      24.699999999999996      39.899999999999991
   162   1      5.7000000000000028      22.799999999999997      39.899999999999991
   163   1      5.7000000000000028      24.699999999999996      37.999999999999993
   164   1      3.8000000000000043      22.799999999999997      41.799999999999997
   165   1      3.8000000000000043      24.699999999999996      43.699999999999996
   166   1      5.7000000000000028      22.799999999999997      43.699999999999996
   167   1      5.7000000000000028      24.699999999999996      41.799999999999997
   168   1      3.8000000000000043      22.799999999999997      45.599999999999994
   169   1      3.8000000000000043      24.699999999999996      47.499999999999993
   170   1      5.7000000000000028      22.799999999999997      47.499999999999993
   171   1      5.7000000000000028      24.699999999999996      45.599999999999994
   172   1      3.8000000000000043      22.799999999999997      49.399999999999991
   173   1      3.8000000000000043      24.699999999999996       51.29999999999999
   174   1      5.7000000000000028      22.799999999999997       51.29999999999999
   175   1      5.7000000000000028      24.699999999999996      49.399999999999991
   176   1      3.8000000000000043      22.799999999999997      53.199999999999996
   177   1      3.8000000000000043      24.699999999999996      55.099999999999994
   178   1      5.7000000000000028      22.799999999999997      55.099999999999994
   179   1      5.7000000000000028      24.699999999999996      53.199999999999996
   180   1      3.8000000000000043      22.799999999999997      56.999999999999993
   181   1      3.8000000000000043      24.699999999999996      58.899999999999991
   182   1      5.7000000000000028      22.799999999999997      58.899999999999991
   183   1      5.7000000000000028      24.699999999999996      56.999999999999993
   184   1      3.8000000000000043      22.799999999999997       60.79999999999999
   185   1      5.7000000000000028      22.799999999999997      62.700000000000003
   186   1      5.7000000000000028      24.699999999999996       60.79999999999999
   187   1      5.7000000000000028      22.799999999999997                    66.5
   188   1      5.7000000000000028      24.699999999999996      64.599999999999994
   189   1      5.7000000000000028      22.799999999999997      70.299999999999997
   190   1      5.7000000000000028      24.699999999999996      68.399999999999991
   191   1      5.7000000000000028      26.599999999999998      13.299999999999999
   192   1      5.7000000000000028      26.599999999999998      17.099999999999998
   193   1      5.7000000000000028      28.499999999999996      15.199999999999998
   194   1      5.7000000000000028      26.599999999999998      20.899999999999999
   195   1      5.7000000000000028      28.499999999999996                      19
   196   1      3.8000000000000043      26.599999999999998      22.799999999999997
   197   1      3.8000000000000043      28.499999999999996      24.699999999999996
   198   1      5.7000000000000028      26.599999999999998      24.699999999999996
   199   1      5.7000000000000028      28.499999999999996      22.799999999999997
   200   1      3.8000000000000043      26.599999999999998      26.599999999999998
   201   1      3.8000000000000043      28.499999999999996      28.499999999999996
   202   1      5.7000000000000028      26.599999999999998      28.499999999999996
   203   1      5.7000000000000028      28.499999999999996      26.599999999999998
   204   1      3.8000000000000043      26.599999999999998      30.399999999999995
   205   1      3.8000000000000043      28.499999999999996      32.299999999999997
   206   1      5.7000000000000028      26.599999999999998      32.299999999999997
   207   1      5.7000000000000028      28.499999999999996      30.399999999999995
   208   1      3.8000000000000043      26.599999999999998      34.199999999999996
   209   1      3.8000000000000043      28.499999999999996      36.099999999999994
   210   1      5.7000000000000028      26.599999999999998      36.099999999999994
   211   1      5.7000000000000028      28.499999999999996      34.199999999999996
   212   1      3.8000000000000043      26.599999999999998      37.999999999999993
   213   1      3.8000000000000043      28.499999999999996      39.899999999999991
   214   1      5.7000000000000028      26.599999999999998      39.899999999999991
   215   1      5.7000000000000028      28.499999999999996      37.999999999999993
   216   1      3.8000000000000043      26.599999999999998      41.799999999999997
   217   1      3.8000000000000043      28.499999999999996      43.699999999999996
   218   1      5.7000000000000028      26.599999999999998      43.699999999999996
   219   1      5.7000000000000028      28.499999999999996      41.799999999999997
   220   1      3.8000000000000043      26.599999999999998      45.599999999999994
   221   1      3.8000000000000043      28.499999999999996      47.499999999999993
   222   1      5.7000000000000028      26.599999999999998      47.499999999999993
   223   1      5.7000000000000028      28.499999999999996      45.599999999999994
   224   1      3.8000000000000043      26.599999999999998      49.399999999999991
   225   1      3.8000000000000043      28.499999999999996       51.29999999999999
   226   1      5.7000000000000028      26.599999999999998       51.29999999999999
   227   1      5.7000000000000028      28.499999999999996      49.399999999999991
   228   1      3.8000000000000043      26.599999999999998      53.199999999999996
   229   1      3.8000000000000043      28.499999999999996      55.099999999999994
   230   1      5.7000000000000028      26.599999999999998      55.099999999999994
   231   1      5.7000000000000028      28.499999999999996      53.199999999999996
   232   1      3.8000000000000043      26.599999999999998      56.999999999999993
   233   1      3.8000000000000043      28.499999999999996      58.899999999999991
   234   1      5.7000000000000028      26.599999999999998      58.899999999999991
   235   1      5.7000000000000028      28.499999999999996      56.999999999999993
   236   1      3.8000000000000043      26.599999999999998       60.79999999999999
   237   1      5.7000000000000028      26.599999999999998      62.700000000000003
   238   1      5.7000000000000028      28.499999999999996       60.79999999999999
   239   1      5.7000000000000028      26.599999999999998                    66.5
   240   1      5.7000000000000028      28.499999999999996      64.599999999999994
   241   1      5.7000000000000028      26.599999999999998      70.299999999999997
   242   1      5.7000000000000028      28.499999999999996      68.399999999999991
   243   1      5.7000000000000028      30.399999999999995      13.299999999999999
   244   1      5.7000000000000028      30.399999999999995      17.099999999999998
   245   1      5.7000000000000028      32.299999999999997      15.199999999999998
   246   1      5.7000000000000028      30.399999999999995      20.899999999999999
   247   1      5.7000000000000028      32.299999999999997                      19
   248   1      3.8000000000000043      30.399999999999995      22.799999999999997
   249   1      3.8000000000000043      32.299999999999997      24.699999999999996
   250   1      5.7000000000000028      30.399999999999995      24.699999999999996
   251   1      5.7000000000000028      32.299999999999997      22.799999999999997
   252   1      3.8000000000000043      30.399999999999995      26.599999999999998
   253   1      3.8000000000000043      32.299999999999997      28.499999999999996
   254   1      5.7000000000000028      30.399999999999995      28.499999999999996
   255   1      5.7000000000000028      32.299999999999997      26.599999999999998
   256   1      3.8000000000000043      30.399999999999995      30.399999999999995
   257   1      3.8000000000000043      32.299999999999997      32.299999999999997
   258   1      5.7000000000000028      30.399999999999995      32.299999999999997
   259   1      5.7000000000000028      32.299999999999997      30.399999999999995
   260   1      3.8000000000000043      30.399999999999995      34.199999999999996
   261   1      3.8000000000000043      32.299999999999997      36.099999999999994
   262   1      5.7000000000000028      30.399999999999995      36.099999999999994
   263   1      5.7000000000000028      32.299999999999997      34.199999999999996
   264   1      3.8000000000000043      30.399999999999995      37.999999999999993
   265   1      3.8000000000000043      32.299999999999997      39.899999999999991
   266   1      5.7000000000000028      30.399999999999995      39.899999999999991
   267   1      5.7000000000000028      32.299999999999997      37.999999999999993
   268   1      3.8000000000000043      30.399999999999995      41.799999999999997
   269   1      3.8000000000000043      32.299999999999997      43.699999999999996
   270   1      5.7000000000000028      30.399999999999995      43.699999999999996
   271   1      5.7000000000000028      32.299999999999997      41.799999999999997
   272   1      3.8000000000000043      30.399999999999995      45.599999999999994
   273   1      3.8000000000000043      32.299999999999997      47.499999999999993
   274   1      5.7000000000000028      30.399999999999995      47.499999999999993
   275   1      5.7000000000000028      32.299999999999997      45.599999999999994
   276   1      3.8000000000000043      30.399999999999995      49.399999999999991
   277   1      3.8000000000000043      32.299999999999997       51.29999999999999
   278   1      5.7000000000000028      30.399999999999995       51.29999999999999
   279   1      5.7000000000000028      32.299999999999997      49.399999999999991
   280   1      3.8000000000000043      30.399999999999995      53.199999999999996
   281   1      3.8000000000000043      32.299999999999997      55.099999999999994
   282   1      5.7000000000000028      30.399999999999995      55.099999999999994
   283   1      5.7000000000000028      32.299999999999997      53.199999999999996
   284   1      3.8000000000000043      30.399999999999995      56.999999999999993
   285   1      3.8000000000000043      32.299999999999997      58.899999999999991
   286   1      5.7000000000000028      30.399999999999995      58.899999999999991
   287   1      5.7000000000000028      32.299999999999997      56.999999999999993
   288   1      3.8000000000000043      30.399999999999995       60.79999999999999
   289   1      5.7000000000000028      30.399999999999995      62.700000000000003
   290   1      5.7000000000000028      32.299999999999997       60.79999999999999
   291   1      5.7000000000000028      30.399999999999995                    66.5
   292   1      5.7000000000000028      32.299999999999997      64.599999999999994
   293   1      5.7000000000000028      30.399999999999995      70.299999999999997
   294   1      5.7000000000000028      32.299999999999997      68.399999999999991
   295   1      5.7000000000000028      34.199999999999996      13.299999999999999
   296   1      5.7000000000000028      34.199999999999996      17.099999999999998
   297   1      5.7000000000000028      36.099999999999994      15.199999999999998
   298   1      5.7000000000000028      34.199999999999996      20.899999999999999
   299   1      5.7000000000000028      36.099999999999994                      19
   300   1      3.8000000000000043      34.199999999999996      22.799999999999997
   301   1      3.8000000000000043      36.099999999999994      24.699999999999996
   302   1      5.7000000000000028      34.199999999999996      24.699999999999996
   303   1      5.7000000000000028      36.099999999999994      22.799999999999997
   304   1      3.8000000000000043      34.199999999999996      26.599999999999998
   305   1      3.8000000000000043      36.099999999999994      28.499999999999996
   306   1      5.7000000000000028      34.199999999999996      28.499999999999996
   307   1      5.7000000000000028      36.099999999999994      26.599999999999998
   308   1      3.8000000000000043      34.199999999999996      30.399999999999995
   309   1      3.8000000000000043      36.099999999999994      32.299999999999997
   310   1      5.7000000000000028      34.199999999999996      32.299999999999997
   311   1      5.7000000000000028      36.099999999999994      30.399999999999995
   312   1      3.8000000000000043      34.199999999999996      34.199999999999996
   313   1      3.8000000000000043      36.099999999999994      36.099999999999994
   314   1      5.7000000000000028      34.199999999999996      36.099999999999994
   315   1      5.7000000000000028      36.099999999999994      34.199999999999996
   316   1      3.8000000000000043      34.199999999999996      37.999999999999993
   317   1      3.8000000000000043      36.099999999999994      39.899999999999991
   318   1      5.7000000000000028      34.199999999999996      39.899999999999991
   319   1      5.7000000000000028      36.099999999999994      37.999999999999993
   320   1      3.8000000000000043      34.199999999999996      41.799999999999997
   321   1      3.8000000000000043      36.099999999999994      43.699999999999996
   322   1      5.7000000000000028      34.199999999999996      43.699999999999996
   323   1      5.7000000000000028      36.099999999999994      41.799999999999997
   324   1      3.8000000000000043      34.199999999999996      45.599999999999994
   325   1      3.8000000000000043      36.099999999999994      47.499999999999993
   326   1      5.7000000000000028      34.199999999999996      47.499999999999993
   327   1      5.7000000000000028      36.099999999999994      45.599999999999994
   328   1      3.8000000000000043      34.199999999999996      49.399999999999991
   329   1      3.8000000000000043      36.099999999999994       51.29999999999999
   330   1      5.7000000000000028      34.199999999999996       51.29999999999999
   331   1      5.7000000000000028      36.099999999999994      49.399999999999991
   332   1      3.8000000000000043      34.199999999999996      53.199999999999996
   333   1      3.8000000000000043      36.099999999999994      55.099999999999994
   334   1      5.7000000000000028      34.199999999999996      55.099999999999994
   335   1      5.7000000000000028      36.099999999999994      53.199999999999996
   336   1      3.8000000000000043      34.199999999999996      56.999999999999993
   337   1      3.8000000000000043      36.099999999999994      58.899999999999991
   338   1      5.7000000000000028      34.199999999999996      58.899999999999991
   339   1      5.7000000000000028      36.099999999999994      56.999999999999993
   340   1      3.8000000000000043      34.199999999999996       60.79999999999999
   341   1      5.7000000000000028      34.199999999999996      62.700000000000003
   342   1      5.7000000000000028      36.099999999999994       60.79999999999999
   343   1      5.7000000000000028      34.199999999999996                    66.5
   344   1      5.7000000000000028      36.099999999999994      64.599999999999994
   345   1      5.7000000000000028      34.199999999999996      70.299999999999997
   346   1      5.7000000000000028      36.099999999999994      68.399999999999991
   347   1      5.7000000000000028      37.999999999999993      13.299999999999999
   348   1      5.7000000000000028      37.999999999999993      17.099999999999998
   349   1      5.7000000000000028      39.899999999999991      15.199999999999998
   350   1      5.7000000000000028      37.999999999999993      20.899999999999999
   351   1      5.7000000000000028      39.899999999999991                      19
   352   1      3.8000000000000043      37.999999999999993      22.799999999999997
   353   1      3.8000000000000043      39.899999999999991      24.699999999999996
   354   1      5.7000000000000028      37.999999999999993      24.699999999999996
   355   1      5.7000000000000028      39.899999999999991      22.799999999999997
   356   1      3.8000000000000043      37.999999999999993      26.599999999999998
   357   1      3.8000000000000043      39.899999999999991      28.499999999999996
   358   1      5.7000000000000028      37.999999999999993      28.499999999999996