LAMMPS data file via write_data, version 30 Nov 2020, timestep = 0

30217 atoms
5 atom types

0 114 xlo xhi
0 114 ylo yhi
0 114 zlo zhi

Masses

1 58.7
2 55.8
3 52
4 59
5 63

Atoms # atomic

6 2 5.35499999999999 51.764999999999986 53.54999999999999 0 0 0
9 2 5.35499999999999 53.54999999999999 51.764999999999986 0 0 0
10 5 3.569999999999993 53.54999999999999 53.54999999999999 0 0 0
11 2 3.569999999999993 55.33499999999998 55.33499999999998 0 0 0
12 5 5.35499999999999 53.54999999999999 55.33499999999998 0 0 0
13 4 5.35499999999999 55.33499999999998 53.54999999999999 0 0 0
43 3 8.92499999999999 48.19499999999998 53.54999999999999 0 0 0
46 5 7.139999999999993 51.764999999999986 51.764999999999986 0 0 0
47 2 8.92499999999999 49.97999999999998 51.764999999999986 0 0 0
48 5 8.92499999999999 51.764999999999986 49.97999999999998 0 0 0
49 4 7.139999999999993 49.97999999999998 53.54999999999999 0 0 0
50 3 7.139999999999993 51.764999999999986 55.33499999999998 0 0 0
51 4 8.92499999999999 49.97999999999998 55.33499999999998 0 0 0
52 1 8.92499999999999 51.764999999999986 53.54999999999999 0 0 0
62 3 8.92499999999999 53.54999999999999 48.19499999999998 0 0 0
63 4 7.139999999999993 53.54999999999999 49.97999999999998 0 0 0
64 1 7.139999999999993 55.33499999999998 51.764999999999986 0 0 0
65 1 8.92499999999999 53.54999999999999 51.764999999999986 0 0 0
66 2 8.92499999999999 55.33499999999998 49.97999999999998 0 0 0
67 1 7.139999999999993 53.54999999999999 53.54999999999999 0 0 0
68 4 7.139999999999993 55.33499999999998 55.33499999999998 0 0 0
69 4 8.92499999999999 53.54999999999999 55.33499999999998 0 0 0
70 3 8.92499999999999 55.33499999999998 53.54999999999999 0 0 0
132 5 12.49499999999999 44.624999999999986 53.54999999999999 0 0 0
135 3 10.709999999999994 48.19499999999998 48.19499999999998 0 0 0
136 4 12.49499999999999 46.40999999999999 48.19499999999998 0 0 0
137 5 12.49499999999999 48.19499999999998 46.40999999999999 0 0 0
138 4 10.709999999999994 48.19499999999998 51.764999999999986 0 0 0
139 4 12.49499999999999 46.40999999999999 51.764999999999986 0 0 0
140 5 12.49499999999999 48.19499999999998 49.97999999999998 0 0 0
141 1 10.709999999999994 46.40999999999999 53.54999999999999 0 0 0
142 3 10.709999999999994 48.19499999999998 55.33499999999998 0 0 0
143 1 12.49499999999999 46.40999999999999 55.33499999999998 0 0 0
144 2 12.49499999999999 48.19499999999998 53.54999999999999 0 0 0
157 3 10.709999999999994 51.764999999999986 48.19499999999998 0 0 0
158 1 12.49499999999999 49.97999999999998 48.19499999999998 0 0 0
159 4 12.49499999999999 51.764999999999986 46.40999999999999 0 0 0
160 5 10.709999999999994 49.97999999999998 49.97999999999998 0 0 0
161 4 10.709999999999994 51.764999999999986 51.764999999999986 0 0 0
162 1 12.49499999999999 49.97999999999998 51.764999999999986 0 0 0
163 4 12.49499999999999 51.764999999999986 49.97999999999998 0 0 0
164 4 10.709999999999994 49.97999999999998 53.54999999999999 0 0 0
165 1 10.709999999999994 51.764999999999986 55.33499999999998 0 0 0
166 1 12.49499999999999 49.97999999999998 55.33499999999998 0 0 0
167 4 12.49499999999999 51.764999999999986 53.54999999999999 0 0 0
181 5 12.49499999999999 53.54999999999999 44.624999999999986 0 0 0
182 5 10.709999999999994 53.54999999999999 46.40999999999999 0 0 0
183 5 10.709999999999994 55.33499999999998 48.19499999999998 0 0 0
184 1 12.49499999999999 53.54999999999999 48.19499999999998 0 0 0
185 4 12.49499999999999 55.33499999999998 46.40999999999999 0 0 0
186 1 10.709999999999994 53.54999999999999 49.97999999999998 0 0 0
187 4 10.709999999999994 55.33499999999998 51.764999999999986 0 0 0
188 2 12.49499999999999 53.54999999999999 51.764999999999986 0 0 0
189 3 12.49499999999999 55.33499999999998 49.97999999999998 0 0 0
190 5 10.709999999999994 53.54999999999999 53.54999999999999 0 0 0
191 3 10.709999999999994 55.33499999999998 55.33499999999998 0 0 0
192 5 12.49499999999999 53.54999999999999 55.33499999999998 0 0 0
193 1 12.49499999999999 55.33499999999998 53.54999999999999 0 0 0
301 3 16.06499999999999 41.05499999999998 53.54999999999999 0 0 0
304 3 14.279999999999985 44.624999999999986 48.19499999999998 0 0 0
305 5 16.06499999999999 42.83999999999998 48.19499999999998 0 0 0
306 4 16.06499999999999 44.624999999999986 46.40999999999999 0 0 0
307 2 14.279999999999985 44.624999999999986 51.764999999999986 0 0 0
308 5 16.06499999999999 42.83999999999998 51.764999999999986 0 0 0
309 5 16.06499999999999 44.624999999999986 49.97999999999998 0 0 0
310 5 14.279999999999985 42.83999999999998 53.54999999999999 0 0 0
311 4 14.279999999999985 44.624999999999986 55.33499999999998 0 0 0
312 1 16.06499999999999 42.83999999999998 55.33499999999998 0 0 0
313 4 16.06499999999999 44.624999999999986 53.54999999999999 0 0 0
326 2 14.279999999999985 48.19499999999998 44.624999999999986 0 0 0
327 4 16.06499999999999 46.40999999999999 44.624999999999986 0 0 0
328 3 16.06499999999999 48.19499999999998 42.83999999999998 0 0 0
329 4 14.279999999999985 46.40999999999999 46.40999999999999 0 0 0
330 3 14.279999999999985 48.19499999999998 48.19499999999998 0 0 0
331 4 16.06499999999999 46.40999999999999 48.19499999999998 0 0 0
332 4 16.06499999999999 48.19499999999998 46.40999999999999 0 0 0
333 3 14.279999999999985 46.40999999999999 49.97999999999998 0 0 0
334 3 14.279999999999985 48.19499999999998 51.764999999999986 0 0 0
335 5 16.06499999999999 46.40999999999999 51.764999999999986 0 0 0
336 2 16.06499999999999 48.19499999999998 49.97999999999998 0 0 0
337 4 14.279999999999985 46.40999999999999 53.54999999999999 0 0 0
338 3 14.279999999999985 48.19499999999998 55.33499999999998 0 0 0
339 3 16.06499999999999 46.40999999999999 55.33499999999998 0 0 0
340 2 16.06499999999999 48.19499999999998 53.54999999999999 0 0 0
358 2 14.279999999999985 51.764999999999986 44.624999999999986 0 0 0
359 5 16.06499999999999 49.97999999999998 44.624999999999986 0 0 0
360 5 16.06499999999999 51.764999999999986 42.83999999999998 0 0 0
361 3 14.279999999999985 49.97999999999998 46.40999999999999 0 0 0
362 1 14.279999999999985 51.764999999999986 48.19499999999998 0 0 0
363 2 16.06499999999999 49.97999999999998 48.19499999999998 0 0 0
364 2 16.06499999999999 51.764999999999986 46.40999999999999 0 0 0
365 3 14.279999999999985 49.97999999999998 49.97999999999998 0 0 0
366 2 14.279999999999985 51.764999999999986 51.764999999999986 0 0 0
367 3 16.06499999999999 49.97999999999998 51.764999999999986 0 0 0
368 3 16.06499999999999 51.764999999999986 49.97999999999998 0 0 0
369 2 14.279999999999985 49.97999999999998 53.54999999999999 0 0 0
370 3 14.279999999999985 51.764999999999986 55.33499999999998 0 0 0
371 3 16.06499999999999 49.97999999999998 55.33499999999998 0 0 0
372 1 16.06499999999999 51.764999999999986 53.54999999999999 0 0 0
390 3 16.06499999999999 53.54999999999999 41.05499999999998 0 0 0
391 5 14.279999999999985 53.54999999999999 42.83999999999998 0 0 0
392 2 14.279999999999985 55.33499999999998 44.624999999999986 0 0 0
393 5 16.06499999999999 53.54999999999999 44.624999999999986 0 0 0
394 3 16.06499999999999 55.33499999999998 42.83999999999998 0 0 0
395 3 14.279999999999985 53.54999999999999 46.40999999999999 0 0 0
396 2 14.279999999999985 55.33499999999998 48.19499999999998 0 0 0
397 4 16.06499999999999 53.54999999999999 48.19499999999998 0 0 0
398 5 16.06499999999999 55.33499999999998 46.40999999999999 0 0 0
399 3 14.279999999999985 53.54999999999999 49.97999999999998 0 0 0
400 5 14.279999999999985 55.33499999999998 51.764999999999986 0 0 0
401 3 16.06499999999999 53.54999999999999 51.764999999999986 0 0 0
402 1 16.06499999999999 55.33499999999998 49.97999999999998 0 0 0
403 5 14.279999999999985 53.54999999999999 53.54999999999999 0 0 0
404 3 14.279999999999985 55.33499999999998 55.33499999999998 0 0 0
405 4 16.06499999999999 53.54999999999999 55.33499999999998 0 0 0
406 3 16.06499999999999 55.33499999999998 53.54999999999999 0 0 0
570 1 19.63499999999999 37.484999999999985 53.54999999999999 0 0 0
573 3 17.84999999999999 41.05499999999998 48.19499999999998 0 0 0
574 4 19.63499999999999 39.26999999999999 48.19499999999998 0 0 0
575 1 19.63499999999999 41.05499999999998 46.40999999999999 0 0 0
576 1 17.84999999999999 41.05499999999998 51.764999999999986 0 0 0
577 2 19.63499999999999 39.26999999999999 51.764999999999986 0 0 0
578 2 19.63499999999999 41.05499999999998 49.97999999999998 0 0 0
579 4 17.84999999999999 39.26999999999999 53.54999999999999 0 0 0
580 5 17.84999999999999 41.05499999999998 55.33499999999998 0 0 0
581 5 19.63499999999999 39.26999999999999 55.33499999999998 0 0 0
582 4 19.63499999999999 41.05499999999998 53.54999999999999 0 0 0
595 4 17.84999999999999 44.624999999999986 44.624999999999986 0 0 0
596 4 19.63499999999999 42.83999999999998 44.624999999999986 0 0 0
597 3 19.63499999999999 44.624999999999986 42.83999999999998 0 0 0
598 2 17.84999999999999 42.83999999999998 46.40999999999999 0 0 0
599 3 17.84999999999999 44.624999999999986 48.19499999999998 0 0 0
600 5 19.63499999999999 42.83999999999998 48.19499999999998 0 0 0
601 4 19.63499999999999 44.624999999999986 46.40999999999999 0 0 0
602 4 17.84999999999999 42.83999999999998 49.97999999999998 0 0 0
603 5 17.84999999999999 44.624999999999986 51.764999999999986 0 0 0
604 4 19.63499999999999 42.83999999999998 51.764999999999986 0 0 0
605 2 19.63499999999999 44.624999999999986 49.97999999999998 0 0 0
606 5 17.84999999999999 42.83999999999998 53.54999999999999 0 0 0
607 5 17.84999999999999 44.624999999999986 55.33499999999998 0 0 0
608 2 19.63499999999999 42.83999999999998 55.33499999999998 0 0 0
609 5 19.63499999999999 44.624999999999986 53.54999999999999 0 0 0
627 1 17.84999999999999 48.19499999999998 41.05499999999998 0 0 0
628 5 19.63499999999999 46.40999999999999 41.05499999999998 0 0 0
629 3 19.63499999999999 48.19499999999998 39.26999999999999 0 0 0
630 3 17.84999999999999 46.40999999999999 42.83999999999998 0 0 0
631 2 17.84999999999999 48.19499999999998 44.624999999999986 0 0 0
632 1 19.63499999999999 46.40999999999999 44.624999999999986 0 0 0
633 1 19.63499999999999 48.19499999999998 42.83999999999998 0 0 0
634 4 17.84999999999999 46.40999999999999 46.40999999999999 0 0 0
635 4 17.84999999999999 48.19499999999998 48.19499999999998 0 0 0
636 3 19.63499999999999 46.40999999999999 48.19499999999998 0 0 0
637 1 19.63499999999999 48.19499999999998 46.40999999999999 0 0 0
638 3 17.84999999999999 46.40999999999999 49.97999999999998 0 0 0
639 3 17.84999999999999 48.19499999999998 51.764999999999986 0 0 0
640 5 19.63499999999999 46.40999999999999 51.764999999999986 0 0 0
641 5 19.63499999999999 48.19499999999998 49.97999999999998 0 0 0
642 4 17.84999999999999 46.40999999999999 53.54999999999999 0 0 0
643 1 17.84999999999999 48.19499999999998 55.33499999999998 0 0 0
644 5 19.63499999999999 46.40999999999999 55.33499999999998 0 0 0
645 3 19.63499999999999 48.19499999999998 53.54999999999999 0 0 0
667 1 17.84999999999999 51.764999999999986 41.05499999999998 0 0 0
668 1 19.63499999999999 49.97999999999998 41.05499999999998 0 0 0
669 4 19.63499999999999 51.764999999999986 39.26999999999999 0 0 0
670 5 17.84999999999999 49.97999999999998 42.83999999999998 0 0 0
671 3 17.84999999999999 51.764999999999986 44.624999999999986 0 0 0
672 2 19.63499999999999 49.97999999999998 44.624999999999986 0 0 0
673 4 19.63499999999999 51.764999999999986 42.83999999999998 0 0 0
674 2 17.84999999999999 49.97999999999998 46.40999999999999 0 0 0
675 5 17.84999999999999 51.764999999999986 48.19499999999998 0 0 0
676 1 19.63499999999999 49.97999999999998 48.19499999999998 0 0 0
677 5 19.63499999999999 51.764999999999986 46.40999999999999 0 0 0
678 4 17.84999999999999 49.97999999999998 49.97999999999998 0 0 0
679 5 17.84999999999999 51.764999999999986 51.764999999999986 0 0 0
680 1 19.63499999999999 49.97999999999998 51.764999999999986 0 0 0
681 5 19.63499999999999 51.764999999999986 49.97999999999998 0 0 0
682 3 17.84999999999999 49.97999999999998 53.54999999999999 0 0 0
683 4 17.84999999999999 51.764999999999986 55.33499999999998 0 0 0
684 4 19.63499999999999 49.97999999999998 55.33499999999998 0 0 0
685 2 19.63499999999999 51.764999999999986 53.54999999999999 0 0 0
707 5 19.63499999999999 53.54999999999999 37.484999999999985 0 0 0
708 2 17.84999999999999 53.54999999999999 39.26999999999999 0 0 0
709 5 17.84999999999999 55.33499999999998 41.05499999999998 0 0 0
710 4 19.63499999999999 53.54999999999999 41.05499999999998 0 0 0
711 3 19.63499999999999 55.33499999999998 39.26999999999999 0 0 0
712 4 17.84999999999999 53.54999999999999 42.83999999999998 0 0 0
713 3 17.84999999999999 55.33499999999998 44.624999999999986 0 0 0
714 5 19.63499999999999 53.54999999999999 44.624999999999986 0 0 0
715 3 19.63499999999999 55.33499999999998 42.83999999999998 0 0 0
716 3 17.84999999999999 53.54999999999999 46.40999999999999 0 0 0
717 4 17.84999999999999 55.33499999999998 48.19499999999998 0 0 0
718 2 19.63499999999999 53.54999999999999 48.19499999999998 0 0 0
719 4 19.63499999999999 55.33499999999998 46.40999999999999 0 0 0
720 4 17.84999999999999 53.54999999999999 49.97999999999998 0 0 0
721 4 17.84999999999999 55.33499999999998 51.764999999999986 0 0 0
722 4 19.63499999999999 53.54999999999999 51.764999999999986 0 0 0
723 3 19.63499999999999 55.33499999999998 49.97999999999998 0 0 0
724 2 17.84999999999999 53.54999999999999 53.54999999999999 0 0 0
725 4 17.84999999999999 55.33499999999998 55.33499999999998 0 0 0
726 1 19.63499999999999 53.54999999999999 55.33499999999998 0 0 0
727 5 19.63499999999999 55.33499999999998 53.54999999999999 0 0 0
955 5 23.20499999999999 33.914999999999985 53.54999999999999 0 0 0
958 3 21.419999999999987 37.484999999999985 48.19499999999998 0 0 0
959 3 23.20499999999999 35.69999999999998 48.19499999999998 0 0 0
960 4 23.20499999999999 37.484999999999985 46.40999999999999 0 0 0
961 3 21.419999999999987 37.484999999999985 51.764999999999986 0 0 0
962 3 23.20499999999999 35.69999999999998 51.764999999999986 0 0 0
963 2 23.20499999999999 37.484999999999985 49.97999999999998 0 0 0
964 2 21.419999999999987 35.69999999999998 53.54999999999999 0 0 0
965 3 21.419999999999987 37.484999999999985 55.33499999999998 0 0 0
966 2 23.20499999999999 35.69999999999998 55.33499999999998 0 0 0
967 1 23.20499999999999 37.484999999999985 53.54999999999999 0 0 0
980 5 21.419999999999987 41.05499999999998 41.05499999999998 0 0 0
981 1 23.20499999999999 39.26999999999999 41.05499999999998 0 0 0
982 1 23.20499999999999 41.05499999999998 39.26999999999999 0 0 0
983 4 21.419999999999987 41.05499999999998 44.624999999999986 0 0 0
984 5 23.20499999999999 39.26999999999999 44.624999999999986 0 0 0
985 2 23.20499999999999 41.05499999999998 42.83999999999998 0 0 0
986 4 21.419999999999987 39.26999999999999 46.40999999999999 0 0 0
987 2 21.419999999999987 41.05499999999998 48.19499999999998 0 0 0
988 4 23.20499999999999 39.26999999999999 48.19499999999998 0 0 0
989 1 23.20499999999999 41.05499999999998 46.40999999999999 0 0 0
990 1 21.419999999999987 39.26999999999999 49.97999999999998 0 0 0
991 5 21.419999999999987 41.05499999999998 51.764999999999986 0 0 0
992 4 23.20499999999999 39.26999999999999 51.764999999999986 0 0 0
993 2 23.20499999999999 41.05499999999998 49.97999999999998 0 0 0
994 4 21.419999999999987 39.26999999999999 53.54999999999999 0 0 0
995 3 21.419999999999987 41.05499999999998 55.33499999999998 0 0 0
996 1 23.20499999999999 39.26999999999999 55.33499999999998 0 0 0
997 1 23.20499999999999 41.05499999999998 53.54999999999999 0 0 0
1018 1 21.419999999999987 44.624999999999986 41.05499999999998 0 0 0
1019 3 23.20499999999999 42.83999999999998 41.05499999999998 0 0 0
1020 1 23.20499999999999 44.624999999999986 39.26999999999999 0 0 0
1021 3 21.419999999999987 42.83999999999998 42.83999999999998 0 0 0
1022 4 21.419999999999987 44.624999999999986 44.624999999999986 0 0 0
1023 1 23.20499999999999 42.83999999999998 44.624999999999986 0 0 0
1024 4 23.20499999999999 44.624999999999986 42.83999999999998 0 0 0
1025 5 21.419999999999987 42.83999999999998 46.40999999999999 0 0 0
1026 5 21.419999999999987 44.624999999999986 48.19499999999998 0 0 0
1027 4 23.20499999999999 42.83999999999998 48.19499999999998 0 0 0
1028 3 23.20499999999999 44.624999999999986 46.40999999999999 0 0 0
1029 4 21.419999999999987 42.83999999999998 49.97999999999998 0 0 0
1030 3 21.419999999999987 44.624999999999986 51.764999999999986 0 0 0
1031 4 23.20499999999999 42.83999999999998 51.764999999999986 0 0 0
1032 3 23.20499999999999 44.624999999999986 49.97999999999998 0 0 0
1033 1 21.419999999999987 42.83999999999998 53.54999999999999 0 0 0
1034 1 21.419999999999987 44.624999999999986 55.33499999999998 0 0 0
1035 2 23.20499999999999 42.83999999999998 55.33499999999998 0 0 0
1036 1 23.20499999999999 44.624999999999986 53.54999999999999 0 0 0
1058 2 21.419999999999987 48.19499999999998 37.484999999999985 0 0 0
1059 3 23.20499999999999 46.40999999999999 37.484999999999985 0 0 0
1060 5 23.20499999999999 48.19499999999998 35.69999999999998 0 0 0
1061 3 21.419999999999987 46.40999999999999 39.26999999999999 0 0 0
1062 2 21.419999999999987 48.19499999999998 41.05499999999998 0 0 0
1063 4 23.20499999999999 46.40999999999999 41.05499999999998 0 0 0
1064 5 23.20499999999999 48.19499999999998 39.26999999999999 0 0 0
1065 4 21.419999999999987 46.40999999999999 42.83999999999998 0 0 0
1066 4 21.419999999999987 48.19499999999998 44.624999999999986 0 0 0
1067 2 23.20499999999999 46.40999999999999 44.624999999999986 0 0 0
1068 2 23.20499999999999 48.19499999999998 42.83999999999998 0 0 0
1069 4 21.419999999999987 46.40999999999999 46.40999999999999 0 0 0
1070 3 21.419999999999987 48.19499999999998 48.19499999999998 0 0 0
1071 2 23.20499999999999 46.40999999999999 48.19499999999998 0 0 0
1072 5 23.20499999999999 48.19499999999998 46.40999999999999 0 0 0
1073 2 21.419999999999987 46.40999999999999 49.97999999999998 0 0 0
1074 2 21.419999999999987 48.19499999999998 51.764999999999986 0 0 0
1075 1 23.20499999999999 46.40999999999999 51.764999999999986 0 0 0
1076 1 23.20499999999999 48.19499999999998 49.97999999999998 0 0 0
1077 1 21.419999999999987 46.40999999999999 53.54999999999999 0 0 0
1078 5 21.419999999999987 48.19499999999998 55.33499999999998 0 0 0
1079 3 23.20499999999999 46.40999999999999 55.33499999999998 0 0 0
1080 5 23.20499999999999 48.19499999999998 53.54999999999999 0 0 0
1106 1 21.419999999999987 51.764999999999986 37.484999999999985 0 0 0
1107 5 23.20499999999999 49.97999999999998 37.484999999999985 0 0 0
1108 4 23.20499999999999 51.764999999999986 35.69999999999998 0 0 0
1109 1 21.419999999999987 49.97999999999998 39.26999999999999 0 0 0
1110 2 21.419999999999987 51.764999999999986 41.05499999999998 0 0 0
1111 2 23.20499999999999 49.97999999999998 41.05499999999998 0 0 0
1112 3 23.20499999999999 51.764999999999986 39.26999999999999 0 0 0
1113 4 21.419999999999987 49.97999999999998 42.83999999999998 0 0 0
1114 4 21.419999999999987 51.764999999999986 44.624999999999986 0 0 0
1115 4 23.20499999999999 49.97999999999998 44.624999999999986 0 0 0
1116 4 23.20499999999999 51.764999999999986 42.83999999999998 0 0 0
1117 3 21.419999999999987 49.97999999999998 46.40999999999999 0 0 0
1118 2 21.419999999999987 51.764999999999986 48.19499999999998 0 0 0
1119 4 23.20499999999999 49.97999999999998 48.19499999999998 0 0 0
1120 2 23.20499999999999 51.764999999999986 46.40999999999999 0 0 0
1121 4 21.419999999999987 49.97999999999998 49.97999999999998 0 0 0
1122 3 21.419999999999987 51.764999999999986 51.764999999999986 0 0 0
1123 4 23.20499999999999 49.97999999999998 51.764999999999986 0 0 0
1124 1 23.20499999999999 51.764999999999986 49.97999999999998 0 0 0
1125 1 21.419999999999987 49.97999999999998 53.54999999999999 0 0 0
1126 2 21.419999999999987 51.764999999999986 55.33499999999998 0 0 0
1127 1 23.20499999999999 49.97999999999998 55.33499999999998 0 0 0
1128 3 23.20499999999999 51.764999999999986 53.54999999999999 0 0 0
1154 2 23.20499999999999 53.54999999999999 33.914999999999985 0 0 0
1155 5 21.419999999999987 53.54999999999999 35.69999999999998 0 0 0
1156 4 21.419999999999987 55.33499999999998 37.484999999999985 0 0 0
1157 1 23.20499999999999 53.54999999999999 37.484999999999985 0 0 0
1158 3 23.20499999999999 55.33499999999998 35.69999999999998 0 0 0
1159 2 21.419999999999987 53.54999999999999 39.26999999999999 0 0 0
1160 4 21.419999999999987 55.33499999999998 41.05499999999998 0 0 0
1161 2 23.20499999999999 53.54999999999999 41.05499999999998 0 0 0
1162 1 23.20499999999999 55.33499999999998 39.26999999999999 0 0 0
1163 4 21.419999999999987 53.54999999999999 42.83999999999998 0 0 0
1164 1 21.419999999999987 55.33499999999998 44.624999999999986 0 0 0
1165 4 23.20499999999999 53.54999999999999 44.624999999999986 0 0 0
1166 5 23.20499999999999 55.33499999999998 42.83999999999998 0 0 0
1167 5 21.419999999999987 53.54999999999999 46.40999999999999 0 0 0
1168 2 21.419999999999987 55.33499999999998 48.19499999999998 0 0 0
1169 5 23.20499999999999 53.54999999999999 48.19499999999998 0 0 0
1170 5 23.20499999999999 55.33499999999998 46.40999999999999 0 0 0
1171 1 21.419999999999987 53.54999999999999 49.97999999999998 0 0 0
1172 5 21.419999999999987 55.33499999999998 51.764999999999986 0 0 0
1173 3 23.20499999999999 53.54999999999999 51.764999999999986 0 0 0
1174 5 23.20499999999999 55.33499999999998 49.97999999999998 0 0 0
1175 5 21.419999999999987 53.54999999999999 53.54999999999999 0 0 0
1176 3 21.419999999999987 55.33499999999998 55.33499999999998 0 0 0
1177 5 23.20499999999999 53.54999999999999 55.33499999999998 0 0 0
1178 1 23.20499999999999 55.33499999999998 53.54999999999999 0 0 0
1484 1 26.77499999999999 30.34499999999998 53.54999999999999 0 0 0
1487 5 24.98999999999999 33.914999999999985 48.19499999999998 0 0 0
1488 2 26.77499999999999 32.12999999999999 48.19499999999998 0 0 0
1489 1 26.77499999999999 33.914999999999985 46.40999999999999 0 0 0
1490 3 24.98999999999999 33.914999999999985 51.764999999999986 0 0 0
1491 5 26.77499999999999 32.12999999999999 51.764999999999986 0 0 0
1492 2 26.77499999999999 33.914999999999985 49.97999999999998 0 0 0
1493 4 24.98999999999999 32.12999999999999 53.54999999999999 0 0 0
1494 1 24.98999999999999 33.914999999999985 55.33499999999998 0 0 0
1495 4 26.77499999999999 32.12999999999999 55.33499999999998 0 0 0
1496 1 26.77499999999999 33.914999999999985 53.54999999999999 0 0 0
1509 2 24.98999999999999 37.484999999999985 41.05499999999998 0 0 0
1510 3 26.77499999999999 35.69999999999998 41.05499999999998 0 0 0
1511 5 26.77499999999999 37.484999999999985 39.26999999999999 0 0 0
1512 2 24.98999999999999 37.484999999999985 44.624999999999986 0 0 0
1513 1 26.77499999999999 35.69999999999998 44.624999999999986 0 0 0
1514 1 26.77499999999999 37.484999999999985 42.83999999999998 0 0 0
1515 1 24.98999999999999 35.69999999999998 46.40999999999999 0 0 0
1516 1 24.98999999999999 37.484999999999985 48.19499999999998 0 0 0
1517 5 26.77499999999999 35.69999999999998 48.19499999999998 0 0 0
1518 1 26.77499999999999 37.484999999999985 46.40999999999999 0 0 0
1519 4 24.98999999999999 35.69999999999998 49.97999999999998 0 0 0
1520 5 24.98999999999999 37.484999999999985 51.764999999999986 0 0 0
1521 5 26.77499999999999 35.69999999999998 51.764999999999986 0 0 0
1522 5 26.77499999999999 37.484999999999985 49.97999999999998 0 0 0
1523 2 24.98999999999999 35.69999999999998 53.54999999999999 0 0 0
1524 3 24.98999999999999 37.484999999999985 55.33499999999998 0 0 0
1525 5 26.77499999999999 35.69999999999998 55.33499999999998 0 0 0
1526 4 26.77499999999999 37.484999999999985 53.54999999999999 0 0 0
1547 3 24.98999999999999 41.05499999999998 37.484999999999985 0 0 0
1548 4 26.77499999999999 39.26999999999999 37.484999999999985 0 0 0
1549 4 26.77499999999999 41.05499999999998 35.69999999999998 0 0 0
1550 3 24.98999999999999 39.26999999999999 39.26999999999999 0 0 0
1551 3 24.98999999999999 41.05499999999998 41.05499999999998 0 0 0
1552 3 26.77499999999999 39.26999999999999 41.05499999999998 0 0 0
1553 3 26.77499999999999 41.05499999999998 39.26999999999999 0 0 0
1554 3 24.98999999999999 39.26999999999999 42.83999999999998 0 0 0
1555 5 24.98999999999999 41.05499999999998 44.624999999999986 0 0 0
1556 3 26.77499999999999 39.26999999999999 44.624999999999986 0 0 0
1557 1 26.77499999999999 41.05499999999998 42.83999999999998 0 0 0
1558 5 24.98999999999999 39.26999999999999 46.40999999999999 0 0 0
1559 2 24.98999999999999 41.05499999999998 48.19499999999998 0 0 0
1560 5 26.77499999999999 39.26999999999999 48.19499999999998 0 0 0
1561 5 26.77499999999999 41.05499999999998 46.40999999999999 0 0 0
1562 1 24.98999999999999 39.26999999999999 49.97999999999998 0 0 0
1563 2 24.98999999999999 41.05499999999998 51.764999999999986 0 0 0
1564 5 26.77499999999999 39.26999999999999 51.764999999999986 0 0 0
1565 1 26.77499999999999 41.05499999999998 49.97999999999998 0 0 0
1566 1 24.98999999999999 39.26999999999999 53.54999999999999 0 0 0
1567 5 24.98999999999999 41.05499999999998 55.33499999999998 0 0 0
1568 5 26.77499999999999 39.26999999999999 55.33499999999998 0 0 0
1569 5 26.77499999999999 41.05499999999998 53.54999999999999 0 0 0
1595 2 24.98999999999999 44.624999999999986 37.484999999999985 0 0 0
1596 4 26.77499999999999 42.83999999999998 37.484999999999985 0 0 0
1597 4 26.77499999999999 44.624999999999986 35.69999999999998 0 0 0
1598 5 24.98999999999999 42.83999999999998 39.26999999999999 0 0 0
1599 3 24.98999999999999 44.624999999999986 41.05499999999998 0 0 0
1600 5 26.77499999999999 42.83999999999998 41.05499999999998 0 0 0
1601 2 26.77499999999999 44.624999999999986 39.26999999999999 0 0 0
1602 5 24.98999999999999 42.83999999999998 42.83999999999998 0 0 0
1603 3 24.98999999999999 44.624999999999986 44.624999999999986 0 0 0
1604 1 26.77499999999999 42.83999999999998 44.624999999999986 0 0 0
1605 5 26.77499999999999 44.624999999999986 42.83999999999998 0 0 0
1606 1 24.98999999999999 42.83999999999998 46.40999999999999 0 0 0
1607 1 24.98999999999999 44.624999999999986 48.19499999999998 0 0 0
1608 1 26.77499999999999 42.83999999999998 48.19499999999998 0 0 0
1609 4 26.77499999999999 44.624999999999986 46.40999999999999 0 0 0
1610 2 24.98999999999999 42.83999999999998 49.97999999999998 0 0 0
1611 3 24.98999999999999 44.624999999999986 51.764999999999986 0 0 0
1612 3 26.77499999999999 42.83999999999998 51.764999999999986 0 0 0
1613 2 26.77499999999999 44.624999999999986 49.97999999999998 0 0 0
1614 1 24.98999999999999 42.83999999999998 53.54999999999999 0 0 0
1615 5 24.98999999999999 44.624999999999986 55.33499999999998 0 0 0
1616 5 26.77499999999999 42.83999999999998 55.33499999999998 0 0 0
1617 5 26.77499999999999 44.624999999999986 53.54999999999999 0 0 0
1643 3 24.98999999999999 48.19499999999998 33.914999999999985 0 0 0
1644 3 26.77499999999999 46.40999999999999 33.914999999999985 0 0 0
1645 5 26.77499999999999 48.19499999999998 32.12999999999999 0 0 0
1646 1 24.98999999999999 46.40999999999999 35.69999999999998 0 0 0
1647 4 24.98999999999999 48.19499999999998 37.484999999999985 0 0 0
1648 3 26.77499999999999 46.40999999999999 37.484999999999985 0 0 0
1649 2 26.77499999999999 48.19499999999998 35.69999999999998 0 0 0
1650 5 24.98999999999999 46.40999999999999 39.26999999999999 0 0 0
1651 2 24.98999999999999 48.19499999999998 41.05499999999998 0 0 0
1652 1 26.77499999999999 46.40999999999999 41.05499999999998 0 0 0
1653 1 26.77499999999999 48.19499999999998 39.26999999999999 0 0 0
1654 3 24.98999999999999 46.40999999999999 42.83999999999998 0 0 0
1655 1 24.98999999999999 48.19499999999998 44.624999999999986 0 0 0
1656 2 26.77499999999999 46.40999999999999 44.624999999999986 0 0 0
1657 2 26.77499999999999 48.19499999999998 42.83999999999998 0 0 0
1658 5 24.98999999999999 46.40999999999999 46.40999999999999 0 0 0
1659 1 24.98999999999999 48.19499999999998 48.19499999999998 0 0 0
1660 1 26.77499999999999 46.40999999999999 48.19499999999998 0 0 0
1661 4 26.77499999999999 48.19499999999998 46.40999999999999 0 0 0
1662 3 24.98999999999999 46.40999999999999 49.97999999999998 0 0 0
1663 1 24.98999999999999 48.19499999999998 51.764999999999986 0 0 0
1664 5 26.77499999999999 46.40999999999999 51.764999999999986 0 0 0
1665 1 26.77499999999999 48.19499999999998 49.97999999999998 0 0 0
1666 2 24.98999999999999 46.40999999999999 53.54999999999999 0 0 0
1667 1 24.98999999999999 48.19499999999998 55.33499999999998 0 0 0
1668 4 26.77499999999999 46.40999999999999 55.33499999999998 0 0 0
1669 2 26.77499999999999 48.19499999999998 53.54999999999999 0 0 0
1699 1 24.98999999999999 51.764999999999986 33.914999999999985 0 0 0
1700 2 26.77499999999999 49.97999999999998 33.914999999999985 0 0 0
1701 3 26.77499999999999 51.764999999999986 32.12999999999999 0 0 0
1702 4 24.98999999999999 49.97999999999998 35.69999999999998 0 0 0
1703 2 24.98999999999999 51.764999999999986 37.484999999999985 0 0 0
1704 1 26.77499999999999 49.97999999999998 37.484999999999985 0 0 0
1705 2 26.77499999999999 51.764999999999986 35.69999999999998 0 0 0
1706 3 24.98999999999999 49.97999999999998 39.26999999999999 0 0 0
1707 5 24.98999999999999 51.764999999999986 41.05499999999998 0 0 0
1708 5 26.77499999999999 49.97999999999998 41.05499999999998 0 0 0
1709 2 26.77499999999999 51.764999999999986 39.26999999999999 0 0 0
1710 5 24.98999999999999 49.97999999999998 42.83999999999998 0 0 0
1711 1 24.98999999999999 51.764999999999986 44.624999999999986 0 0 0
1712 4 26.77499999999999 49.97999999999998 44.624999999999986 0 0 0
1713 1 26.77499999999999 51.764999999999986 42.83999999999998 0 0 0
1714 5 24.98999999999999 49.97999999999998 46.40999999999999 0 0 0
1715 3 24.98999999999999 51.764999999999986 48.19499999999998 0 0 0
1716 2 26.77499999999999 49.97999999999998 48.19499999999998 0 0 0
1717 4 26.77499999999999 51.764999999999986 46.40999999999999 0 0 0
1718 5 24.98999999999999 49.97999999999998 49.97999999999998 0 0 0
1719 3 24.98999999999999 51.764999999999986 51.764999999999986 0 0 0
1720 2 26.77499999999999 49.97999999999998 51.764999999999986 0 0 0