model_files/CuNi/CuNi_30000/CuNi_541/CuNi_541_fcc_30387_temp.data (written by ASE) 

30387 	 atoms 
2  atom types
0.0                     106  xlo xhi
0.0                     106  ylo yhi
0.0                     106  zlo zhi


Atoms 

     1   1      1.7829999999999939      51.707000000000008      53.489999999999995
     2   1      1.7829999999999939      53.489999999999995      51.707000000000008
     3   1                       0      53.489999999999995      53.489999999999995
     4   1      1.7829999999999939      53.489999999999995      55.273000000000003
     5   1      1.7829999999999939      55.273000000000003      53.489999999999995
     6   1      5.3489999999999966      48.140999999999998      49.924000000000007
     7   1      5.3489999999999966      48.140999999999998      53.489999999999995
     8   1      5.3489999999999966      48.140999999999998      57.056000000000012
     9   1      5.3489999999999966      49.924000000000007      48.140999999999998
    10   1      3.5659999999999954      49.924000000000007      49.924000000000007
    11   1      3.5659999999999954      51.707000000000008      51.707000000000008
    12   1      5.3489999999999966      49.924000000000007      51.707000000000008
    13   1      5.3489999999999966      51.707000000000008      49.924000000000007
    14   1      3.5659999999999954      49.924000000000007      53.489999999999995
    15   1      3.5659999999999954      51.707000000000008      55.273000000000003
    16   1      5.3489999999999966      49.924000000000007      55.273000000000003
    17   1      5.3489999999999966      51.707000000000008      53.489999999999995
    18   1      3.5659999999999954      49.924000000000007      57.056000000000012
    19   1      5.3489999999999966      49.924000000000007      58.839000000000006
    20   1      5.3489999999999966      51.707000000000008      57.056000000000012
    21   1      5.3489999999999966      53.489999999999995      48.140999999999998
    22   1      3.5659999999999954      53.489999999999995      49.924000000000007
    23   1      3.5659999999999954      55.273000000000003      51.707000000000008
    24   1      5.3489999999999966      53.489999999999995      51.707000000000008
    25   1      5.3489999999999966      55.273000000000003      49.924000000000007
    26   1      3.5659999999999954      53.489999999999995      53.489999999999995
    27   1      3.5659999999999954      55.273000000000003      55.273000000000003
    28   1      5.3489999999999966      53.489999999999995      55.273000000000003
    29   1      5.3489999999999966      55.273000000000003      53.489999999999995
    30   1      3.5659999999999954      53.489999999999995      57.056000000000012
    31   1      5.3489999999999966      53.489999999999995      58.839000000000006
    32   1      5.3489999999999966      55.273000000000003      57.056000000000012
    33   1      5.3489999999999966      57.056000000000012      48.140999999999998
    34   1      3.5659999999999954      57.056000000000012      49.924000000000007
    35   1      5.3489999999999966      57.056000000000012      51.707000000000008
    36   1      5.3489999999999966      58.839000000000006      49.924000000000007
    37   1      3.5659999999999954      57.056000000000012      53.489999999999995
    38   1      5.3489999999999966      57.056000000000012      55.273000000000003
    39   1      5.3489999999999966      58.839000000000006      53.489999999999995
    40   1      3.5659999999999954      57.056000000000012      57.056000000000012
    41   1      5.3489999999999966      57.056000000000012      58.839000000000006
    42   1      5.3489999999999966      58.839000000000006      57.056000000000012
    43   1      8.9149999999999991      44.575000000000003      46.358000000000004
    44   1      8.9149999999999991      42.792000000000002      51.707000000000008
    45   1      8.9149999999999991      44.575000000000003      49.924000000000007
    46   1      8.9149999999999991      42.792000000000002      55.273000000000003
    47   1      8.9149999999999991      44.575000000000003      53.489999999999995
    48   1      8.9149999999999991      44.575000000000003      57.056000000000012
    49   1      8.9149999999999991      44.575000000000003      60.622000000000007
    50   1      8.9149999999999991      46.358000000000004      44.575000000000003
    51   1      7.1319999999999979      46.358000000000004      46.358000000000004
    52   1      7.1319999999999979      48.140999999999998      48.140999999999998
    53   1      8.9149999999999991      46.358000000000004      48.140999999999998
    54   1      8.9149999999999991      48.140999999999998      46.358000000000004
    55   1      7.1319999999999979      46.358000000000004      49.924000000000007
    56   1      7.1319999999999979      48.140999999999998      51.707000000000008
    57   1      8.9149999999999991      46.358000000000004      51.707000000000008
    58   1      8.9149999999999991      48.140999999999998      49.924000000000007
    59   1      7.1319999999999979      46.358000000000004      53.489999999999995
    60   1      7.1319999999999979      48.140999999999998      55.273000000000003
    61   1      8.9149999999999991      46.358000000000004      55.273000000000003
    62   1      8.9149999999999991      48.140999999999998      53.489999999999995
    63   1      7.1319999999999979      46.358000000000004      57.056000000000012
    64   1      7.1319999999999979      48.140999999999998      58.839000000000006
    65   1      8.9149999999999991      46.358000000000004      58.839000000000006
    66   1      8.9149999999999991      48.140999999999998      57.056000000000012
    67   1      7.1319999999999979      46.358000000000004      60.622000000000007
    68   1      8.9149999999999991      46.358000000000004      62.405000000000001
    69   1      8.9149999999999991      48.140999999999998      60.622000000000007
    70   1      8.9149999999999991      49.924000000000007      44.575000000000003
    71   1      8.9149999999999991      51.707000000000008      42.792000000000002
    72   1      7.1319999999999979      49.924000000000007      46.358000000000004
    73   1      7.1319999999999979      51.707000000000008      48.140999999999998
    74   1      8.9149999999999991      49.924000000000007      48.140999999999998
    75   1      8.9149999999999991      51.707000000000008      46.358000000000004
    76   1      7.1319999999999979      49.924000000000007      49.924000000000007
    77   1      7.1319999999999979      51.707000000000008      51.707000000000008
    78   1      8.9149999999999991      49.924000000000007      51.707000000000008
    79   1      8.9149999999999991      51.707000000000008      49.924000000000007
    80   1      7.1319999999999979      49.924000000000007      53.489999999999995
    81   1      7.1319999999999979      51.707000000000008      55.273000000000003
    82   1      8.9149999999999991      49.924000000000007      55.273000000000003
    83   1      8.9149999999999991      51.707000000000008      53.489999999999995
    84   1      7.1319999999999979      49.924000000000007      57.056000000000012
    85   1      7.1319999999999979      51.707000000000008      58.839000000000006
    86   1      8.9149999999999991      49.924000000000007      58.839000000000006
    87   1      8.9149999999999991      51.707000000000008      57.056000000000012
    88   1      7.1319999999999979      49.924000000000007      60.622000000000007
    89   1      8.9149999999999991      49.924000000000007      62.405000000000001
    90   1      8.9149999999999991      51.707000000000008      60.622000000000007
    91   1      8.9149999999999991      51.707000000000008      64.188000000000002
    92   1      8.9149999999999991      53.489999999999995      44.575000000000003
    93   1      8.9149999999999991      55.273000000000003      42.792000000000002
    94   1      7.1319999999999979      53.489999999999995      46.358000000000004
    95   1      7.1319999999999979      55.273000000000003      48.140999999999998
    96   1      8.9149999999999991      53.489999999999995      48.140999999999998
    97   1      8.9149999999999991      55.273000000000003      46.358000000000004
    98   1      7.1319999999999979      53.489999999999995      49.924000000000007
    99   1      7.1319999999999979      55.273000000000003      51.707000000000008
   100   1      8.9149999999999991      53.489999999999995      51.707000000000008
   101   1      8.9149999999999991      55.273000000000003      49.924000000000007
   102   1      7.1319999999999979      53.489999999999995      53.489999999999995
   103   1      7.1319999999999979      55.273000000000003      55.273000000000003
   104   1      8.9149999999999991      53.489999999999995      55.273000000000003
   105   1      8.9149999999999991      55.273000000000003      53.489999999999995
   106   1      7.1319999999999979      53.489999999999995      57.056000000000012
   107   1      7.1319999999999979      55.273000000000003      58.839000000000006
   108   1      8.9149999999999991      53.489999999999995      58.839000000000006
   109   1      8.9149999999999991      55.273000000000003      57.056000000000012
   110   1      7.1319999999999979      53.489999999999995      60.622000000000007
   111   1      8.9149999999999991      53.489999999999995      62.405000000000001
   112   1      8.9149999999999991      55.273000000000003      60.622000000000007
   113   1      8.9149999999999991      55.273000000000003      64.188000000000002
   114   1      8.9149999999999991      57.056000000000012      44.575000000000003
   115   1      7.1319999999999979      57.056000000000012      46.358000000000004
   116   1      7.1319999999999979      58.839000000000006      48.140999999999998
   117   1      8.9149999999999991      57.056000000000012      48.140999999999998
   118   1      8.9149999999999991      58.839000000000006      46.358000000000004
   119   1      7.1319999999999979      57.056000000000012      49.924000000000007
   120   1      7.1319999999999979      58.839000000000006      51.707000000000008
   121   1      8.9149999999999991      57.056000000000012      51.707000000000008
   122   1      8.9149999999999991      58.839000000000006      49.924000000000007
   123   1      7.1319999999999979      57.056000000000012      53.489999999999995
   124   1      7.1319999999999979      58.839000000000006      55.273000000000003
   125   1      8.9149999999999991      57.056000000000012      55.273000000000003
   126   1      8.9149999999999991      58.839000000000006      53.489999999999995
   127   1      7.1319999999999979      57.056000000000012      57.056000000000012
   128   1      7.1319999999999979      58.839000000000006      58.839000000000006
   129   1      8.9149999999999991      57.056000000000012      58.839000000000006
   130   1      8.9149999999999991      58.839000000000006      57.056000000000012
   131   1      7.1319999999999979      57.056000000000012      60.622000000000007
   132   1      8.9149999999999991      57.056000000000012      62.405000000000001
   133   1      8.9149999999999991      58.839000000000006      60.622000000000007
   134   1      8.9149999999999991      60.622000000000007      44.575000000000003
   135   1      7.1319999999999979      60.622000000000007      46.358000000000004
   136   1      8.9149999999999991      60.622000000000007      48.140999999999998
   137   1      8.9149999999999991      62.405000000000001      46.358000000000004
   138   1      7.1319999999999979      60.622000000000007      49.924000000000007
   139   1      8.9149999999999991      60.622000000000007      51.707000000000008
   140   1      8.9149999999999991      62.405000000000001      49.924000000000007
   141   1      7.1319999999999979      60.622000000000007      53.489999999999995
   142   1      8.9149999999999991      60.622000000000007      55.273000000000003
   143   1      8.9149999999999991      62.405000000000001      53.489999999999995
   144   1      7.1319999999999979      60.622000000000007      57.056000000000012
   145   1      8.9149999999999991      60.622000000000007      58.839000000000006
   146   1      8.9149999999999991      62.405000000000001      57.056000000000012
   147   1      7.1319999999999979      60.622000000000007      60.622000000000007
   148   1      8.9149999999999991      60.622000000000007      62.405000000000001
   149   1      8.9149999999999991      62.405000000000001      60.622000000000007
   150   1      8.9149999999999991      64.188000000000002      51.707000000000008
   151   1      8.9149999999999991      64.188000000000002      55.273000000000003
   152   1      12.481000000000002      41.009000000000007      42.792000000000002
   153   1      12.481000000000002      39.226000000000006      48.140999999999998
   154   1      12.481000000000002      41.009000000000007      46.358000000000004
   155   1                  10.698      41.009000000000007      51.707000000000008
   156   1      12.481000000000002      39.226000000000006      51.707000000000008
   157   1      12.481000000000002      41.009000000000007      49.924000000000007
   158   1                  10.698      41.009000000000007      55.273000000000003
   159   1      12.481000000000002      39.226000000000006      55.273000000000003
   160   1      12.481000000000002      41.009000000000007      53.489999999999995
   161   1      12.481000000000002      39.226000000000006      58.839000000000006
   162   1      12.481000000000002      41.009000000000007      57.056000000000012
   163   1      12.481000000000002      41.009000000000007      60.622000000000007
   164   1      12.481000000000002      41.009000000000007      64.188000000000002
   165   1      12.481000000000002      42.792000000000002      41.009000000000007
   166   1                  10.698      42.792000000000002      42.792000000000002
   167   1                  10.698      44.575000000000003      44.575000000000003
   168   1      12.481000000000002      42.792000000000002      44.575000000000003
   169   1      12.481000000000002      44.575000000000003      42.792000000000002
   170   1                  10.698      42.792000000000002      46.358000000000004
   171   1                  10.698      44.575000000000003      48.140999999999998
   172   1      12.481000000000002      42.792000000000002      48.140999999999998
   173   1      12.481000000000002      44.575000000000003      46.358000000000004
   174   1                  10.698      42.792000000000002      49.924000000000007
   175   1                  10.698      44.575000000000003      51.707000000000008
   176   1      12.481000000000002      42.792000000000002      51.707000000000008
   177   1      12.481000000000002      44.575000000000003      49.924000000000007
   178   1                  10.698      42.792000000000002      53.489999999999995
   179   1                  10.698      44.575000000000003      55.273000000000003
   180   1      12.481000000000002      42.792000000000002      55.273000000000003
   181   1      12.481000000000002      44.575000000000003      53.489999999999995
   182   1                  10.698      42.792000000000002      57.056000000000012
   183   1                  10.698      44.575000000000003      58.839000000000006
   184   1      12.481000000000002      42.792000000000002      58.839000000000006
   185   1      12.481000000000002      44.575000000000003      57.056000000000012
   186   1                  10.698      42.792000000000002      60.622000000000007
   187   1                  10.698      44.575000000000003      62.405000000000001
   188   1      12.481000000000002      42.792000000000002      62.405000000000001
   189   1      12.481000000000002      44.575000000000003      60.622000000000007
   190   1                  10.698      42.792000000000002      64.188000000000002
   191   1      12.481000000000002      42.792000000000002      65.971000000000004
   192   1      12.481000000000002      44.575000000000003      64.188000000000002
   193   1      12.481000000000002      46.358000000000004      41.009000000000007
   194   1      12.481000000000002      48.140999999999998      39.226000000000006
   195   1                  10.698      46.358000000000004      42.792000000000002
   196   1                  10.698      48.140999999999998      44.575000000000003
   197   1      12.481000000000002      46.358000000000004      44.575000000000003
   198   1      12.481000000000002      48.140999999999998      42.792000000000002
   199   1                  10.698      46.358000000000004      46.358000000000004
   200   1                  10.698      48.140999999999998      48.140999999999998
   201   1      12.481000000000002      46.358000000000004      48.140999999999998
   202   1      12.481000000000002      48.140999999999998      46.358000000000004
   203   1                  10.698      46.358000000000004      49.924000000000007
   204   1                  10.698      48.140999999999998      51.707000000000008
   205   1      12.481000000000002      46.358000000000004      51.707000000000008
   206   1      12.481000000000002      48.140999999999998      49.924000000000007
   207   1                  10.698      46.358000000000004      53.489999999999995
   208   1                  10.698      48.140999999999998      55.273000000000003
   209   1      12.481000000000002      46.358000000000004      55.273000000000003
   210   1      12.481000000000002      48.140999999999998      53.489999999999995
   211   1                  10.698      46.358000000000004      57.056000000000012
   212   1                  10.698      48.140999999999998      58.839000000000006
   213   1      12.481000000000002      46.358000000000004      58.839000000000006
   214   1      12.481000000000002      48.140999999999998      57.056000000000012
   215   1                  10.698      46.358000000000004      60.622000000000007
   216   1                  10.698      48.140999999999998      62.405000000000001
   217   1      12.481000000000002      46.358000000000004      62.405000000000001
   218   1      12.481000000000002      48.140999999999998      60.622000000000007
   219   1                  10.698      46.358000000000004      64.188000000000002
   220   1      12.481000000000002      46.358000000000004      65.971000000000004
   221   1      12.481000000000002      48.140999999999998      64.188000000000002
   222   1      12.481000000000002      48.140999999999998      67.753999999999991
   223   1                  10.698      51.707000000000008      41.009000000000007
   224   1      12.481000000000002      49.924000000000007      41.009000000000007
   225   1      12.481000000000002      51.707000000000008      39.226000000000006
   226   1                  10.698      49.924000000000007      42.792000000000002
   227   1                  10.698      51.707000000000008      44.575000000000003
   228   1      12.481000000000002      49.924000000000007      44.575000000000003
   229   1      12.481000000000002      51.707000000000008      42.792000000000002
   230   1                  10.698      49.924000000000007      46.358000000000004
   231   1                  10.698      51.707000000000008      48.140999999999998
   232   1      12.481000000000002      49.924000000000007      48.140999999999998
   233   1      12.481000000000002      51.707000000000008      46.358000000000004
   234   1                  10.698      49.924000000000007      49.924000000000007
   235   1                  10.698      51.707000000000008      51.707000000000008
   236   1      12.481000000000002      49.924000000000007      51.707000000000008
   237   1      12.481000000000002      51.707000000000008      49.924000000000007
   238   1                  10.698      49.924000000000007      53.489999999999995
   239   1                  10.698      51.707000000000008      55.273000000000003
   240   1      12.481000000000002      49.924000000000007      55.273000000000003
   241   1      12.481000000000002      51.707000000000008      53.489999999999995
   242   1                  10.698      49.924000000000007      57.056000000000012
   243   1                  10.698      51.707000000000008      58.839000000000006
   244   1      12.481000000000002      49.924000000000007      58.839000000000006
   245   1      12.481000000000002      51.707000000000008      57.056000000000012
   246   1                  10.698      49.924000000000007      60.622000000000007
   247   1                  10.698      51.707000000000008      62.405000000000001
   248   1      12.481000000000002      49.924000000000007      62.405000000000001
   249   1      12.481000000000002      51.707000000000008      60.622000000000007
   250   1                  10.698      49.924000000000007      64.188000000000002
   251   1                  10.698      51.707000000000008      65.971000000000004
   252   1      12.481000000000002      49.924000000000007      65.971000000000004
   253   1      12.481000000000002      51.707000000000008      64.188000000000002
   254   1      12.481000000000002      51.707000000000008      67.753999999999991
   255   1                  10.698      55.273000000000003      41.009000000000007
   256   1      12.481000000000002      53.489999999999995      41.009000000000007
   257   1      12.481000000000002      55.273000000000003      39.226000000000006
   258   1                  10.698      53.489999999999995      42.792000000000002
   259   1                  10.698      55.273000000000003      44.575000000000003
   260   1      12.481000000000002      53.489999999999995      44.575000000000003
   261   1      12.481000000000002      55.273000000000003      42.792000000000002
   262   1                  10.698      53.489999999999995      46.358000000000004
   263   1                  10.698      55.273000000000003      48.140999999999998
   264   1      12.481000000000002      53.489999999999995      48.140999999999998
   265   1      12.481000000000002      55.273000000000003      46.358000000000004
   266   1                  10.698      53.489999999999995      49.924000000000007
   267   1                  10.698      55.273000000000003      51.707000000000008
   268   1      12.481000000000002      53.489999999999995      51.707000000000008
   269   1      12.481000000000002      55.273000000000003      49.924000000000007
   270   1                  10.698      53.489999999999995      53.489999999999995
   271   1                  10.698      55.273000000000003      55.273000000000003
   272   1      12.481000000000002      53.489999999999995      55.273000000000003
   273   1      12.481000000000002      55.273000000000003      53.489999999999995
   274   1                  10.698      53.489999999999995      57.056000000000012
   275   1                  10.698      55.273000000000003      58.839000000000006
   276   1      12.481000000000002      53.489999999999995      58.839000000000006
   277   1      12.481000000000002      55.273000000000003      57.056000000000012
   278   1                  10.698      53.489999999999995      60.622000000000007
   279   1                  10.698      55.273000000000003      62.405000000000001
   280   1      12.481000000000002      53.489999999999995      62.405000000000001
   281   1      12.481000000000002      55.273000000000003      60.622000000000007
   282   1                  10.698      53.489999999999995      64.188000000000002
   283   1                  10.698      55.273000000000003      65.971000000000004
   284   1      12.481000000000002      53.489999999999995      65.971000000000004
   285   1      12.481000000000002      55.273000000000003      64.188000000000002
   286   1      12.481000000000002      55.273000000000003      67.753999999999991
   287   1      12.481000000000002      57.056000000000012      41.009000000000007
   288   1      12.481000000000002      58.839000000000006      39.226000000000006
   289   1                  10.698      57.056000000000012      42.792000000000002
   290   1                  10.698      58.839000000000006      44.575000000000003
   291   1      12.481000000000002      57.056000000000012      44.575000000000003
   292   1      12.481000000000002      58.839000000000006      42.792000000000002
   293   1                  10.698      57.056000000000012      46.358000000000004
   294   1                  10.698      58.839000000000006      48.140999999999998
   295   1      12.481000000000002      57.056000000000012      48.140999999999998
   296   1      12.481000000000002      58.839000000000006      46.358000000000004
   297   1                  10.698      57.056000000000012      49.924000000000007
   298   1                  10.698      58.839000000000006      51.707000000000008
   299   1      12.481000000000002      57.056000000000012      51.707000000000008
   300   1      12.481000000000002      58.839000000000006      49.924000000000007
   301   1                  10.698      57.056000000000012      53.489999999999995
   302   1                  10.698      58.839000000000006      55.273000000000003
   303   1      12.481000000000002      57.056000000000012      55.273000000000003
   304   1      12.481000000000002      58.839000000000006      53.489999999999995
   305   1                  10.698      57.056000000000012      57.056000000000012
   306   1                  10.698      58.839000000000006      58.839000000000006
   307   1      12.481000000000002      57.056000000000012      58.839000000000006
   308   1      12.481000000000002      58.839000000000006      57.056000000000012
   309   1                  10.698      57.056000000000012      60.622000000000007
   310   1                  10.698      58.839000000000006      62.405000000000001
   311   1      12.481000000000002      57.056000000000012      62.405000000000001
   312   1      12.481000000000002      58.839000000000006      60.622000000000007
   313   1                  10.698      57.056000000000012      64.188000000000002
   314   1      12.481000000000002      57.056000000000012      65.971000000000004
   315   1      12.481000000000002      58.839000000000006      64.188000000000002
   316   1      12.481000000000002      58.839000000000006      67.753999999999991
   317   1      12.481000000000002      60.622000000000007      41.009000000000007
   318   1                  10.698      60.622000000000007      42.792000000000002
   319   1                  10.698      62.405000000000001      44.575000000000003
   320   1      12.481000000000002      60.622000000000007      44.575000000000003
   321   1      12.481000000000002      62.405000000000001      42.792000000000002
   322   1                  10.698      60.622000000000007      46.358000000000004
   323   1                  10.698      62.405000000000001      48.140999999999998
   324   1      12.481000000000002      60.622000000000007      48.140999999999998
   325   1      12.481000000000002      62.405000000000001      46.358000000000004
   326   1                  10.698      60.622000000000007      49.924000000000007
   327   1                  10.698      62.405000000000001      51.707000000000008
   328   1      12.481000000000002      60.622000000000007      51.707000000000008
   329   1      12.481000000000002      62.405000000000001      49.924000000000007
   330   1                  10.698      60.622000000000007      53.489999999999995
   331   1                  10.698      62.405000000000001      55.273000000000003
   332   1      12.481000000000002      60.622000000000007      55.273000000000003
   333   1      12.481000000000002      62.405000000000001      53.489999999999995
   334   1                  10.698      60.622000000000007      57.056000000000012
   335   1                  10.698      62.405000000000001      58.839000000000006
   336   1      12.481000000000002      60.622000000000007      58.839000000000006
   337   1      12.481000000000002      62.405000000000001      57.056000000000012
   338   1                  10.698      60.622000000000007      60.622000000000007
   339   1                  10.698      62.405000000000001      62.405000000000001
   340   1      12.481000000000002      60.622000000000007      62.405000000000001
   341   1      12.481000000000002      62.405000000000001      60.622000000000007
   342   1                  10.698      60.622000000000007      64.188000000000002
   343   1      12.481000000000002      60.622000000000007      65.971000000000004
   344   1      12.481000000000002      62.405000000000001      64.188000000000002
   345   1      12.481000000000002      64.188000000000002      41.009000000000007
   346   1                  10.698      64.188000000000002      42.792000000000002
   347   1      12.481000000000002      64.188000000000002      44.575000000000003
   348   1      12.481000000000002      65.971000000000004      42.792000000000002
   349   1                  10.698      64.188000000000002      46.358000000000004
   350   1      12.481000000000002      64.188000000000002      48.140999999999998
   351   1      12.481000000000002      65.971000000000004      46.358000000000004
   352   1                  10.698      64.188000000000002      49.924000000000007
   353   1                  10.698      65.971000000000004      51.707000000000008
   354   1      12.481000000000002      64.188000000000002      51.707000000000008
   355   1      12.481000000000002      65.971000000000004      49.924000000000007
   356   1                  10.698      64.188000000000002      53.489999999999995
   357   1                  10.698      65.971000000000004      55.273000000000003
   358   1      12.481000000000002      64.188000000000002      55.273000000000003