model_files/Pt/Pt_3000/Pt_421/data.Pt_421_fcc_3085 (written by ASE) 

3085 	 atoms 
1  atom types
0.0                      49  xlo xhi
0.0                      49  ylo yhi
0.0                      49  zlo zhi


Atoms 

     1   1      1.9600000000000042      17.640000000000008      23.520000000000003
     2   1      1.9600000000000042      19.600000000000005      21.560000000000002
     3   1      1.9600000000000042      21.560000000000002      19.600000000000005
     4   1      1.9600000000000042      19.600000000000005                   25.48
     5   1      1.9600000000000042      21.560000000000002      23.520000000000003
     6   1      1.9600000000000042      21.560000000000002      27.440000000000001
     7   1      1.9600000000000042      23.520000000000003      17.640000000000008
     8   1      1.9600000000000042      23.520000000000003      21.560000000000002
     9   1      1.9600000000000042                   25.48      19.600000000000005
    10   1  7.1054273576010011e-15      23.520000000000003      23.520000000000003
    11   1      1.9600000000000042      23.520000000000003                   25.48
    12   1      1.9600000000000042                   25.48      23.520000000000003
    13   1      1.9600000000000042      23.520000000000003      29.400000000000006
    14   1      1.9600000000000042                   25.48      27.440000000000001
    15   1      1.9600000000000042      27.440000000000001      21.560000000000002
    16   1      1.9600000000000042      27.440000000000001                   25.48
    17   1      1.9600000000000042      29.400000000000006      23.520000000000003
    18   1      5.8800000000000061      9.8000000000000025      23.520000000000003
    19   1      5.8800000000000061      13.720000000000004      15.680000000000005
    20   1      5.8800000000000061      11.760000000000003      21.560000000000002
    21   1      5.8800000000000061      13.720000000000004      19.600000000000005
    22   1      5.8800000000000061      11.760000000000003                   25.48
    23   1      5.8800000000000061      13.720000000000004      23.520000000000003
    24   1      5.8800000000000061      13.720000000000004      27.440000000000001
    25   1      5.8800000000000061      13.720000000000004      31.360000000000007
    26   1      5.8800000000000061      15.680000000000005      13.720000000000004
    27   1      3.9200000000000048      17.640000000000008      17.640000000000008
    28   1      5.8800000000000061      15.680000000000005      17.640000000000008
    29   1      5.8800000000000061      17.640000000000008      15.680000000000005
    30   1      3.9200000000000048      15.680000000000005      19.600000000000005
    31   1      3.9200000000000048      17.640000000000008      21.560000000000002
    32   1      5.8800000000000061      15.680000000000005      21.560000000000002
    33   1      5.8800000000000061      17.640000000000008      19.600000000000005
    34   1      3.9200000000000048      15.680000000000005      23.520000000000003
    35   1      3.9200000000000048      17.640000000000008                   25.48
    36   1      5.8800000000000061      15.680000000000005                   25.48
    37   1      5.8800000000000061      17.640000000000008      23.520000000000003
    38   1      3.9200000000000048      15.680000000000005      27.440000000000001
    39   1      3.9200000000000048      17.640000000000008      29.400000000000006
    40   1      5.8800000000000061      15.680000000000005      29.400000000000006
    41   1      5.8800000000000061      17.640000000000008      27.440000000000001
    42   1      5.8800000000000061      15.680000000000005                   33.32
    43   1      5.8800000000000061      17.640000000000008      31.360000000000007
    44   1      5.8800000000000061      19.600000000000005      13.720000000000004
    45   1      5.8800000000000061      21.560000000000002      11.760000000000003
    46   1      3.9200000000000048      19.600000000000005      15.680000000000005
    47   1      3.9200000000000048      21.560000000000002      17.640000000000008
    48   1      5.8800000000000061      19.600000000000005      17.640000000000008
    49   1      5.8800000000000061      21.560000000000002      15.680000000000005
    50   1      3.9200000000000048      19.600000000000005      19.600000000000005
    51   1      3.9200000000000048      21.560000000000002      21.560000000000002
    52   1      5.8800000000000061      19.600000000000005      21.560000000000002
    53   1      5.8800000000000061      21.560000000000002      19.600000000000005
    54   1      3.9200000000000048      19.600000000000005      23.520000000000003
    55   1      3.9200000000000048      21.560000000000002                   25.48
    56   1      5.8800000000000061      19.600000000000005                   25.48
    57   1      5.8800000000000061      21.560000000000002      23.520000000000003
    58   1      3.9200000000000048      19.600000000000005      27.440000000000001
    59   1      3.9200000000000048      21.560000000000002      29.400000000000006
    60   1      5.8800000000000061      19.600000000000005      29.400000000000006
    61   1      5.8800000000000061      21.560000000000002      27.440000000000001
    62   1      3.9200000000000048      19.600000000000005      31.360000000000007
    63   1      5.8800000000000061      19.600000000000005                   33.32
    64   1      5.8800000000000061      21.560000000000002      31.360000000000007
    65   1      5.8800000000000061      21.560000000000002      35.280000000000001
    66   1      5.8800000000000061      23.520000000000003      9.8000000000000025
    67   1      5.8800000000000061      23.520000000000003      13.720000000000004
    68   1      5.8800000000000061                   25.48      11.760000000000003
    69   1      3.9200000000000048      23.520000000000003      15.680000000000005
    70   1      3.9200000000000048                   25.48      17.640000000000008
    71   1      5.8800000000000061      23.520000000000003      17.640000000000008
    72   1      5.8800000000000061                   25.48      15.680000000000005
    73   1      3.9200000000000048      23.520000000000003      19.600000000000005
    74   1      3.9200000000000048                   25.48      21.560000000000002
    75   1      5.8800000000000061      23.520000000000003      21.560000000000002
    76   1      5.8800000000000061                   25.48      19.600000000000005
    77   1      3.9200000000000048      23.520000000000003      23.520000000000003
    78   1      3.9200000000000048                   25.48                   25.48
    79   1      5.8800000000000061      23.520000000000003                   25.48
    80   1      5.8800000000000061                   25.48      23.520000000000003
    81   1      3.9200000000000048      23.520000000000003      27.440000000000001
    82   1      3.9200000000000048                   25.48      29.400000000000006
    83   1      5.8800000000000061      23.520000000000003      29.400000000000006
    84   1      5.8800000000000061                   25.48      27.440000000000001
    85   1      3.9200000000000048      23.520000000000003      31.360000000000007
    86   1      5.8800000000000061      23.520000000000003                   33.32
    87   1      5.8800000000000061                   25.48      31.360000000000007
    88   1      5.8800000000000061      23.520000000000003      37.240000000000009
    89   1      5.8800000000000061                   25.48      35.280000000000001
    90   1      5.8800000000000061      27.440000000000001      13.720000000000004
    91   1      3.9200000000000048      27.440000000000001      15.680000000000005
    92   1      3.9200000000000048      29.400000000000006      17.640000000000008
    93   1      5.8800000000000061      27.440000000000001      17.640000000000008
    94   1      5.8800000000000061      29.400000000000006      15.680000000000005
    95   1      3.9200000000000048      27.440000000000001      19.600000000000005
    96   1      3.9200000000000048      29.400000000000006      21.560000000000002
    97   1      5.8800000000000061      27.440000000000001      21.560000000000002
    98   1      5.8800000000000061      29.400000000000006      19.600000000000005
    99   1      3.9200000000000048      27.440000000000001      23.520000000000003
   100   1      3.9200000000000048      29.400000000000006                   25.48
   101   1      5.8800000000000061      27.440000000000001                   25.48
   102   1      5.8800000000000061      29.400000000000006      23.520000000000003
   103   1      3.9200000000000048      27.440000000000001      27.440000000000001
   104   1      3.9200000000000048      29.400000000000006      29.400000000000006
   105   1      5.8800000000000061      27.440000000000001      29.400000000000006
   106   1      5.8800000000000061      29.400000000000006      27.440000000000001
   107   1      3.9200000000000048      27.440000000000001      31.360000000000007
   108   1      5.8800000000000061      27.440000000000001                   33.32
   109   1      5.8800000000000061      29.400000000000006      31.360000000000007
   110   1      5.8800000000000061      31.360000000000007      13.720000000000004
   111   1      5.8800000000000061      31.360000000000007      17.640000000000008
   112   1      5.8800000000000061                   33.32      15.680000000000005
   113   1      3.9200000000000048      31.360000000000007      19.600000000000005
   114   1      5.8800000000000061      31.360000000000007      21.560000000000002
   115   1      5.8800000000000061                   33.32      19.600000000000005
   116   1      3.9200000000000048      31.360000000000007      23.520000000000003
   117   1      5.8800000000000061      31.360000000000007                   25.48
   118   1      5.8800000000000061                   33.32      23.520000000000003
   119   1      3.9200000000000048      31.360000000000007      27.440000000000001
   120   1      5.8800000000000061      31.360000000000007      29.400000000000006
   121   1      5.8800000000000061                   33.32      27.440000000000001
   122   1      5.8800000000000061      31.360000000000007                   33.32
   123   1      5.8800000000000061                   33.32      31.360000000000007
   124   1      5.8800000000000061      35.280000000000001      21.560000000000002
   125   1      5.8800000000000061      35.280000000000001                   25.48
   126   1      5.8800000000000061      37.240000000000009      23.520000000000003
   127   1      9.8000000000000025      5.8800000000000061      23.520000000000003
   128   1      9.8000000000000025      9.8000000000000025      11.760000000000003
   129   1      7.8400000000000043      9.8000000000000025      17.640000000000008
   130   1      9.8000000000000025      7.8400000000000043      17.640000000000008
   131   1      9.8000000000000025      9.8000000000000025      15.680000000000005
   132   1      7.8400000000000043      7.8400000000000043      19.600000000000005
   133   1      7.8400000000000043      9.8000000000000025      21.560000000000002
   134   1      9.8000000000000025      7.8400000000000043      21.560000000000002
   135   1      9.8000000000000025      9.8000000000000025      19.600000000000005
   136   1      7.8400000000000043      7.8400000000000043      23.520000000000003
   137   1      7.8400000000000043      9.8000000000000025                   25.48
   138   1      9.8000000000000025      7.8400000000000043                   25.48
   139   1      9.8000000000000025      9.8000000000000025      23.520000000000003
   140   1      7.8400000000000043      7.8400000000000043      27.440000000000001
   141   1      7.8400000000000043      9.8000000000000025      29.400000000000006
   142   1      9.8000000000000025      7.8400000000000043      29.400000000000006
   143   1      9.8000000000000025      9.8000000000000025      27.440000000000001
   144   1      9.8000000000000025      9.8000000000000025      31.360000000000007
   145   1      9.8000000000000025      9.8000000000000025      35.280000000000001
   146   1      9.8000000000000025      11.760000000000003      9.8000000000000025
   147   1      7.8400000000000043      11.760000000000003      11.760000000000003
   148   1      7.8400000000000043      13.720000000000004      13.720000000000004
   149   1      9.8000000000000025      11.760000000000003      13.720000000000004
   150   1      9.8000000000000025      13.720000000000004      11.760000000000003
   151   1      7.8400000000000043      11.760000000000003      15.680000000000005
   152   1      7.8400000000000043      13.720000000000004      17.640000000000008
   153   1      9.8000000000000025      11.760000000000003      17.640000000000008
   154   1      9.8000000000000025      13.720000000000004      15.680000000000005
   155   1      7.8400000000000043      11.760000000000003      19.600000000000005
   156   1      7.8400000000000043      13.720000000000004      21.560000000000002
   157   1      9.8000000000000025      11.760000000000003      21.560000000000002
   158   1      9.8000000000000025      13.720000000000004      19.600000000000005
   159   1      7.8400000000000043      11.760000000000003      23.520000000000003
   160   1      7.8400000000000043      13.720000000000004                   25.48
   161   1      9.8000000000000025      11.760000000000003                   25.48
   162   1      9.8000000000000025      13.720000000000004      23.520000000000003
   163   1      7.8400000000000043      11.760000000000003      27.440000000000001
   164   1      7.8400000000000043      13.720000000000004      29.400000000000006
   165   1      9.8000000000000025      11.760000000000003      29.400000000000006
   166   1      9.8000000000000025      13.720000000000004      27.440000000000001
   167   1      7.8400000000000043      11.760000000000003      31.360000000000007
   168   1      7.8400000000000043      13.720000000000004                   33.32
   169   1      9.8000000000000025      11.760000000000003                   33.32
   170   1      9.8000000000000025      13.720000000000004      31.360000000000007
   171   1      7.8400000000000043      11.760000000000003      35.280000000000001
   172   1      9.8000000000000025      11.760000000000003      37.240000000000009
   173   1      9.8000000000000025      13.720000000000004      35.280000000000001
   174   1      7.8400000000000043      17.640000000000008      9.8000000000000025
   175   1      9.8000000000000025      15.680000000000005      9.8000000000000025
   176   1      9.8000000000000025      17.640000000000008      7.8400000000000043
   177   1      7.8400000000000043      15.680000000000005      11.760000000000003
   178   1      7.8400000000000043      17.640000000000008      13.720000000000004
   179   1      9.8000000000000025      15.680000000000005      13.720000000000004
   180   1      9.8000000000000025      17.640000000000008      11.760000000000003
   181   1      7.8400000000000043      15.680000000000005      15.680000000000005
   182   1      7.8400000000000043      17.640000000000008      17.640000000000008
   183   1      9.8000000000000025      15.680000000000005      17.640000000000008
   184   1      9.8000000000000025      17.640000000000008      15.680000000000005
   185   1      7.8400000000000043      15.680000000000005      19.600000000000005
   186   1      7.8400000000000043      17.640000000000008      21.560000000000002
   187   1      9.8000000000000025      15.680000000000005      21.560000000000002
   188   1      9.8000000000000025      17.640000000000008      19.600000000000005
   189   1      7.8400000000000043      15.680000000000005      23.520000000000003
   190   1      7.8400000000000043      17.640000000000008                   25.48
   191   1      9.8000000000000025      15.680000000000005                   25.48
   192   1      9.8000000000000025      17.640000000000008      23.520000000000003
   193   1      7.8400000000000043      15.680000000000005      27.440000000000001
   194   1      7.8400000000000043      17.640000000000008      29.400000000000006
   195   1      9.8000000000000025      15.680000000000005      29.400000000000006
   196   1      9.8000000000000025      17.640000000000008      27.440000000000001
   197   1      7.8400000000000043      15.680000000000005      31.360000000000007
   198   1      7.8400000000000043      17.640000000000008                   33.32
   199   1      9.8000000000000025      15.680000000000005                   33.32
   200   1      9.8000000000000025      17.640000000000008      31.360000000000007
   201   1      7.8400000000000043      15.680000000000005      35.280000000000001
   202   1      7.8400000000000043      17.640000000000008      37.240000000000009
   203   1      9.8000000000000025      15.680000000000005      37.240000000000009
   204   1      9.8000000000000025      17.640000000000008      35.280000000000001
   205   1      9.8000000000000025      17.640000000000008      39.200000000000003
   206   1      7.8400000000000043      19.600000000000005      7.8400000000000043
   207   1      7.8400000000000043      21.560000000000002      9.8000000000000025
   208   1      9.8000000000000025      19.600000000000005      9.8000000000000025
   209   1      9.8000000000000025      21.560000000000002      7.8400000000000043
   210   1      7.8400000000000043      19.600000000000005      11.760000000000003
   211   1      7.8400000000000043      21.560000000000002      13.720000000000004
   212   1      9.8000000000000025      19.600000000000005      13.720000000000004
   213   1      9.8000000000000025      21.560000000000002      11.760000000000003
   214   1      7.8400000000000043      19.600000000000005      15.680000000000005
   215   1      7.8400000000000043      21.560000000000002      17.640000000000008
   216   1      9.8000000000000025      19.600000000000005      17.640000000000008
   217   1      9.8000000000000025      21.560000000000002      15.680000000000005
   218   1      7.8400000000000043      19.600000000000005      19.600000000000005
   219   1      7.8400000000000043      21.560000000000002      21.560000000000002
   220   1      9.8000000000000025      19.600000000000005      21.560000000000002
   221   1      9.8000000000000025      21.560000000000002      19.600000000000005
   222   1      7.8400000000000043      19.600000000000005      23.520000000000003
   223   1      7.8400000000000043      21.560000000000002                   25.48
   224   1      9.8000000000000025      19.600000000000005                   25.48
   225   1      9.8000000000000025      21.560000000000002      23.520000000000003
   226   1      7.8400000000000043      19.600000000000005      27.440000000000001
   227   1      7.8400000000000043      21.560000000000002      29.400000000000006
   228   1      9.8000000000000025      19.600000000000005      29.400000000000006
   229   1      9.8000000000000025      21.560000000000002      27.440000000000001
   230   1      7.8400000000000043      19.600000000000005      31.360000000000007
   231   1      7.8400000000000043      21.560000000000002                   33.32
   232   1      9.8000000000000025      19.600000000000005                   33.32
   233   1      9.8000000000000025      21.560000000000002      31.360000000000007
   234   1      7.8400000000000043      19.600000000000005      35.280000000000001
   235   1      7.8400000000000043      21.560000000000002      37.240000000000009
   236   1      9.8000000000000025      19.600000000000005      37.240000000000009
   237   1      9.8000000000000025      21.560000000000002      35.280000000000001
   238   1      7.8400000000000043      19.600000000000005      39.200000000000003
   239   1      9.8000000000000025      21.560000000000002      39.200000000000003
   240   1      9.8000000000000025      23.520000000000003      5.8800000000000061
   241   1      7.8400000000000043      23.520000000000003      7.8400000000000043
   242   1      7.8400000000000043                   25.48      9.8000000000000025
   243   1      9.8000000000000025      23.520000000000003      9.8000000000000025
   244   1      9.8000000000000025                   25.48      7.8400000000000043
   245   1      7.8400000000000043      23.520000000000003      11.760000000000003
   246   1      7.8400000000000043                   25.48      13.720000000000004
   247   1      9.8000000000000025      23.520000000000003      13.720000000000004
   248   1      9.8000000000000025                   25.48      11.760000000000003
   249   1      7.8400000000000043      23.520000000000003      15.680000000000005
   250   1      7.8400000000000043                   25.48      17.640000000000008
   251   1      9.8000000000000025      23.520000000000003      17.640000000000008
   252   1      9.8000000000000025                   25.48      15.680000000000005
   253   1      7.8400000000000043      23.520000000000003      19.600000000000005
   254   1      7.8400000000000043                   25.48      21.560000000000002
   255   1      9.8000000000000025      23.520000000000003      21.560000000000002
   256   1      9.8000000000000025                   25.48      19.600000000000005
   257   1      7.8400000000000043      23.520000000000003      23.520000000000003
   258   1      7.8400000000000043                   25.48                   25.48
   259   1      9.8000000000000025      23.520000000000003                   25.48
   260   1      9.8000000000000025                   25.48      23.520000000000003
   261   1      7.8400000000000043      23.520000000000003      27.440000000000001
   262   1      7.8400000000000043                   25.48      29.400000000000006
   263   1      9.8000000000000025      23.520000000000003      29.400000000000006
   264   1      9.8000000000000025                   25.48      27.440000000000001
   265   1      7.8400000000000043      23.520000000000003      31.360000000000007
   266   1      7.8400000000000043                   25.48                   33.32
   267   1      9.8000000000000025      23.520000000000003                   33.32
   268   1      9.8000000000000025                   25.48      31.360000000000007
   269   1      7.8400000000000043      23.520000000000003      35.280000000000001
   270   1      7.8400000000000043                   25.48      37.240000000000009
   271   1      9.8000000000000025      23.520000000000003      37.240000000000009
   272   1      9.8000000000000025                   25.48      35.280000000000001
   273   1      7.8400000000000043      23.520000000000003      39.200000000000003
   274   1      9.8000000000000025      23.520000000000003      41.159999999999997
   275   1      9.8000000000000025                   25.48      39.200000000000003
   276   1      7.8400000000000043      27.440000000000001      7.8400000000000043
   277   1      7.8400000000000043      29.400000000000006      9.8000000000000025
   278   1      9.8000000000000025      27.440000000000001      9.8000000000000025
   279   1      9.8000000000000025      29.400000000000006      7.8400000000000043
   280   1      7.8400000000000043      27.440000000000001      11.760000000000003
   281   1      7.8400000000000043      29.400000000000006      13.720000000000004
   282   1      9.8000000000000025      27.440000000000001      13.720000000000004
   283   1      9.8000000000000025      29.400000000000006      11.760000000000003
   284   1      7.8400000000000043      27.440000000000001      15.680000000000005
   285   1      7.8400000000000043      29.400000000000006      17.640000000000008
   286   1      9.8000000000000025      27.440000000000001      17.640000000000008
   287   1      9.8000000000000025      29.400000000000006      15.680000000000005
   288   1      7.8400000000000043      27.440000000000001      19.600000000000005
   289   1      7.8400000000000043      29.400000000000006      21.560000000000002
   290   1      9.8000000000000025      27.440000000000001      21.560000000000002
   291   1      9.8000000000000025      29.400000000000006      19.600000000000005
   292   1      7.8400000000000043      27.440000000000001      23.520000000000003
   293   1      7.8400000000000043      29.400000000000006                   25.48
   294   1      9.8000000000000025      27.440000000000001                   25.48
   295   1      9.8000000000000025      29.400000000000006      23.520000000000003
   296   1      7.8400000000000043      27.440000000000001      27.440000000000001
   297   1      7.8400000000000043      29.400000000000006      29.400000000000006
   298   1      9.8000000000000025      27.440000000000001      29.400000000000006
   299   1      9.8000000000000025      29.400000000000006      27.440000000000001
   300   1      7.8400000000000043      27.440000000000001      31.360000000000007
   301   1      7.8400000000000043      29.400000000000006                   33.32
   302   1      9.8000000000000025      27.440000000000001                   33.32
   303   1      9.8000000000000025      29.400000000000006      31.360000000000007
   304   1      7.8400000000000043      27.440000000000001      35.280000000000001
   305   1      7.8400000000000043      29.400000000000006      37.240000000000009
   306   1      9.8000000000000025      27.440000000000001      37.240000000000009
   307   1      9.8000000000000025      29.400000000000006      35.280000000000001
   308   1      7.8400000000000043      27.440000000000001      39.200000000000003
   309   1      9.8000000000000025      29.400000000000006      39.200000000000003
   310   1      9.8000000000000025      31.360000000000007      9.8000000000000025
   311   1      7.8400000000000043      31.360000000000007      11.760000000000003
   312   1      7.8400000000000043                   33.32      13.720000000000004
   313   1      9.8000000000000025      31.360000000000007      13.720000000000004
   314   1      9.8000000000000025                   33.32      11.760000000000003
   315   1      7.8400000000000043      31.360000000000007      15.680000000000005
   316   1      7.8400000000000043                   33.32      17.640000000000008
   317   1      9.8000000000000025      31.360000000000007      17.640000000000008
   318   1      9.8000000000000025                   33.32      15.680000000000005
   319   1      7.8400000000000043      31.360000000000007      19.600000000000005
   320   1      7.8400000000000043                   33.32      21.560000000000002
   321   1      9.8000000000000025      31.360000000000007      21.560000000000002
   322   1      9.8000000000000025                   33.32      19.600000000000005
   323   1      7.8400000000000043      31.360000000000007      23.520000000000003
   324   1      7.8400000000000043                   33.32                   25.48
   325   1      9.8000000000000025      31.360000000000007                   25.48
   326   1      9.8000000000000025                   33.32      23.520000000000003
   327   1      7.8400000000000043      31.360000000000007      27.440000000000001
   328   1      7.8400000000000043                   33.32      29.400000000000006
   329   1      9.8000000000000025      31.360000000000007      29.400000000000006
   330   1      9.8000000000000025                   33.32      27.440000000000001
   331   1      7.8400000000000043      31.360000000000007      31.360000000000007
   332   1      7.8400000000000043                   33.32                   33.32
   333   1      9.8000000000000025      31.360000000000007                   33.32
   334   1      9.8000000000000025                   33.32      31.360000000000007
   335   1      7.8400000000000043      31.360000000000007      35.280000000000001
   336   1      9.8000000000000025      31.360000000000007      37.240000000000009
   337   1      9.8000000000000025                   33.32      35.280000000000001
   338   1      9.8000000000000025      35.280000000000001      9.8000000000000025
   339   1      7.8400000000000043      35.280000000000001      11.760000000000003
   340   1      9.8000000000000025      35.280000000000001      13.720000000000004
   341   1      9.8000000000000025      37.240000000000009      11.760000000000003
   342   1      7.8400000000000043      35.280000000000001      15.680000000000005
   343   1      7.8400000000000043      37.240000000000009      17.640000000000008
   344   1      9.8000000000000025      35.280000000000001      17.640000000000008
   345   1      9.8000000000000025      37.240000000000009      15.680000000000005
   346   1      7.8400000000000043      35.280000000000001      19.600000000000005
   347   1      7.8400000000000043      37.240000000000009      21.560000000000002
   348   1      9.8000000000000025      35.280000000000001      21.560000000000002
   349   1      9.8000000000000025      37.240000000000009      19.600000000000005
   350   1      7.8400000000000043      35.280000000000001      23.520000000000003
   351   1      7.8400000000000043      37.240000000000009                   25.48
   352   1      9.8000000000000025      35.280000000000001                   25.48
   353   1      9.8000000000000025      37.240000000000009      23.520000000000003
   354   1      7.8400000000000043      35.280000000000001      27.440000000000001
   355   1      7.8400000000000043      37.240000000000009      29.400000000000006
   356   1      9.8000000000000025      35.280000000000001      29.400000000000006
   357   1      9.8000000000000025      37.240000000000009      27.440000000000001
   358   1      7.8400000000000043      35.280000000000001      31.360000000000007