model_files/PtCu/PtCu_30000/PtCu_322/PtCu_322_fcc_30187_temp.data (written by ASE) 

30187 	 atoms 
2  atom types
0.0                     117  xlo xhi
0.0                     117  ylo yhi
0.0                     117  zlo zhi


Atoms 

     1   1      1.9250000000000045       55.82500000000001      57.750000000000014
     2   1      1.9250000000000045      57.750000000000014       55.82500000000001
     3   1  7.1054273576010019e-15      57.750000000000014      57.750000000000014
     4   1      1.9250000000000045      57.750000000000014      59.675000000000011
     5   1      1.9250000000000045      59.675000000000011      57.750000000000014
     6   1      5.7750000000000066      48.125000000000014      57.750000000000014
     7   1       3.850000000000009      51.975000000000001       55.82500000000001
     8   1      5.7750000000000066      50.050000000000011       55.82500000000001
     9   1      5.7750000000000066      51.975000000000001      53.900000000000013
    10   1       3.850000000000009      50.050000000000011      57.750000000000014
    11   1       3.850000000000009      51.975000000000001      59.675000000000011
    12   1      5.7750000000000066      50.050000000000011      59.675000000000011
    13   1      5.7750000000000066      51.975000000000001      57.750000000000014
    14   1      5.7750000000000066      51.975000000000001      61.600000000000016
    15   1       3.850000000000009       55.82500000000001      51.975000000000001
    16   1      5.7750000000000066      53.900000000000013      51.975000000000001
    17   1      5.7750000000000066       55.82500000000001      50.050000000000011
    18   1       3.850000000000009      53.900000000000013      53.900000000000013
    19   1       3.850000000000009       55.82500000000001       55.82500000000001
    20   1      5.7750000000000066      53.900000000000013       55.82500000000001
    21   1      5.7750000000000066       55.82500000000001      53.900000000000013
    22   1       3.850000000000009      53.900000000000013      57.750000000000014
    23   1       3.850000000000009       55.82500000000001      59.675000000000011
    24   1      5.7750000000000066      53.900000000000013      59.675000000000011
    25   1      5.7750000000000066       55.82500000000001      57.750000000000014
    26   1       3.850000000000009      53.900000000000013      61.600000000000016
    27   1       3.850000000000009       55.82500000000001      63.525000000000006
    28   1      5.7750000000000066      53.900000000000013      63.525000000000006
    29   1      5.7750000000000066       55.82500000000001      61.600000000000016
    30   1      5.7750000000000066       55.82500000000001      65.450000000000017
    31   1      5.7750000000000066      57.750000000000014      48.125000000000014
    32   1       3.850000000000009      57.750000000000014      50.050000000000011
    33   1       3.850000000000009      59.675000000000011      51.975000000000001
    34   1      5.7750000000000066      57.750000000000014      51.975000000000001
    35   1      5.7750000000000066      59.675000000000011      50.050000000000011
    36   1       3.850000000000009      57.750000000000014      53.900000000000013
    37   1       3.850000000000009      59.675000000000011       55.82500000000001
    38   1      5.7750000000000066      57.750000000000014       55.82500000000001
    39   1      5.7750000000000066      59.675000000000011      53.900000000000013
    40   1       3.850000000000009      57.750000000000014      57.750000000000014
    41   1       3.850000000000009      59.675000000000011      59.675000000000011
    42   1      5.7750000000000066      57.750000000000014      59.675000000000011
    43   1      5.7750000000000066      59.675000000000011      57.750000000000014
    44   1       3.850000000000009      57.750000000000014      61.600000000000016
    45   1       3.850000000000009      59.675000000000011      63.525000000000006
    46   1      5.7750000000000066      57.750000000000014      63.525000000000006
    47   1      5.7750000000000066      59.675000000000011      61.600000000000016
    48   1       3.850000000000009      57.750000000000014      65.450000000000017
    49   1      5.7750000000000066      57.750000000000014      67.375000000000014
    50   1      5.7750000000000066      59.675000000000011      65.450000000000017
    51   1      5.7750000000000066      61.600000000000016      51.975000000000001
    52   1       3.850000000000009      61.600000000000016      53.900000000000013
    53   1       3.850000000000009      63.525000000000006       55.82500000000001
    54   1      5.7750000000000066      61.600000000000016       55.82500000000001
    55   1      5.7750000000000066      63.525000000000006      53.900000000000013
    56   1       3.850000000000009      61.600000000000016      57.750000000000014
    57   1       3.850000000000009      63.525000000000006      59.675000000000011
    58   1      5.7750000000000066      61.600000000000016      59.675000000000011
    59   1      5.7750000000000066      63.525000000000006      57.750000000000014
    60   1       3.850000000000009      61.600000000000016      61.600000000000016
    61   1      5.7750000000000066      61.600000000000016      63.525000000000006
    62   1      5.7750000000000066      63.525000000000006      61.600000000000016
    63   1      5.7750000000000066      65.450000000000017       55.82500000000001
    64   1       3.850000000000009      65.450000000000017      57.750000000000014
    65   1      5.7750000000000066      65.450000000000017      59.675000000000011
    66   1      5.7750000000000066      67.375000000000014      57.750000000000014
    67   1      9.6250000000000089      44.275000000000013      57.750000000000014
    68   1      7.7000000000000099      48.125000000000014       55.82500000000001
    69   1      9.6250000000000089      46.200000000000017       55.82500000000001
    70   1      9.6250000000000089      48.125000000000014      53.900000000000013
    71   1      7.7000000000000099      46.200000000000017      57.750000000000014
    72   1      7.7000000000000099      48.125000000000014      59.675000000000011
    73   1      9.6250000000000089      46.200000000000017      59.675000000000011
    74   1      9.6250000000000089      48.125000000000014      57.750000000000014
    75   1      9.6250000000000089      48.125000000000014      61.600000000000016
    76   1      7.7000000000000099      51.975000000000001      51.975000000000001
    77   1      9.6250000000000089      50.050000000000011      51.975000000000001
    78   1      9.6250000000000089      51.975000000000001      50.050000000000011
    79   1      7.7000000000000099      50.050000000000011      53.900000000000013
    80   1      7.7000000000000099      51.975000000000001       55.82500000000001
    81   1      9.6250000000000089      50.050000000000011       55.82500000000001
    82   1      9.6250000000000089      51.975000000000001      53.900000000000013
    83   1      7.7000000000000099      50.050000000000011      57.750000000000014
    84   1      7.7000000000000099      51.975000000000001      59.675000000000011
    85   1      9.6250000000000089      50.050000000000011      59.675000000000011
    86   1      9.6250000000000089      51.975000000000001      57.750000000000014
    87   1      7.7000000000000099      50.050000000000011      61.600000000000016
    88   1      7.7000000000000099      51.975000000000001      63.525000000000006
    89   1      9.6250000000000089      50.050000000000011      63.525000000000006
    90   1      9.6250000000000089      51.975000000000001      61.600000000000016
    91   1      9.6250000000000089      51.975000000000001      65.450000000000017
    92   1      7.7000000000000099       55.82500000000001      48.125000000000014
    93   1      9.6250000000000089      53.900000000000013      48.125000000000014
    94   1      9.6250000000000089       55.82500000000001      46.200000000000017
    95   1      7.7000000000000099      53.900000000000013      50.050000000000011
    96   1      7.7000000000000099       55.82500000000001      51.975000000000001
    97   1      9.6250000000000089      53.900000000000013      51.975000000000001
    98   1      9.6250000000000089       55.82500000000001      50.050000000000011
    99   1      7.7000000000000099      53.900000000000013      53.900000000000013
   100   1      7.7000000000000099       55.82500000000001       55.82500000000001
   101   1      9.6250000000000089      53.900000000000013       55.82500000000001
   102   1      9.6250000000000089       55.82500000000001      53.900000000000013
   103   1      7.7000000000000099      53.900000000000013      57.750000000000014
   104   1      7.7000000000000099       55.82500000000001      59.675000000000011
   105   1      9.6250000000000089      53.900000000000013      59.675000000000011
   106   1      9.6250000000000089       55.82500000000001      57.750000000000014
   107   1      7.7000000000000099      53.900000000000013      61.600000000000016
   108   1      7.7000000000000099       55.82500000000001      63.525000000000006
   109   1      9.6250000000000089      53.900000000000013      63.525000000000006
   110   1      9.6250000000000089       55.82500000000001      61.600000000000016
   111   1      7.7000000000000099      53.900000000000013      65.450000000000017
   112   1      7.7000000000000099       55.82500000000001      67.375000000000014
   113   1      9.6250000000000089      53.900000000000013      67.375000000000014
   114   1      9.6250000000000089       55.82500000000001      65.450000000000017
   115   1      9.6250000000000089       55.82500000000001      69.300000000000011
   116   1      9.6250000000000089      57.750000000000014      44.275000000000013
   117   1      7.7000000000000099      57.750000000000014      46.200000000000017
   118   1      7.7000000000000099      59.675000000000011      48.125000000000014
   119   1      9.6250000000000089      57.750000000000014      48.125000000000014
   120   1      9.6250000000000089      59.675000000000011      46.200000000000017
   121   1      7.7000000000000099      57.750000000000014      50.050000000000011
   122   1      7.7000000000000099      59.675000000000011      51.975000000000001
   123   1      9.6250000000000089      57.750000000000014      51.975000000000001
   124   1      9.6250000000000089      59.675000000000011      50.050000000000011
   125   1      7.7000000000000099      57.750000000000014      53.900000000000013
   126   1      7.7000000000000099      59.675000000000011       55.82500000000001
   127   1      9.6250000000000089      57.750000000000014       55.82500000000001
   128   1      9.6250000000000089      59.675000000000011      53.900000000000013
   129   1      7.7000000000000099      57.750000000000014      57.750000000000014
   130   1      7.7000000000000099      59.675000000000011      59.675000000000011
   131   1      9.6250000000000089      57.750000000000014      59.675000000000011
   132   1      9.6250000000000089      59.675000000000011      57.750000000000014
   133   1      7.7000000000000099      57.750000000000014      61.600000000000016
   134   1      7.7000000000000099      59.675000000000011      63.525000000000006
   135   1      9.6250000000000089      57.750000000000014      63.525000000000006
   136   1      9.6250000000000089      59.675000000000011      61.600000000000016
   137   1      7.7000000000000099      57.750000000000014      65.450000000000017
   138   1      7.7000000000000099      59.675000000000011      67.375000000000014
   139   1      9.6250000000000089      57.750000000000014      67.375000000000014
   140   1      9.6250000000000089      59.675000000000011      65.450000000000017
   141   1      7.7000000000000099      57.750000000000014      69.300000000000011
   142   1      9.6250000000000089      57.750000000000014      71.225000000000023
   143   1      9.6250000000000089      59.675000000000011      69.300000000000011
   144   1      9.6250000000000089      61.600000000000016      48.125000000000014
   145   1      7.7000000000000099      61.600000000000016      50.050000000000011
   146   1      7.7000000000000099      63.525000000000006      51.975000000000001
   147   1      9.6250000000000089      61.600000000000016      51.975000000000001
   148   1      9.6250000000000089      63.525000000000006      50.050000000000011
   149   1      7.7000000000000099      61.600000000000016      53.900000000000013
   150   1      7.7000000000000099      63.525000000000006       55.82500000000001
   151   1      9.6250000000000089      61.600000000000016       55.82500000000001
   152   1      9.6250000000000089      63.525000000000006      53.900000000000013
   153   1      7.7000000000000099      61.600000000000016      57.750000000000014
   154   1      7.7000000000000099      63.525000000000006      59.675000000000011
   155   1      9.6250000000000089      61.600000000000016      59.675000000000011
   156   1      9.6250000000000089      63.525000000000006      57.750000000000014
   157   1      7.7000000000000099      61.600000000000016      61.600000000000016
   158   1      7.7000000000000099      63.525000000000006      63.525000000000006
   159   1      9.6250000000000089      61.600000000000016      63.525000000000006
   160   1      9.6250000000000089      63.525000000000006      61.600000000000016
   161   1      7.7000000000000099      61.600000000000016      65.450000000000017
   162   1      9.6250000000000089      61.600000000000016      67.375000000000014
   163   1      9.6250000000000089      63.525000000000006      65.450000000000017
   164   1      9.6250000000000089      65.450000000000017      51.975000000000001
   165   1      7.7000000000000099      65.450000000000017      53.900000000000013
   166   1      7.7000000000000099      67.375000000000014       55.82500000000001
   167   1      9.6250000000000089      65.450000000000017       55.82500000000001
   168   1      9.6250000000000089      67.375000000000014      53.900000000000013
   169   1      7.7000000000000099      65.450000000000017      57.750000000000014
   170   1      7.7000000000000099      67.375000000000014      59.675000000000011
   171   1      9.6250000000000089      65.450000000000017      59.675000000000011
   172   1      9.6250000000000089      67.375000000000014      57.750000000000014
   173   1      7.7000000000000099      65.450000000000017      61.600000000000016
   174   1      9.6250000000000089      65.450000000000017      63.525000000000006
   175   1      9.6250000000000089      67.375000000000014      61.600000000000016
   176   1      9.6250000000000089      69.300000000000011       55.82500000000001
   177   1      7.7000000000000099      69.300000000000011      57.750000000000014
   178   1      9.6250000000000089      69.300000000000011      59.675000000000011
   179   1      9.6250000000000089      71.225000000000023      57.750000000000014
   180   1      13.475000000000003       36.57500000000001      57.750000000000014
   181   1      11.550000000000006      40.425000000000004       55.82500000000001
   182   1      13.475000000000003      38.500000000000014       55.82500000000001
   183   1      13.475000000000003      40.425000000000004      53.900000000000013
   184   1      11.550000000000006      38.500000000000014      57.750000000000014
   185   1      11.550000000000006      40.425000000000004      59.675000000000011
   186   1      13.475000000000003      38.500000000000014      59.675000000000011
   187   1      13.475000000000003      40.425000000000004      57.750000000000014
   188   1      13.475000000000003      40.425000000000004      61.600000000000016
   189   1      11.550000000000006      44.275000000000013      51.975000000000001
   190   1      13.475000000000003      42.350000000000009      51.975000000000001
   191   1      13.475000000000003      44.275000000000013      50.050000000000011
   192   1      11.550000000000006      42.350000000000009      53.900000000000013
   193   1      11.550000000000006      44.275000000000013       55.82500000000001
   194   1      13.475000000000003      42.350000000000009       55.82500000000001
   195   1      13.475000000000003      44.275000000000013      53.900000000000013
   196   1      11.550000000000006      42.350000000000009      57.750000000000014
   197   1      11.550000000000006      44.275000000000013      59.675000000000011
   198   1      13.475000000000003      42.350000000000009      59.675000000000011
   199   1      13.475000000000003      44.275000000000013      57.750000000000014
   200   1      11.550000000000006      42.350000000000009      61.600000000000016
   201   1      11.550000000000006      44.275000000000013      63.525000000000006
   202   1      13.475000000000003      42.350000000000009      63.525000000000006
   203   1      13.475000000000003      44.275000000000013      61.600000000000016
   204   1      13.475000000000003      44.275000000000013      65.450000000000017
   205   1      11.550000000000006      48.125000000000014      48.125000000000014
   206   1      13.475000000000003      46.200000000000017      48.125000000000014
   207   1      13.475000000000003      48.125000000000014      46.200000000000017
   208   1      11.550000000000006      46.200000000000017      50.050000000000011
   209   1      11.550000000000006      48.125000000000014      51.975000000000001
   210   1      13.475000000000003      46.200000000000017      51.975000000000001
   211   1      13.475000000000003      48.125000000000014      50.050000000000011
   212   1      11.550000000000006      46.200000000000017      53.900000000000013
   213   1      11.550000000000006      48.125000000000014       55.82500000000001
   214   1      13.475000000000003      46.200000000000017       55.82500000000001
   215   1      13.475000000000003      48.125000000000014      53.900000000000013
   216   1      11.550000000000006      46.200000000000017      57.750000000000014
   217   1      11.550000000000006      48.125000000000014      59.675000000000011
   218   1      13.475000000000003      46.200000000000017      59.675000000000011
   219   1      13.475000000000003      48.125000000000014      57.750000000000014
   220   1      11.550000000000006      46.200000000000017      61.600000000000016
   221   1      11.550000000000006      48.125000000000014      63.525000000000006
   222   1      13.475000000000003      46.200000000000017      63.525000000000006
   223   1      13.475000000000003      48.125000000000014      61.600000000000016
   224   1      11.550000000000006      46.200000000000017      65.450000000000017
   225   1      11.550000000000006      48.125000000000014      67.375000000000014
   226   1      13.475000000000003      46.200000000000017      67.375000000000014
   227   1      13.475000000000003      48.125000000000014      65.450000000000017
   228   1      13.475000000000003      48.125000000000014      69.300000000000011
   229   1      11.550000000000006      51.975000000000001      44.275000000000013
   230   1      13.475000000000003      50.050000000000011      44.275000000000013
   231   1      13.475000000000003      51.975000000000001      42.350000000000009
   232   1      11.550000000000006      50.050000000000011      46.200000000000017
   233   1      11.550000000000006      51.975000000000001      48.125000000000014
   234   1      13.475000000000003      50.050000000000011      48.125000000000014
   235   1      13.475000000000003      51.975000000000001      46.200000000000017
   236   1      11.550000000000006      50.050000000000011      50.050000000000011
   237   1      11.550000000000006      51.975000000000001      51.975000000000001
   238   1      13.475000000000003      50.050000000000011      51.975000000000001
   239   1      13.475000000000003      51.975000000000001      50.050000000000011
   240   1      11.550000000000006      50.050000000000011      53.900000000000013
   241   1      11.550000000000006      51.975000000000001       55.82500000000001
   242   1      13.475000000000003      50.050000000000011       55.82500000000001
   243   1      13.475000000000003      51.975000000000001      53.900000000000013
   244   1      11.550000000000006      50.050000000000011      57.750000000000014
   245   1      11.550000000000006      51.975000000000001      59.675000000000011
   246   1      13.475000000000003      50.050000000000011      59.675000000000011
   247   1      13.475000000000003      51.975000000000001      57.750000000000014
   248   1      11.550000000000006      50.050000000000011      61.600000000000016
   249   1      11.550000000000006      51.975000000000001      63.525000000000006
   250   1      13.475000000000003      50.050000000000011      63.525000000000006
   251   1      13.475000000000003      51.975000000000001      61.600000000000016
   252   1      11.550000000000006      50.050000000000011      65.450000000000017
   253   1      11.550000000000006      51.975000000000001      67.375000000000014
   254   1      13.475000000000003      50.050000000000011      67.375000000000014
   255   1      13.475000000000003      51.975000000000001      65.450000000000017
   256   1      11.550000000000006      50.050000000000011      69.300000000000011
   257   1      11.550000000000006      51.975000000000001      71.225000000000023
   258   1      13.475000000000003      50.050000000000011      71.225000000000023
   259   1      13.475000000000003      51.975000000000001      69.300000000000011
   260   1      13.475000000000003      51.975000000000001       73.15000000000002
   261   1      11.550000000000006       55.82500000000001      40.425000000000004
   262   1      13.475000000000003      53.900000000000013      40.425000000000004
   263   1      13.475000000000003       55.82500000000001      38.500000000000014
   264   1      11.550000000000006      53.900000000000013      42.350000000000009
   265   1      11.550000000000006       55.82500000000001      44.275000000000013
   266   1      13.475000000000003      53.900000000000013      44.275000000000013
   267   1      13.475000000000003       55.82500000000001      42.350000000000009
   268   1      11.550000000000006      53.900000000000013      46.200000000000017
   269   1      11.550000000000006       55.82500000000001      48.125000000000014
   270   1      13.475000000000003      53.900000000000013      48.125000000000014
   271   1      13.475000000000003       55.82500000000001      46.200000000000017
   272   1      11.550000000000006      53.900000000000013      50.050000000000011
   273   1      11.550000000000006       55.82500000000001      51.975000000000001
   274   1      13.475000000000003      53.900000000000013      51.975000000000001
   275   1      13.475000000000003       55.82500000000001      50.050000000000011
   276   1      11.550000000000006      53.900000000000013      53.900000000000013
   277   1      11.550000000000006       55.82500000000001       55.82500000000001
   278   1      13.475000000000003      53.900000000000013       55.82500000000001
   279   1      13.475000000000003       55.82500000000001      53.900000000000013
   280   1      11.550000000000006      53.900000000000013      57.750000000000014
   281   1      11.550000000000006       55.82500000000001      59.675000000000011
   282   1      13.475000000000003      53.900000000000013      59.675000000000011
   283   1      13.475000000000003       55.82500000000001      57.750000000000014
   284   1      11.550000000000006      53.900000000000013      61.600000000000016
   285   1      11.550000000000006       55.82500000000001      63.525000000000006
   286   1      13.475000000000003      53.900000000000013      63.525000000000006
   287   1      13.475000000000003       55.82500000000001      61.600000000000016
   288   1      11.550000000000006      53.900000000000013      65.450000000000017
   289   1      11.550000000000006       55.82500000000001      67.375000000000014
   290   1      13.475000000000003      53.900000000000013      67.375000000000014
   291   1      13.475000000000003       55.82500000000001      65.450000000000017
   292   1      11.550000000000006      53.900000000000013      69.300000000000011
   293   1      11.550000000000006       55.82500000000001      71.225000000000023
   294   1      13.475000000000003      53.900000000000013      71.225000000000023
   295   1      13.475000000000003       55.82500000000001      69.300000000000011
   296   1      11.550000000000006      53.900000000000013       73.15000000000002
   297   1      11.550000000000006       55.82500000000001      75.075000000000003
   298   1      13.475000000000003      53.900000000000013      75.075000000000003
   299   1      13.475000000000003       55.82500000000001       73.15000000000002
   300   1      13.475000000000003       55.82500000000001      77.000000000000028
   301   1      13.475000000000003      57.750000000000014       36.57500000000001
   302   1      11.550000000000006      57.750000000000014      38.500000000000014
   303   1      11.550000000000006      59.675000000000011      40.425000000000004
   304   1      13.475000000000003      57.750000000000014      40.425000000000004
   305   1      13.475000000000003      59.675000000000011      38.500000000000014
   306   1      11.550000000000006      57.750000000000014      42.350000000000009
   307   1      11.550000000000006      59.675000000000011      44.275000000000013
   308   1      13.475000000000003      57.750000000000014      44.275000000000013
   309   1      13.475000000000003      59.675000000000011      42.350000000000009
   310   1      11.550000000000006      57.750000000000014      46.200000000000017
   311   1      11.550000000000006      59.675000000000011      48.125000000000014
   312   1      13.475000000000003      57.750000000000014      48.125000000000014
   313   1      13.475000000000003      59.675000000000011      46.200000000000017
   314   1      11.550000000000006      57.750000000000014      50.050000000000011
   315   1      11.550000000000006      59.675000000000011      51.975000000000001
   316   1      13.475000000000003      57.750000000000014      51.975000000000001
   317   1      13.475000000000003      59.675000000000011      50.050000000000011
   318   1      11.550000000000006      57.750000000000014      53.900000000000013
   319   1      11.550000000000006      59.675000000000011       55.82500000000001
   320   1      13.475000000000003      57.750000000000014       55.82500000000001
   321   1      13.475000000000003      59.675000000000011      53.900000000000013
   322   1      11.550000000000006      57.750000000000014      57.750000000000014
   323   1      11.550000000000006      59.675000000000011      59.675000000000011
   324   1      13.475000000000003      57.750000000000014      59.675000000000011
   325   1      13.475000000000003      59.675000000000011      57.750000000000014
   326   1      11.550000000000006      57.750000000000014      61.600000000000016
   327   1      11.550000000000006      59.675000000000011      63.525000000000006
   328   1      13.475000000000003      57.750000000000014      63.525000000000006
   329   1      13.475000000000003      59.675000000000011      61.600000000000016
   330   1      11.550000000000006      57.750000000000014      65.450000000000017
   331   1      11.550000000000006      59.675000000000011      67.375000000000014
   332   1      13.475000000000003      57.750000000000014      67.375000000000014
   333   1      13.475000000000003      59.675000000000011      65.450000000000017
   334   1      11.550000000000006      57.750000000000014      69.300000000000011
   335   1      11.550000000000006      59.675000000000011      71.225000000000023
   336   1      13.475000000000003      57.750000000000014      71.225000000000023
   337   1      13.475000000000003      59.675000000000011      69.300000000000011
   338   1      11.550000000000006      57.750000000000014       73.15000000000002
   339   1      11.550000000000006      59.675000000000011      75.075000000000003
   340   1      13.475000000000003      57.750000000000014      75.075000000000003
   341   1      13.475000000000003      59.675000000000011       73.15000000000002
   342   1      11.550000000000006      57.750000000000014      77.000000000000028
   343   1      13.475000000000003      57.750000000000014      78.925000000000011
   344   1      13.475000000000003      59.675000000000011      77.000000000000028
   345   1      13.475000000000003      61.600000000000016      40.425000000000004
   346   1      11.550000000000006      61.600000000000016      42.350000000000009
   347   1      11.550000000000006      63.525000000000006      44.275000000000013
   348   1      13.475000000000003      61.600000000000016      44.275000000000013
   349   1      13.475000000000003      63.525000000000006      42.350000000000009
   350   1      11.550000000000006      61.600000000000016      46.200000000000017
   351   1      11.550000000000006      63.525000000000006      48.125000000000014
   352   1      13.475000000000003      61.600000000000016      48.125000000000014
   353   1      13.475000000000003      63.525000000000006      46.200000000000017
   354   1      11.550000000000006      61.600000000000016      50.050000000000011
   355   1      11.550000000000006      63.525000000000006      51.975000000000001
   356   1      13.475000000000003      61.600000000000016      51.975000000000001
   357   1      13.475000000000003      63.525000000000006      50.050000000000011
   358   1      11.550000000000006      61.600000000000016      53.900000000000013