model_files/Fe/Fe_30000/Fe_551/data.Fe_551_fcc_30289 (written by ASE) 

30289 	 atoms 
1  atom types
0.0                     114  xlo xhi
0.0                     114  ylo yhi
0.0                     114  zlo zhi


Atoms 

     1   1      1.4349999999999952      55.964999999999982      55.964999999999982
     2   1      1.4349999999999952      55.964999999999982      58.834999999999994
     3   1      1.4349999999999952      58.834999999999994      55.964999999999982
     4   1      113.99999999999999      57.399999999999991      57.399999999999991
     5   1      1.4349999999999952      58.834999999999994      58.834999999999994
     6   1      4.3049999999999926      53.094999999999992      55.964999999999982
     7   1      4.3049999999999926      53.094999999999992      58.834999999999994
     8   1      4.3049999999999926      55.964999999999982      53.094999999999992
     9   1      2.8699999999999974       54.52999999999998       54.52999999999998
    10   1      4.3049999999999926      55.964999999999982      55.964999999999982
    11   1      2.8699999999999974       54.52999999999998      57.399999999999991
    12   1      4.3049999999999926      55.964999999999982      58.834999999999994
    13   1      2.8699999999999974       54.52999999999998      60.269999999999982
    14   1      4.3049999999999926      55.964999999999982      61.704999999999977
    15   1      4.3049999999999926      58.834999999999994      53.094999999999992
    16   1      2.8699999999999974      57.399999999999991       54.52999999999998
    17   1      4.3049999999999926      58.834999999999994      55.964999999999982
    18   1      2.8699999999999974      57.399999999999991      57.399999999999991
    19   1      4.3049999999999926      58.834999999999994      58.834999999999994
    20   1      2.8699999999999974      57.399999999999991      60.269999999999982
    21   1      4.3049999999999926      58.834999999999994      61.704999999999977
    22   1      2.8699999999999974      60.269999999999982       54.52999999999998
    23   1      4.3049999999999926      61.704999999999977      55.964999999999982
    24   1      2.8699999999999974      60.269999999999982      57.399999999999991
    25   1      4.3049999999999926      61.704999999999977      58.834999999999994
    26   1      2.8699999999999974      60.269999999999982      60.269999999999982
    27   1      7.1749999999999972      50.224999999999987      55.964999999999982
    28   1      7.1749999999999972      50.224999999999987      58.834999999999994
    29   1      7.1749999999999972      53.094999999999992      53.094999999999992
    30   1      5.7399999999999949      51.659999999999982       54.52999999999998
    31   1      7.1749999999999972      53.094999999999992      55.964999999999982
    32   1      5.7399999999999949      51.659999999999982      57.399999999999991
    33   1      7.1749999999999972      53.094999999999992      58.834999999999994
    34   1      5.7399999999999949      51.659999999999982      60.269999999999982
    35   1      7.1749999999999972      53.094999999999992      61.704999999999977
    36   1      7.1749999999999972      55.964999999999982      50.224999999999987
    37   1      5.7399999999999949       54.52999999999998      51.659999999999982
    38   1      7.1749999999999972      55.964999999999982      53.094999999999992
    39   1      5.7399999999999949       54.52999999999998       54.52999999999998
    40   1      7.1749999999999972      55.964999999999982      55.964999999999982
    41   1      5.7399999999999949       54.52999999999998      57.399999999999991
    42   1      7.1749999999999972      55.964999999999982      58.834999999999994
    43   1      5.7399999999999949       54.52999999999998      60.269999999999982
    44   1      7.1749999999999972      55.964999999999982      61.704999999999977
    45   1      5.7399999999999949       54.52999999999998      63.139999999999979
    46   1      7.1749999999999972      55.964999999999982      64.574999999999989
    47   1      7.1749999999999972      58.834999999999994      50.224999999999987
    48   1      5.7399999999999949      57.399999999999991      51.659999999999982
    49   1      7.1749999999999972      58.834999999999994      53.094999999999992
    50   1      5.7399999999999949      57.399999999999991       54.52999999999998
    51   1      7.1749999999999972      58.834999999999994      55.964999999999982
    52   1      5.7399999999999949      57.399999999999991      57.399999999999991
    53   1      7.1749999999999972      58.834999999999994      58.834999999999994
    54   1      5.7399999999999949      57.399999999999991      60.269999999999982
    55   1      7.1749999999999972      58.834999999999994      61.704999999999977
    56   1      5.7399999999999949      57.399999999999991      63.139999999999979
    57   1      7.1749999999999972      58.834999999999994      64.574999999999989
    58   1      5.7399999999999949      60.269999999999982      51.659999999999982
    59   1      7.1749999999999972      61.704999999999977      53.094999999999992
    60   1      5.7399999999999949      60.269999999999982       54.52999999999998
    61   1      7.1749999999999972      61.704999999999977      55.964999999999982
    62   1      5.7399999999999949      60.269999999999982      57.399999999999991
    63   1      7.1749999999999972      61.704999999999977      58.834999999999994
    64   1      5.7399999999999949      60.269999999999982      60.269999999999982
    65   1      7.1749999999999972      61.704999999999977      61.704999999999977
    66   1      5.7399999999999949      60.269999999999982      63.139999999999979
    67   1      5.7399999999999949      63.139999999999979       54.52999999999998
    68   1      7.1749999999999972      64.574999999999989      55.964999999999982
    69   1      5.7399999999999949      63.139999999999979      57.399999999999991
    70   1      7.1749999999999972      64.574999999999989      58.834999999999994
    71   1      5.7399999999999949      63.139999999999979      60.269999999999982
    72   1      10.044999999999993       47.35499999999999      55.964999999999982
    73   1      10.044999999999993       47.35499999999999      58.834999999999994
    74   1      10.044999999999993      50.224999999999987      50.224999999999987
    75   1      10.044999999999993      50.224999999999987      53.094999999999992
    76   1      8.6099999999999905      48.789999999999992       54.52999999999998
    77   1      10.044999999999993      50.224999999999987      55.964999999999982
    78   1      8.6099999999999905      48.789999999999992      57.399999999999991
    79   1      10.044999999999993      50.224999999999987      58.834999999999994
    80   1      8.6099999999999905      48.789999999999992      60.269999999999982
    81   1      10.044999999999993      50.224999999999987      61.704999999999977
    82   1      10.044999999999993      50.224999999999987      64.574999999999989
    83   1      10.044999999999993      53.094999999999992      50.224999999999987
    84   1      8.6099999999999905      51.659999999999982      51.659999999999982
    85   1      10.044999999999993      53.094999999999992      53.094999999999992
    86   1      8.6099999999999905      51.659999999999982       54.52999999999998
    87   1      10.044999999999993      53.094999999999992      55.964999999999982
    88   1      8.6099999999999905      51.659999999999982      57.399999999999991
    89   1      10.044999999999993      53.094999999999992      58.834999999999994
    90   1      8.6099999999999905      51.659999999999982      60.269999999999982
    91   1      10.044999999999993      53.094999999999992      61.704999999999977
    92   1      8.6099999999999905      51.659999999999982      63.139999999999979
    93   1      10.044999999999993      53.094999999999992      64.574999999999989
    94   1      10.044999999999993      55.964999999999982       47.35499999999999
    95   1      8.6099999999999905       54.52999999999998      48.789999999999992
    96   1      10.044999999999993      55.964999999999982      50.224999999999987
    97   1      8.6099999999999905       54.52999999999998      51.659999999999982
    98   1      10.044999999999993      55.964999999999982      53.094999999999992
    99   1      8.6099999999999905       54.52999999999998       54.52999999999998
   100   1      10.044999999999993      55.964999999999982      55.964999999999982
   101   1      8.6099999999999905       54.52999999999998      57.399999999999991
   102   1      10.044999999999993      55.964999999999982      58.834999999999994
   103   1      8.6099999999999905       54.52999999999998      60.269999999999982
   104   1      10.044999999999993      55.964999999999982      61.704999999999977
   105   1      8.6099999999999905       54.52999999999998      63.139999999999979
   106   1      10.044999999999993      55.964999999999982      64.574999999999989
   107   1      8.6099999999999905       54.52999999999998      66.009999999999991
   108   1      10.044999999999993      55.964999999999982      67.444999999999993
   109   1      10.044999999999993      58.834999999999994       47.35499999999999
   110   1      8.6099999999999905      57.399999999999991      48.789999999999992
   111   1      10.044999999999993      58.834999999999994      50.224999999999987
   112   1      8.6099999999999905      57.399999999999991      51.659999999999982
   113   1      10.044999999999993      58.834999999999994      53.094999999999992
   114   1      8.6099999999999905      57.399999999999991       54.52999999999998
   115   1      10.044999999999993      58.834999999999994      55.964999999999982
   116   1      8.6099999999999905      57.399999999999991      57.399999999999991
   117   1      10.044999999999993      58.834999999999994      58.834999999999994
   118   1      8.6099999999999905      57.399999999999991      60.269999999999982
   119   1      10.044999999999993      58.834999999999994      61.704999999999977
   120   1      8.6099999999999905      57.399999999999991      63.139999999999979
   121   1      10.044999999999993      58.834999999999994      64.574999999999989
   122   1      8.6099999999999905      57.399999999999991      66.009999999999991
   123   1      10.044999999999993      58.834999999999994      67.444999999999993
   124   1      8.6099999999999905      60.269999999999982      48.789999999999992
   125   1      10.044999999999993      61.704999999999977      50.224999999999987
   126   1      8.6099999999999905      60.269999999999982      51.659999999999982
   127   1      10.044999999999993      61.704999999999977      53.094999999999992
   128   1      8.6099999999999905      60.269999999999982       54.52999999999998
   129   1      10.044999999999993      61.704999999999977      55.964999999999982
   130   1      8.6099999999999905      60.269999999999982      57.399999999999991
   131   1      10.044999999999993      61.704999999999977      58.834999999999994
   132   1      8.6099999999999905      60.269999999999982      60.269999999999982
   133   1      10.044999999999993      61.704999999999977      61.704999999999977
   134   1      8.6099999999999905      60.269999999999982      63.139999999999979
   135   1      10.044999999999993      61.704999999999977      64.574999999999989
   136   1      8.6099999999999905      60.269999999999982      66.009999999999991
   137   1      10.044999999999993      64.574999999999989      50.224999999999987
   138   1      8.6099999999999905      63.139999999999979      51.659999999999982
   139   1      10.044999999999993      64.574999999999989      53.094999999999992
   140   1      8.6099999999999905      63.139999999999979       54.52999999999998
   141   1      10.044999999999993      64.574999999999989      55.964999999999982
   142   1      8.6099999999999905      63.139999999999979      57.399999999999991
   143   1      10.044999999999993      64.574999999999989      58.834999999999994
   144   1      8.6099999999999905      63.139999999999979      60.269999999999982
   145   1      10.044999999999993      64.574999999999989      61.704999999999977
   146   1      8.6099999999999905      63.139999999999979      63.139999999999979
   147   1      10.044999999999993      64.574999999999989      64.574999999999989
   148   1      8.6099999999999905      66.009999999999991       54.52999999999998
   149   1      10.044999999999993      67.444999999999993      55.964999999999982
   150   1      8.6099999999999905      66.009999999999991      57.399999999999991
   151   1      10.044999999999993      67.444999999999993      58.834999999999994
   152   1      8.6099999999999905      66.009999999999991      60.269999999999982
   153   1      12.914999999999992      44.484999999999992      55.964999999999982
   154   1      12.914999999999992      44.484999999999992      58.834999999999994
   155   1      12.914999999999992       47.35499999999999       47.35499999999999
   156   1      12.914999999999992       47.35499999999999      50.224999999999987
   157   1      12.914999999999992       47.35499999999999      53.094999999999992
   158   1       11.47999999999999       45.91999999999998       54.52999999999998
   159   1      12.914999999999992       47.35499999999999      55.964999999999982
   160   1       11.47999999999999       45.91999999999998      57.399999999999991
   161   1      12.914999999999992       47.35499999999999      58.834999999999994
   162   1       11.47999999999999       45.91999999999998      60.269999999999982
   163   1      12.914999999999992       47.35499999999999      61.704999999999977
   164   1      12.914999999999992       47.35499999999999      64.574999999999989
   165   1      12.914999999999992       47.35499999999999      67.444999999999993
   166   1      12.914999999999992      50.224999999999987       47.35499999999999
   167   1       11.47999999999999      48.789999999999992      48.789999999999992
   168   1      12.914999999999992      50.224999999999987      50.224999999999987
   169   1       11.47999999999999      48.789999999999992      51.659999999999982
   170   1      12.914999999999992      50.224999999999987      53.094999999999992
   171   1       11.47999999999999      48.789999999999992       54.52999999999998
   172   1      12.914999999999992      50.224999999999987      55.964999999999982
   173   1       11.47999999999999      48.789999999999992      57.399999999999991
   174   1      12.914999999999992      50.224999999999987      58.834999999999994
   175   1       11.47999999999999      48.789999999999992      60.269999999999982
   176   1      12.914999999999992      50.224999999999987      61.704999999999977
   177   1       11.47999999999999      48.789999999999992      63.139999999999979
   178   1      12.914999999999992      50.224999999999987      64.574999999999989
   179   1       11.47999999999999      48.789999999999992      66.009999999999991
   180   1      12.914999999999992      50.224999999999987      67.444999999999993
   181   1      12.914999999999992      53.094999999999992       47.35499999999999
   182   1       11.47999999999999      51.659999999999982      48.789999999999992
   183   1      12.914999999999992      53.094999999999992      50.224999999999987
   184   1       11.47999999999999      51.659999999999982      51.659999999999982
   185   1      12.914999999999992      53.094999999999992      53.094999999999992
   186   1       11.47999999999999      51.659999999999982       54.52999999999998
   187   1      12.914999999999992      53.094999999999992      55.964999999999982
   188   1       11.47999999999999      51.659999999999982      57.399999999999991
   189   1      12.914999999999992      53.094999999999992      58.834999999999994
   190   1       11.47999999999999      51.659999999999982      60.269999999999982
   191   1      12.914999999999992      53.094999999999992      61.704999999999977
   192   1       11.47999999999999      51.659999999999982      63.139999999999979
   193   1      12.914999999999992      53.094999999999992      64.574999999999989
   194   1       11.47999999999999      51.659999999999982      66.009999999999991
   195   1      12.914999999999992      53.094999999999992      67.444999999999993
   196   1      12.914999999999992      55.964999999999982      44.484999999999992
   197   1       11.47999999999999       54.52999999999998       45.91999999999998
   198   1      12.914999999999992      55.964999999999982       47.35499999999999
   199   1       11.47999999999999       54.52999999999998      48.789999999999992
   200   1      12.914999999999992      55.964999999999982      50.224999999999987
   201   1       11.47999999999999       54.52999999999998      51.659999999999982
   202   1      12.914999999999992      55.964999999999982      53.094999999999992
   203   1       11.47999999999999       54.52999999999998       54.52999999999998
   204   1      12.914999999999992      55.964999999999982      55.964999999999982
   205   1       11.47999999999999       54.52999999999998      57.399999999999991
   206   1      12.914999999999992      55.964999999999982      58.834999999999994
   207   1       11.47999999999999       54.52999999999998      60.269999999999982
   208   1      12.914999999999992      55.964999999999982      61.704999999999977
   209   1       11.47999999999999       54.52999999999998      63.139999999999979
   210   1      12.914999999999992      55.964999999999982      64.574999999999989
   211   1       11.47999999999999       54.52999999999998      66.009999999999991
   212   1      12.914999999999992      55.964999999999982      67.444999999999993
   213   1       11.47999999999999       54.52999999999998      68.879999999999981
   214   1      12.914999999999992      55.964999999999982      70.314999999999984
   215   1      12.914999999999992      58.834999999999994      44.484999999999992
   216   1       11.47999999999999      57.399999999999991       45.91999999999998
   217   1      12.914999999999992      58.834999999999994       47.35499999999999
   218   1       11.47999999999999      57.399999999999991      48.789999999999992
   219   1      12.914999999999992      58.834999999999994      50.224999999999987
   220   1       11.47999999999999      57.399999999999991      51.659999999999982
   221   1      12.914999999999992      58.834999999999994      53.094999999999992
   222   1       11.47999999999999      57.399999999999991       54.52999999999998
   223   1      12.914999999999992      58.834999999999994      55.964999999999982
   224   1       11.47999999999999      57.399999999999991      57.399999999999991
   225   1      12.914999999999992      58.834999999999994      58.834999999999994
   226   1       11.47999999999999      57.399999999999991      60.269999999999982
   227   1      12.914999999999992      58.834999999999994      61.704999999999977
   228   1       11.47999999999999      57.399999999999991      63.139999999999979
   229   1      12.914999999999992      58.834999999999994      64.574999999999989
   230   1       11.47999999999999      57.399999999999991      66.009999999999991
   231   1      12.914999999999992      58.834999999999994      67.444999999999993
   232   1       11.47999999999999      57.399999999999991      68.879999999999981
   233   1      12.914999999999992      58.834999999999994      70.314999999999984
   234   1       11.47999999999999      60.269999999999982       45.91999999999998
   235   1      12.914999999999992      61.704999999999977       47.35499999999999
   236   1       11.47999999999999      60.269999999999982      48.789999999999992
   237   1      12.914999999999992      61.704999999999977      50.224999999999987
   238   1       11.47999999999999      60.269999999999982      51.659999999999982
   239   1      12.914999999999992      61.704999999999977      53.094999999999992
   240   1       11.47999999999999      60.269999999999982       54.52999999999998
   241   1      12.914999999999992      61.704999999999977      55.964999999999982
   242   1       11.47999999999999      60.269999999999982      57.399999999999991
   243   1      12.914999999999992      61.704999999999977      58.834999999999994
   244   1       11.47999999999999      60.269999999999982      60.269999999999982
   245   1      12.914999999999992      61.704999999999977      61.704999999999977
   246   1       11.47999999999999      60.269999999999982      63.139999999999979
   247   1      12.914999999999992      61.704999999999977      64.574999999999989
   248   1       11.47999999999999      60.269999999999982      66.009999999999991
   249   1      12.914999999999992      61.704999999999977      67.444999999999993
   250   1       11.47999999999999      60.269999999999982      68.879999999999981
   251   1      12.914999999999992      64.574999999999989       47.35499999999999
   252   1       11.47999999999999      63.139999999999979      48.789999999999992
   253   1      12.914999999999992      64.574999999999989      50.224999999999987
   254   1       11.47999999999999      63.139999999999979      51.659999999999982
   255   1      12.914999999999992      64.574999999999989      53.094999999999992
   256   1       11.47999999999999      63.139999999999979       54.52999999999998
   257   1      12.914999999999992      64.574999999999989      55.964999999999982
   258   1       11.47999999999999      63.139999999999979      57.399999999999991
   259   1      12.914999999999992      64.574999999999989      58.834999999999994
   260   1       11.47999999999999      63.139999999999979      60.269999999999982
   261   1      12.914999999999992      64.574999999999989      61.704999999999977
   262   1       11.47999999999999      63.139999999999979      63.139999999999979
   263   1      12.914999999999992      64.574999999999989      64.574999999999989
   264   1       11.47999999999999      63.139999999999979      66.009999999999991
   265   1      12.914999999999992      64.574999999999989      67.444999999999993
   266   1      12.914999999999992      67.444999999999993       47.35499999999999
   267   1       11.47999999999999      66.009999999999991      48.789999999999992
   268   1      12.914999999999992      67.444999999999993      50.224999999999987
   269   1       11.47999999999999      66.009999999999991      51.659999999999982
   270   1      12.914999999999992      67.444999999999993      53.094999999999992
   271   1       11.47999999999999      66.009999999999991       54.52999999999998
   272   1      12.914999999999992      67.444999999999993      55.964999999999982
   273   1       11.47999999999999      66.009999999999991      57.399999999999991
   274   1      12.914999999999992      67.444999999999993      58.834999999999994
   275   1       11.47999999999999      66.009999999999991      60.269999999999982
   276   1      12.914999999999992      67.444999999999993      61.704999999999977
   277   1       11.47999999999999      66.009999999999991      63.139999999999979
   278   1      12.914999999999992      67.444999999999993      64.574999999999989
   279   1       11.47999999999999      66.009999999999991      66.009999999999991
   280   1      12.914999999999992      67.444999999999993      67.444999999999993
   281   1       11.47999999999999      68.879999999999981       54.52999999999998
   282   1      12.914999999999992      70.314999999999984      55.964999999999982
   283   1       11.47999999999999      68.879999999999981      57.399999999999991
   284   1      12.914999999999992      70.314999999999984      58.834999999999994
   285   1       11.47999999999999      68.879999999999981      60.269999999999982
   286   1      15.784999999999995      41.614999999999988      55.964999999999982
   287   1      15.784999999999995      41.614999999999988      58.834999999999994
   288   1      15.784999999999995      44.484999999999992      44.484999999999992
   289   1      15.784999999999995      44.484999999999992       47.35499999999999
   290   1      15.784999999999995      44.484999999999992      50.224999999999987
   291   1      15.784999999999995      44.484999999999992      53.094999999999992
   292   1      14.349999999999994       43.04999999999999       54.52999999999998
   293   1      15.784999999999995      44.484999999999992      55.964999999999982
   294   1      14.349999999999994       43.04999999999999      57.399999999999991
   295   1      15.784999999999995      44.484999999999992      58.834999999999994
   296   1      14.349999999999994       43.04999999999999      60.269999999999982
   297   1      15.784999999999995      44.484999999999992      61.704999999999977
   298   1      15.784999999999995      44.484999999999992      64.574999999999989
   299   1      15.784999999999995      44.484999999999992      67.444999999999993
   300   1      15.784999999999995      44.484999999999992      70.314999999999984
   301   1      15.784999999999995       47.35499999999999      44.484999999999992
   302   1      14.349999999999994       45.91999999999998       45.91999999999998
   303   1      15.784999999999995       47.35499999999999       47.35499999999999
   304   1      14.349999999999994       45.91999999999998      48.789999999999992
   305   1      15.784999999999995       47.35499999999999      50.224999999999987
   306   1      14.349999999999994       45.91999999999998      51.659999999999982
   307   1      15.784999999999995       47.35499999999999      53.094999999999992
   308   1      14.349999999999994       45.91999999999998       54.52999999999998
   309   1      15.784999999999995       47.35499999999999      55.964999999999982
   310   1      14.349999999999994       45.91999999999998      57.399999999999991
   311   1      15.784999999999995       47.35499999999999      58.834999999999994
   312   1      14.349999999999994       45.91999999999998      60.269999999999982
   313   1      15.784999999999995       47.35499999999999      61.704999999999977
   314   1      14.349999999999994       45.91999999999998      63.139999999999979
   315   1      15.784999999999995       47.35499999999999      64.574999999999989
   316   1      14.349999999999994       45.91999999999998      66.009999999999991
   317   1      15.784999999999995       47.35499999999999      67.444999999999993
   318   1      14.349999999999994       45.91999999999998      68.879999999999981
   319   1      15.784999999999995       47.35499999999999      70.314999999999984
   320   1      15.784999999999995      50.224999999999987      44.484999999999992
   321   1      14.349999999999994      48.789999999999992       45.91999999999998
   322   1      15.784999999999995      50.224999999999987       47.35499999999999
   323   1      14.349999999999994      48.789999999999992      48.789999999999992
   324   1      15.784999999999995      50.224999999999987      50.224999999999987
   325   1      14.349999999999994      48.789999999999992      51.659999999999982
   326   1      15.784999999999995      50.224999999999987      53.094999999999992
   327   1      14.349999999999994      48.789999999999992       54.52999999999998
   328   1      15.784999999999995      50.224999999999987      55.964999999999982
   329   1      14.349999999999994      48.789999999999992      57.399999999999991
   330   1      15.784999999999995      50.224999999999987      58.834999999999994
   331   1      14.349999999999994      48.789999999999992      60.269999999999982
   332   1      15.784999999999995      50.224999999999987      61.704999999999977
   333   1      14.349999999999994      48.789999999999992      63.139999999999979
   334   1      15.784999999999995      50.224999999999987      64.574999999999989
   335   1      14.349999999999994      48.789999999999992      66.009999999999991
   336   1      15.784999999999995      50.224999999999987      67.444999999999993
   337   1      14.349999999999994      48.789999999999992      68.879999999999981
   338   1      15.784999999999995      50.224999999999987      70.314999999999984
   339   1      15.784999999999995      53.094999999999992      44.484999999999992
   340   1      14.349999999999994      51.659999999999982       45.91999999999998
   341   1      15.784999999999995      53.094999999999992       47.35499999999999
   342   1      14.349999999999994      51.659999999999982      48.789999999999992
   343   1      15.784999999999995      53.094999999999992      50.224999999999987
   344   1      14.349999999999994      51.659999999999982      51.659999999999982
   345   1      15.784999999999995      53.094999999999992      53.094999999999992
   346   1      14.349999999999994      51.659999999999982       54.52999999999998
   347   1      15.784999999999995      53.094999999999992      55.964999999999982
   348   1      14.349999999999994      51.659999999999982      57.399999999999991
   349   1      15.784999999999995      53.094999999999992      58.834999999999994
   350   1      14.349999999999994      51.659999999999982      60.269999999999982
   351   1      15.784999999999995      53.094999999999992      61.704999999999977
   352   1      14.349999999999994      51.659999999999982      63.139999999999979
   353   1      15.784999999999995      53.094999999999992      64.574999999999989
   354   1      14.349999999999994      51.659999999999982      66.009999999999991
   355   1      15.784999999999995      53.094999999999992      67.444999999999993
   356   1      14.349999999999994      51.659999999999982      68.879999999999981
   357   1      15.784999999999995      53.094999999999992      70.314999999999984
   358   1      15.784999999999995      55.964999999999982      41.614999999999988