model_files/Fe/Fe_30000/Fe_443/data.Fe_443_fcc_30247 (written by ASE) 

30247 	 atoms 
1  atom types
0.0                     120  xlo xhi
0.0                     120  ylo yhi
0.0                     120  zlo zhi


Atoms 

     1   1      1.4349999999999952      58.834999999999994      58.834999999999994
     2   1      1.4349999999999952      58.834999999999994      61.704999999999977
     3   1      1.4349999999999952      61.704999999999977      58.834999999999994
     4   1      119.99999999999999      60.269999999999982      60.269999999999982
     5   1      1.4349999999999952      61.704999999999977      61.704999999999977
     6   1      4.3049999999999926      55.964999999999989      58.834999999999994
     7   1      4.3049999999999926      55.964999999999989      61.704999999999977
     8   1      4.3049999999999926      58.834999999999994      55.964999999999989
     9   1      2.8699999999999974      57.399999999999991      57.399999999999991
    10   1      4.3049999999999926      58.834999999999994      58.834999999999994
    11   1      2.8699999999999974      57.399999999999991      60.269999999999982
    12   1      4.3049999999999926      58.834999999999994      61.704999999999977
    13   1      2.8699999999999974      57.399999999999991      63.139999999999986
    14   1      4.3049999999999926      58.834999999999994      64.574999999999989
    15   1      4.3049999999999926      61.704999999999977      55.964999999999989
    16   1      2.8699999999999974      60.269999999999982      57.399999999999991
    17   1      4.3049999999999926      61.704999999999977      58.834999999999994
    18   1      2.8699999999999974      60.269999999999982      60.269999999999982
    19   1      4.3049999999999926      61.704999999999977      61.704999999999977
    20   1      2.8699999999999974      60.269999999999982      63.139999999999986
    21   1      4.3049999999999926      61.704999999999977      64.574999999999989
    22   1      2.8699999999999974      63.139999999999986      57.399999999999991
    23   1      4.3049999999999926      64.574999999999989      58.834999999999994
    24   1      2.8699999999999974      63.139999999999986      60.269999999999982
    25   1      4.3049999999999926      64.574999999999989      61.704999999999977
    26   1      2.8699999999999974      63.139999999999986      63.139999999999986
    27   1      7.1749999999999963      53.094999999999985      58.834999999999994
    28   1      7.1749999999999963      53.094999999999985      61.704999999999977
    29   1      7.1749999999999963      55.964999999999989      55.964999999999989
    30   1      5.7399999999999949       54.52999999999998      57.399999999999991
    31   1      7.1749999999999963      55.964999999999989      58.834999999999994
    32   1      5.7399999999999949       54.52999999999998      60.269999999999982
    33   1      7.1749999999999963      55.964999999999989      61.704999999999977
    34   1      5.7399999999999949       54.52999999999998      63.139999999999986
    35   1      7.1749999999999963      55.964999999999989      64.574999999999989
    36   1      7.1749999999999963      58.834999999999994      53.094999999999985
    37   1      5.7399999999999949      57.399999999999991       54.52999999999998
    38   1      7.1749999999999963      58.834999999999994      55.964999999999989
    39   1      5.7399999999999949      57.399999999999991      57.399999999999991
    40   1      7.1749999999999963      58.834999999999994      58.834999999999994
    41   1      5.7399999999999949      57.399999999999991      60.269999999999982
    42   1      7.1749999999999963      58.834999999999994      61.704999999999977
    43   1      5.7399999999999949      57.399999999999991      63.139999999999986
    44   1      7.1749999999999963      58.834999999999994      64.574999999999989
    45   1      5.7399999999999949      57.399999999999991      66.009999999999991
    46   1      7.1749999999999963      58.834999999999994      67.444999999999993
    47   1      7.1749999999999963      61.704999999999977      53.094999999999985
    48   1      5.7399999999999949      60.269999999999982       54.52999999999998
    49   1      7.1749999999999963      61.704999999999977      55.964999999999989
    50   1      5.7399999999999949      60.269999999999982      57.399999999999991
    51   1      7.1749999999999963      61.704999999999977      58.834999999999994
    52   1      5.7399999999999949      60.269999999999982      60.269999999999982
    53   1      7.1749999999999963      61.704999999999977      61.704999999999977
    54   1      5.7399999999999949      60.269999999999982      63.139999999999986
    55   1      7.1749999999999963      61.704999999999977      64.574999999999989
    56   1      5.7399999999999949      60.269999999999982      66.009999999999991
    57   1      7.1749999999999963      61.704999999999977      67.444999999999993
    58   1      5.7399999999999949      63.139999999999986       54.52999999999998
    59   1      7.1749999999999963      64.574999999999989      55.964999999999989
    60   1      5.7399999999999949      63.139999999999986      57.399999999999991
    61   1      7.1749999999999963      64.574999999999989      58.834999999999994
    62   1      5.7399999999999949      63.139999999999986      60.269999999999982
    63   1      7.1749999999999963      64.574999999999989      61.704999999999977
    64   1      5.7399999999999949      63.139999999999986      63.139999999999986
    65   1      7.1749999999999963      64.574999999999989      64.574999999999989
    66   1      5.7399999999999949      63.139999999999986      66.009999999999991
    67   1      5.7399999999999949      66.009999999999991      57.399999999999991
    68   1      7.1749999999999963      67.444999999999993      58.834999999999994
    69   1      5.7399999999999949      66.009999999999991      60.269999999999982
    70   1      7.1749999999999963      67.444999999999993      61.704999999999977
    71   1      5.7399999999999949      66.009999999999991      63.139999999999986
    72   1      10.044999999999995      50.224999999999994      58.834999999999994
    73   1      10.044999999999995      50.224999999999994      61.704999999999977
    74   1      10.044999999999995      53.094999999999985      55.964999999999989
    75   1      8.6099999999999923      51.659999999999982      57.399999999999991
    76   1      10.044999999999995      53.094999999999985      58.834999999999994
    77   1      8.6099999999999923      51.659999999999982      60.269999999999982
    78   1      10.044999999999995      53.094999999999985      61.704999999999977
    79   1      8.6099999999999923      51.659999999999982      63.139999999999986
    80   1      10.044999999999995      53.094999999999985      64.574999999999989
    81   1      10.044999999999995      55.964999999999989      53.094999999999985
    82   1      8.6099999999999923       54.52999999999998       54.52999999999998
    83   1      10.044999999999995      55.964999999999989      55.964999999999989
    84   1      8.6099999999999923       54.52999999999998      57.399999999999991
    85   1      10.044999999999995      55.964999999999989      58.834999999999994
    86   1      8.6099999999999923       54.52999999999998      60.269999999999982
    87   1      10.044999999999995      55.964999999999989      61.704999999999977
    88   1      8.6099999999999923       54.52999999999998      63.139999999999986
    89   1      10.044999999999995      55.964999999999989      64.574999999999989
    90   1      8.6099999999999923       54.52999999999998      66.009999999999991
    91   1      10.044999999999995      55.964999999999989      67.444999999999993
    92   1      10.044999999999995      58.834999999999994      50.224999999999994
    93   1      8.6099999999999923      57.399999999999991      51.659999999999982
    94   1      10.044999999999995      58.834999999999994      53.094999999999985
    95   1      8.6099999999999923      57.399999999999991       54.52999999999998
    96   1      10.044999999999995      58.834999999999994      55.964999999999989
    97   1      8.6099999999999923      57.399999999999991      57.399999999999991
    98   1      10.044999999999995      58.834999999999994      58.834999999999994
    99   1      8.6099999999999923      57.399999999999991      60.269999999999982
   100   1      10.044999999999995      58.834999999999994      61.704999999999977
   101   1      8.6099999999999923      57.399999999999991      63.139999999999986
   102   1      10.044999999999995      58.834999999999994      64.574999999999989
   103   1      8.6099999999999923      57.399999999999991      66.009999999999991
   104   1      10.044999999999995      58.834999999999994      67.444999999999993
   105   1      8.6099999999999923      57.399999999999991      68.879999999999981
   106   1      10.044999999999995      58.834999999999994      70.314999999999969
   107   1      10.044999999999995      61.704999999999977      50.224999999999994
   108   1      8.6099999999999923      60.269999999999982      51.659999999999982
   109   1      10.044999999999995      61.704999999999977      53.094999999999985
   110   1      8.6099999999999923      60.269999999999982       54.52999999999998
   111   1      10.044999999999995      61.704999999999977      55.964999999999989
   112   1      8.6099999999999923      60.269999999999982      57.399999999999991
   113   1      10.044999999999995      61.704999999999977      58.834999999999994
   114   1      8.6099999999999923      60.269999999999982      60.269999999999982
   115   1      10.044999999999995      61.704999999999977      61.704999999999977
   116   1      8.6099999999999923      60.269999999999982      63.139999999999986
   117   1      10.044999999999995      61.704999999999977      64.574999999999989
   118   1      8.6099999999999923      60.269999999999982      66.009999999999991
   119   1      10.044999999999995      61.704999999999977      67.444999999999993
   120   1      8.6099999999999923      60.269999999999982      68.879999999999981
   121   1      10.044999999999995      61.704999999999977      70.314999999999969
   122   1      8.6099999999999923      63.139999999999986      51.659999999999982
   123   1      10.044999999999995      64.574999999999989      53.094999999999985
   124   1      8.6099999999999923      63.139999999999986       54.52999999999998
   125   1      10.044999999999995      64.574999999999989      55.964999999999989
   126   1      8.6099999999999923      63.139999999999986      57.399999999999991
   127   1      10.044999999999995      64.574999999999989      58.834999999999994
   128   1      8.6099999999999923      63.139999999999986      60.269999999999982
   129   1      10.044999999999995      64.574999999999989      61.704999999999977
   130   1      8.6099999999999923      63.139999999999986      63.139999999999986
   131   1      10.044999999999995      64.574999999999989      64.574999999999989
   132   1      8.6099999999999923      63.139999999999986      66.009999999999991
   133   1      10.044999999999995      64.574999999999989      67.444999999999993
   134   1      8.6099999999999923      63.139999999999986      68.879999999999981
   135   1      8.6099999999999923      66.009999999999991       54.52999999999998
   136   1      10.044999999999995      67.444999999999993      55.964999999999989
   137   1      8.6099999999999923      66.009999999999991      57.399999999999991
   138   1      10.044999999999995      67.444999999999993      58.834999999999994
   139   1      8.6099999999999923      66.009999999999991      60.269999999999982
   140   1      10.044999999999995      67.444999999999993      61.704999999999977
   141   1      8.6099999999999923      66.009999999999991      63.139999999999986
   142   1      10.044999999999995      67.444999999999993      64.574999999999989
   143   1      8.6099999999999923      66.009999999999991      66.009999999999991
   144   1      8.6099999999999923      68.879999999999981      57.399999999999991
   145   1      10.044999999999995      70.314999999999969      58.834999999999994
   146   1      8.6099999999999923      68.879999999999981      60.269999999999982
   147   1      10.044999999999995      70.314999999999969      61.704999999999977
   148   1      8.6099999999999923      68.879999999999981      63.139999999999986
   149   1      12.914999999999992       47.35499999999999      58.834999999999994
   150   1      12.914999999999992       47.35499999999999      61.704999999999977
   151   1      12.914999999999992      50.224999999999994      55.964999999999989
   152   1      11.479999999999997      48.789999999999992      57.399999999999991
   153   1      12.914999999999992      50.224999999999994      58.834999999999994
   154   1      11.479999999999997      48.789999999999992      60.269999999999982
   155   1      12.914999999999992      50.224999999999994      61.704999999999977
   156   1      11.479999999999997      48.789999999999992      63.139999999999986
   157   1      12.914999999999992      50.224999999999994      64.574999999999989
   158   1      12.914999999999992      53.094999999999985      53.094999999999985
   159   1      11.479999999999997      51.659999999999982       54.52999999999998
   160   1      12.914999999999992      53.094999999999985      55.964999999999989
   161   1      11.479999999999997      51.659999999999982      57.399999999999991
   162   1      12.914999999999992      53.094999999999985      58.834999999999994
   163   1      11.479999999999997      51.659999999999982      60.269999999999982
   164   1      12.914999999999992      53.094999999999985      61.704999999999977
   165   1      11.479999999999997      51.659999999999982      63.139999999999986
   166   1      12.914999999999992      53.094999999999985      64.574999999999989
   167   1      11.479999999999997      51.659999999999982      66.009999999999991
   168   1      12.914999999999992      53.094999999999985      67.444999999999993
   169   1      12.914999999999992      55.964999999999989      50.224999999999994
   170   1      11.479999999999997       54.52999999999998      51.659999999999982
   171   1      12.914999999999992      55.964999999999989      53.094999999999985
   172   1      11.479999999999997       54.52999999999998       54.52999999999998
   173   1      12.914999999999992      55.964999999999989      55.964999999999989
   174   1      11.479999999999997       54.52999999999998      57.399999999999991
   175   1      12.914999999999992      55.964999999999989      58.834999999999994
   176   1      11.479999999999997       54.52999999999998      60.269999999999982
   177   1      12.914999999999992      55.964999999999989      61.704999999999977
   178   1      11.479999999999997       54.52999999999998      63.139999999999986
   179   1      12.914999999999992      55.964999999999989      64.574999999999989
   180   1      11.479999999999997       54.52999999999998      66.009999999999991
   181   1      12.914999999999992      55.964999999999989      67.444999999999993
   182   1      11.479999999999997       54.52999999999998      68.879999999999981
   183   1      12.914999999999992      55.964999999999989      70.314999999999969
   184   1      12.914999999999992      58.834999999999994       47.35499999999999
   185   1      11.479999999999997      57.399999999999991      48.789999999999992
   186   1      12.914999999999992      58.834999999999994      50.224999999999994
   187   1      11.479999999999997      57.399999999999991      51.659999999999982
   188   1      12.914999999999992      58.834999999999994      53.094999999999985
   189   1      11.479999999999997      57.399999999999991       54.52999999999998
   190   1      12.914999999999992      58.834999999999994      55.964999999999989
   191   1      11.479999999999997      57.399999999999991      57.399999999999991
   192   1      12.914999999999992      58.834999999999994      58.834999999999994
   193   1      11.479999999999997      57.399999999999991      60.269999999999982
   194   1      12.914999999999992      58.834999999999994      61.704999999999977
   195   1      11.479999999999997      57.399999999999991      63.139999999999986
   196   1      12.914999999999992      58.834999999999994      64.574999999999989
   197   1      11.479999999999997      57.399999999999991      66.009999999999991
   198   1      12.914999999999992      58.834999999999994      67.444999999999993
   199   1      11.479999999999997      57.399999999999991      68.879999999999981
   200   1      12.914999999999992      58.834999999999994      70.314999999999969
   201   1      11.479999999999997      57.399999999999991      71.749999999999986
   202   1      12.914999999999992      58.834999999999994      73.184999999999988
   203   1      12.914999999999992      61.704999999999977       47.35499999999999
   204   1      11.479999999999997      60.269999999999982      48.789999999999992
   205   1      12.914999999999992      61.704999999999977      50.224999999999994
   206   1      11.479999999999997      60.269999999999982      51.659999999999982
   207   1      12.914999999999992      61.704999999999977      53.094999999999985
   208   1      11.479999999999997      60.269999999999982       54.52999999999998
   209   1      12.914999999999992      61.704999999999977      55.964999999999989
   210   1      11.479999999999997      60.269999999999982      57.399999999999991
   211   1      12.914999999999992      61.704999999999977      58.834999999999994
   212   1      11.479999999999997      60.269999999999982      60.269999999999982
   213   1      12.914999999999992      61.704999999999977      61.704999999999977
   214   1      11.479999999999997      60.269999999999982      63.139999999999986
   215   1      12.914999999999992      61.704999999999977      64.574999999999989
   216   1      11.479999999999997      60.269999999999982      66.009999999999991
   217   1      12.914999999999992      61.704999999999977      67.444999999999993
   218   1      11.479999999999997      60.269999999999982      68.879999999999981
   219   1      12.914999999999992      61.704999999999977      70.314999999999969
   220   1      11.479999999999997      60.269999999999982      71.749999999999986
   221   1      12.914999999999992      61.704999999999977      73.184999999999988
   222   1      11.479999999999997      63.139999999999986      48.789999999999992
   223   1      12.914999999999992      64.574999999999989      50.224999999999994
   224   1      11.479999999999997      63.139999999999986      51.659999999999982
   225   1      12.914999999999992      64.574999999999989      53.094999999999985
   226   1      11.479999999999997      63.139999999999986       54.52999999999998
   227   1      12.914999999999992      64.574999999999989      55.964999999999989
   228   1      11.479999999999997      63.139999999999986      57.399999999999991
   229   1      12.914999999999992      64.574999999999989      58.834999999999994
   230   1      11.479999999999997      63.139999999999986      60.269999999999982
   231   1      12.914999999999992      64.574999999999989      61.704999999999977
   232   1      11.479999999999997      63.139999999999986      63.139999999999986
   233   1      12.914999999999992      64.574999999999989      64.574999999999989
   234   1      11.479999999999997      63.139999999999986      66.009999999999991
   235   1      12.914999999999992      64.574999999999989      67.444999999999993
   236   1      11.479999999999997      63.139999999999986      68.879999999999981
   237   1      12.914999999999992      64.574999999999989      70.314999999999969
   238   1      11.479999999999997      63.139999999999986      71.749999999999986
   239   1      11.479999999999997      66.009999999999991      51.659999999999982
   240   1      12.914999999999992      67.444999999999993      53.094999999999985
   241   1      11.479999999999997      66.009999999999991       54.52999999999998
   242   1      12.914999999999992      67.444999999999993      55.964999999999989
   243   1      11.479999999999997      66.009999999999991      57.399999999999991
   244   1      12.914999999999992      67.444999999999993      58.834999999999994
   245   1      11.479999999999997      66.009999999999991      60.269999999999982
   246   1      12.914999999999992      67.444999999999993      61.704999999999977
   247   1      11.479999999999997      66.009999999999991      63.139999999999986
   248   1      12.914999999999992      67.444999999999993      64.574999999999989
   249   1      11.479999999999997      66.009999999999991      66.009999999999991
   250   1      12.914999999999992      67.444999999999993      67.444999999999993
   251   1      11.479999999999997      66.009999999999991      68.879999999999981
   252   1      11.479999999999997      68.879999999999981       54.52999999999998
   253   1      12.914999999999992      70.314999999999969      55.964999999999989
   254   1      11.479999999999997      68.879999999999981      57.399999999999991
   255   1      12.914999999999992      70.314999999999969      58.834999999999994
   256   1      11.479999999999997      68.879999999999981      60.269999999999982
   257   1      12.914999999999992      70.314999999999969      61.704999999999977
   258   1      11.479999999999997      68.879999999999981      63.139999999999986
   259   1      12.914999999999992      70.314999999999969      64.574999999999989
   260   1      11.479999999999997      68.879999999999981      66.009999999999991
   261   1      11.479999999999997      71.749999999999986      57.399999999999991
   262   1      12.914999999999992      73.184999999999988      58.834999999999994
   263   1      11.479999999999997      71.749999999999986      60.269999999999982
   264   1      12.914999999999992      73.184999999999988      61.704999999999977
   265   1      11.479999999999997      71.749999999999986      63.139999999999986
   266   1      15.784999999999989      44.484999999999992      58.834999999999994
   267   1      15.784999999999989      44.484999999999992      61.704999999999977
   268   1      15.784999999999989       47.35499999999999      55.964999999999989
   269   1      14.349999999999993      45.919999999999987      57.399999999999991
   270   1      15.784999999999989       47.35499999999999      58.834999999999994
   271   1      14.349999999999993      45.919999999999987      60.269999999999982
   272   1      15.784999999999989       47.35499999999999      61.704999999999977
   273   1      14.349999999999993      45.919999999999987      63.139999999999986
   274   1      15.784999999999989       47.35499999999999      64.574999999999989
   275   1      15.784999999999989      50.224999999999994      50.224999999999994
   276   1      15.784999999999989      50.224999999999994      53.094999999999985
   277   1      14.349999999999993      48.789999999999992       54.52999999999998
   278   1      15.784999999999989      50.224999999999994      55.964999999999989
   279   1      14.349999999999993      48.789999999999992      57.399999999999991
   280   1      15.784999999999989      50.224999999999994      58.834999999999994
   281   1      14.349999999999993      48.789999999999992      60.269999999999982
   282   1      15.784999999999989      50.224999999999994      61.704999999999977
   283   1      14.349999999999993      48.789999999999992      63.139999999999986
   284   1      15.784999999999989      50.224999999999994      64.574999999999989
   285   1      14.349999999999993      48.789999999999992      66.009999999999991
   286   1      15.784999999999989      50.224999999999994      67.444999999999993
   287   1      15.784999999999989      50.224999999999994      70.314999999999969
   288   1      15.784999999999989      53.094999999999985      50.224999999999994
   289   1      14.349999999999993      51.659999999999982      51.659999999999982
   290   1      15.784999999999989      53.094999999999985      53.094999999999985
   291   1      14.349999999999993      51.659999999999982       54.52999999999998
   292   1      15.784999999999989      53.094999999999985      55.964999999999989
   293   1      14.349999999999993      51.659999999999982      57.399999999999991
   294   1      15.784999999999989      53.094999999999985      58.834999999999994
   295   1      14.349999999999993      51.659999999999982      60.269999999999982
   296   1      15.784999999999989      53.094999999999985      61.704999999999977
   297   1      14.349999999999993      51.659999999999982      63.139999999999986
   298   1      15.784999999999989      53.094999999999985      64.574999999999989
   299   1      14.349999999999993      51.659999999999982      66.009999999999991
   300   1      15.784999999999989      53.094999999999985      67.444999999999993
   301   1      14.349999999999993      51.659999999999982      68.879999999999981
   302   1      15.784999999999989      53.094999999999985      70.314999999999969
   303   1      15.784999999999989      55.964999999999989       47.35499999999999
   304   1      14.349999999999993       54.52999999999998      48.789999999999992
   305   1      15.784999999999989      55.964999999999989      50.224999999999994
   306   1      14.349999999999993       54.52999999999998      51.659999999999982
   307   1      15.784999999999989      55.964999999999989      53.094999999999985
   308   1      14.349999999999993       54.52999999999998       54.52999999999998
   309   1      15.784999999999989      55.964999999999989      55.964999999999989
   310   1      14.349999999999993       54.52999999999998      57.399999999999991
   311   1      15.784999999999989      55.964999999999989      58.834999999999994
   312   1      14.349999999999993       54.52999999999998      60.269999999999982
   313   1      15.784999999999989      55.964999999999989      61.704999999999977
   314   1      14.349999999999993       54.52999999999998      63.139999999999986
   315   1      15.784999999999989      55.964999999999989      64.574999999999989
   316   1      14.349999999999993       54.52999999999998      66.009999999999991
   317   1      15.784999999999989      55.964999999999989      67.444999999999993
   318   1      14.349999999999993       54.52999999999998      68.879999999999981
   319   1      15.784999999999989      55.964999999999989      70.314999999999969
   320   1      14.349999999999993       54.52999999999998      71.749999999999986
   321   1      15.784999999999989      55.964999999999989      73.184999999999988
   322   1      15.784999999999989      58.834999999999994      44.484999999999992
   323   1      14.349999999999993      57.399999999999991      45.919999999999987
   324   1      15.784999999999989      58.834999999999994       47.35499999999999
   325   1      14.349999999999993      57.399999999999991      48.789999999999992
   326   1      15.784999999999989      58.834999999999994      50.224999999999994
   327   1      14.349999999999993      57.399999999999991      51.659999999999982
   328   1      15.784999999999989      58.834999999999994      53.094999999999985
   329   1      14.349999999999993      57.399999999999991       54.52999999999998
   330   1      15.784999999999989      58.834999999999994      55.964999999999989
   331   1      14.349999999999993      57.399999999999991      57.399999999999991
   332   1      15.784999999999989      58.834999999999994      58.834999999999994
   333   1      14.349999999999993      57.399999999999991      60.269999999999982
   334   1      15.784999999999989      58.834999999999994      61.704999999999977
   335   1      14.349999999999993      57.399999999999991      63.139999999999986
   336   1      15.784999999999989      58.834999999999994      64.574999999999989
   337   1      14.349999999999993      57.399999999999991      66.009999999999991
   338   1      15.784999999999989      58.834999999999994      67.444999999999993
   339   1      14.349999999999993      57.399999999999991      68.879999999999981
   340   1      15.784999999999989      58.834999999999994      70.314999999999969
   341   1      14.349999999999993      57.399999999999991      71.749999999999986
   342   1      15.784999999999989      58.834999999999994      73.184999999999988
   343   1      14.349999999999993      57.399999999999991       74.61999999999999
   344   1      15.784999999999989      58.834999999999994      76.054999999999993
   345   1      15.784999999999989      61.704999999999977      44.484999999999992
   346   1      14.349999999999993      60.269999999999982      45.919999999999987
   347   1      15.784999999999989      61.704999999999977       47.35499999999999
   348   1      14.349999999999993      60.269999999999982      48.789999999999992
   349   1      15.784999999999989      61.704999999999977      50.224999999999994
   350   1      14.349999999999993      60.269999999999982      51.659999999999982
   351   1      15.784999999999989      61.704999999999977      53.094999999999985
   352   1      14.349999999999993      60.269999999999982       54.52999999999998
   353   1      15.784999999999989      61.704999999999977      55.964999999999989
   354   1      14.349999999999993      60.269999999999982      57.399999999999991
   355   1      15.784999999999989      61.704999999999977      58.834999999999994
   356   1      14.349999999999993      60.269999999999982      60.269999999999982
   357   1      15.784999999999989      61.704999999999977      61.704999999999977
   358   1      14.349999999999993      60.269999999999982      63.139999999999986