model_files/PtNi/PtNi_30000/PtNi_532/PtNi_532_fcc_30213_temp.data (written by ASE) 

30213 	 atoms 
2  atom types
0.0                     109  xlo xhi
0.0                     109  ylo yhi
0.0                     109  zlo zhi


Atoms 

     1   1      1.9149999999999991                  47.875      53.620000000000005
     2   1      1.9149999999999991      49.790000000000006      51.705000000000005
     3   1      1.9149999999999991      51.705000000000005      49.790000000000006
     4   1      1.9149999999999991      49.790000000000006      55.535000000000011
     5   1      1.9149999999999991      51.705000000000005      53.620000000000005
     6   1      1.9149999999999991      51.705000000000005       57.45000000000001
     7   1      1.9149999999999991      53.620000000000005                  47.875
     8   1      1.9149999999999991      53.620000000000005      51.705000000000005
     9   1      1.9149999999999991      55.535000000000011      49.790000000000006
    10   1                       0      53.620000000000005      53.620000000000005
    11   1      1.9149999999999991      53.620000000000005      55.535000000000011
    12   1      1.9149999999999991      55.535000000000011      53.620000000000005
    13   1      1.9149999999999991      53.620000000000005      59.365000000000009
    14   1      1.9149999999999991      55.535000000000011       57.45000000000001
    15   1      1.9149999999999991       57.45000000000001      51.705000000000005
    16   1      1.9149999999999991       57.45000000000001      55.535000000000011
    17   1      1.9149999999999991      59.365000000000009      53.620000000000005
    18   1      5.7450000000000045      44.045000000000009      49.790000000000006
    19   1      5.7450000000000045      44.045000000000009      53.620000000000005
    20   1      5.7450000000000045      44.045000000000009       57.45000000000001
    21   1      5.7450000000000045      45.960000000000008                  47.875
    22   1      5.7450000000000045                  47.875      45.960000000000008
    23   1      3.8299999999999983                  47.875      51.705000000000005
    24   1      5.7450000000000045      45.960000000000008      51.705000000000005
    25   1      5.7450000000000045                  47.875      49.790000000000006
    26   1      3.8299999999999983      45.960000000000008      53.620000000000005
    27   1      3.8299999999999983                  47.875      55.535000000000011
    28   1      5.7450000000000045      45.960000000000008      55.535000000000011
    29   1      5.7450000000000045                  47.875      53.620000000000005
    30   1      5.7450000000000045      45.960000000000008      59.365000000000009
    31   1      5.7450000000000045                  47.875       57.45000000000001
    32   1      5.7450000000000045                  47.875      61.280000000000008
    33   1      5.7450000000000045      49.790000000000006      44.045000000000009
    34   1      3.8299999999999983      51.705000000000005                  47.875
    35   1      5.7450000000000045      49.790000000000006                  47.875
    36   1      5.7450000000000045      51.705000000000005      45.960000000000008
    37   1      3.8299999999999983      49.790000000000006      49.790000000000006
    38   1      3.8299999999999983      51.705000000000005      51.705000000000005
    39   1      5.7450000000000045      49.790000000000006      51.705000000000005
    40   1      5.7450000000000045      51.705000000000005      49.790000000000006
    41   1      3.8299999999999983      49.790000000000006      53.620000000000005
    42   1      3.8299999999999983      51.705000000000005      55.535000000000011
    43   1      5.7450000000000045      49.790000000000006      55.535000000000011
    44   1      5.7450000000000045      51.705000000000005      53.620000000000005
    45   1      3.8299999999999983      49.790000000000006       57.45000000000001
    46   1      3.8299999999999983      51.705000000000005      59.365000000000009
    47   1      5.7450000000000045      49.790000000000006      59.365000000000009
    48   1      5.7450000000000045      51.705000000000005       57.45000000000001
    49   1      5.7450000000000045      49.790000000000006      63.195000000000007
    50   1      5.7450000000000045      51.705000000000005      61.280000000000008
    51   1      5.7450000000000045      53.620000000000005      44.045000000000009
    52   1      3.8299999999999983      53.620000000000005      45.960000000000008
    53   1      3.8299999999999983      55.535000000000011                  47.875
    54   1      5.7450000000000045      53.620000000000005                  47.875
    55   1      5.7450000000000045      55.535000000000011      45.960000000000008
    56   1      3.8299999999999983      53.620000000000005      49.790000000000006
    57   1      3.8299999999999983      55.535000000000011      51.705000000000005
    58   1      5.7450000000000045      53.620000000000005      51.705000000000005
    59   1      5.7450000000000045      55.535000000000011      49.790000000000006
    60   1      3.8299999999999983      53.620000000000005      53.620000000000005
    61   1      3.8299999999999983      55.535000000000011      55.535000000000011
    62   1      5.7450000000000045      53.620000000000005      55.535000000000011
    63   1      5.7450000000000045      55.535000000000011      53.620000000000005
    64   1      3.8299999999999983      53.620000000000005       57.45000000000001
    65   1      3.8299999999999983      55.535000000000011      59.365000000000009
    66   1      5.7450000000000045      53.620000000000005      59.365000000000009
    67   1      5.7450000000000045      55.535000000000011       57.45000000000001
    68   1      3.8299999999999983      53.620000000000005      61.280000000000008
    69   1      5.7450000000000045      53.620000000000005      63.195000000000007
    70   1      5.7450000000000045      55.535000000000011      61.280000000000008
    71   1      5.7450000000000045       57.45000000000001      44.045000000000009
    72   1      5.7450000000000045       57.45000000000001                  47.875
    73   1      5.7450000000000045      59.365000000000009      45.960000000000008
    74   1      3.8299999999999983       57.45000000000001      49.790000000000006
    75   1      3.8299999999999983      59.365000000000009      51.705000000000005
    76   1      5.7450000000000045       57.45000000000001      51.705000000000005
    77   1      5.7450000000000045      59.365000000000009      49.790000000000006
    78   1      3.8299999999999983       57.45000000000001      53.620000000000005
    79   1      3.8299999999999983      59.365000000000009      55.535000000000011
    80   1      5.7450000000000045       57.45000000000001      55.535000000000011
    81   1      5.7450000000000045      59.365000000000009      53.620000000000005
    82   1      3.8299999999999983       57.45000000000001       57.45000000000001
    83   1      5.7450000000000045       57.45000000000001      59.365000000000009
    84   1      5.7450000000000045      59.365000000000009       57.45000000000001
    85   1      5.7450000000000045       57.45000000000001      63.195000000000007
    86   1      5.7450000000000045      59.365000000000009      61.280000000000008
    87   1      5.7450000000000045      61.280000000000008                  47.875
    88   1      5.7450000000000045      61.280000000000008      51.705000000000005
    89   1      5.7450000000000045      63.195000000000007      49.790000000000006
    90   1      3.8299999999999983      61.280000000000008      53.620000000000005
    91   1      5.7450000000000045      61.280000000000008      55.535000000000011
    92   1      5.7450000000000045      63.195000000000007      53.620000000000005
    93   1      5.7450000000000045      61.280000000000008      59.365000000000009
    94   1      5.7450000000000045      63.195000000000007       57.45000000000001
    95   1      9.5750000000000028      36.384999999999998      53.620000000000005
    96   1      9.5750000000000028      40.215000000000003      45.960000000000008
    97   1      7.6600000000000037      40.215000000000003      51.705000000000005
    98   1      9.5750000000000028      38.300000000000004      51.705000000000005
    99   1      9.5750000000000028      40.215000000000003      49.790000000000006
   100   1      7.6600000000000037      38.300000000000004      53.620000000000005
   101   1      7.6600000000000037      40.215000000000003      55.535000000000011
   102   1      9.5750000000000028      38.300000000000004      55.535000000000011
   103   1      9.5750000000000028      40.215000000000003      53.620000000000005
   104   1      9.5750000000000028      40.215000000000003       57.45000000000001
   105   1      9.5750000000000028      40.215000000000003      61.280000000000008
   106   1      9.5750000000000028      42.130000000000003      44.045000000000009
   107   1      9.5750000000000028      44.045000000000009      42.130000000000003
   108   1      7.6600000000000037      44.045000000000009                  47.875
   109   1      9.5750000000000028      42.130000000000003                  47.875
   110   1      9.5750000000000028      44.045000000000009      45.960000000000008
   111   1      7.6600000000000037      42.130000000000003      49.790000000000006
   112   1      7.6600000000000037      44.045000000000009      51.705000000000005
   113   1      9.5750000000000028      42.130000000000003      51.705000000000005
   114   1      9.5750000000000028      44.045000000000009      49.790000000000006
   115   1      7.6600000000000037      42.130000000000003      53.620000000000005
   116   1      7.6600000000000037      44.045000000000009      55.535000000000011
   117   1      9.5750000000000028      42.130000000000003      55.535000000000011
   118   1      9.5750000000000028      44.045000000000009      53.620000000000005
   119   1      7.6600000000000037      42.130000000000003       57.45000000000001
   120   1      7.6600000000000037      44.045000000000009      59.365000000000009
   121   1      9.5750000000000028      42.130000000000003      59.365000000000009
   122   1      9.5750000000000028      44.045000000000009       57.45000000000001
   123   1      9.5750000000000028      42.130000000000003      63.195000000000007
   124   1      9.5750000000000028      44.045000000000009      61.280000000000008
   125   1      9.5750000000000028      44.045000000000009      65.110000000000014
   126   1      9.5750000000000028      45.960000000000008      40.215000000000003
   127   1      7.6600000000000037                  47.875      44.045000000000009
   128   1      9.5750000000000028      45.960000000000008      44.045000000000009
   129   1      9.5750000000000028                  47.875      42.130000000000003
   130   1      7.6600000000000037      45.960000000000008      45.960000000000008
   131   1      7.6600000000000037                  47.875                  47.875
   132   1      9.5750000000000028      45.960000000000008                  47.875
   133   1      9.5750000000000028                  47.875      45.960000000000008
   134   1      7.6600000000000037      45.960000000000008      49.790000000000006
   135   1      7.6600000000000037                  47.875      51.705000000000005
   136   1      9.5750000000000028      45.960000000000008      51.705000000000005
   137   1      9.5750000000000028                  47.875      49.790000000000006
   138   1      7.6600000000000037      45.960000000000008      53.620000000000005
   139   1      7.6600000000000037                  47.875      55.535000000000011
   140   1      9.5750000000000028      45.960000000000008      55.535000000000011
   141   1      9.5750000000000028                  47.875      53.620000000000005
   142   1      7.6600000000000037      45.960000000000008       57.45000000000001
   143   1      7.6600000000000037                  47.875      59.365000000000009
   144   1      9.5750000000000028      45.960000000000008      59.365000000000009
   145   1      9.5750000000000028                  47.875       57.45000000000001
   146   1      7.6600000000000037      45.960000000000008      61.280000000000008
   147   1      7.6600000000000037                  47.875      63.195000000000007
   148   1      9.5750000000000028      45.960000000000008      63.195000000000007
   149   1      9.5750000000000028                  47.875      61.280000000000008
   150   1      9.5750000000000028      45.960000000000008      67.025000000000006
   151   1      9.5750000000000028                  47.875      65.110000000000014
   152   1      7.6600000000000037      51.705000000000005      40.215000000000003
   153   1      9.5750000000000028      49.790000000000006      40.215000000000003
   154   1      9.5750000000000028      51.705000000000005      38.300000000000004
   155   1      7.6600000000000037      49.790000000000006      42.130000000000003
   156   1      7.6600000000000037      51.705000000000005      44.045000000000009
   157   1      9.5750000000000028      49.790000000000006      44.045000000000009
   158   1      9.5750000000000028      51.705000000000005      42.130000000000003
   159   1      7.6600000000000037      49.790000000000006      45.960000000000008
   160   1      7.6600000000000037      51.705000000000005                  47.875
   161   1      9.5750000000000028      49.790000000000006                  47.875
   162   1      9.5750000000000028      51.705000000000005      45.960000000000008
   163   1      7.6600000000000037      49.790000000000006      49.790000000000006
   164   1      7.6600000000000037      51.705000000000005      51.705000000000005
   165   1      9.5750000000000028      49.790000000000006      51.705000000000005
   166   1      9.5750000000000028      51.705000000000005      49.790000000000006
   167   1      7.6600000000000037      49.790000000000006      53.620000000000005
   168   1      7.6600000000000037      51.705000000000005      55.535000000000011
   169   1      9.5750000000000028      49.790000000000006      55.535000000000011
   170   1      9.5750000000000028      51.705000000000005      53.620000000000005
   171   1      7.6600000000000037      49.790000000000006       57.45000000000001
   172   1      7.6600000000000037      51.705000000000005      59.365000000000009
   173   1      9.5750000000000028      49.790000000000006      59.365000000000009
   174   1      9.5750000000000028      51.705000000000005       57.45000000000001
   175   1      7.6600000000000037      49.790000000000006      61.280000000000008
   176   1      7.6600000000000037      51.705000000000005      63.195000000000007
   177   1      9.5750000000000028      49.790000000000006      63.195000000000007
   178   1      9.5750000000000028      51.705000000000005      61.280000000000008
   179   1      7.6600000000000037      49.790000000000006      65.110000000000014
   180   1      7.6600000000000037      51.705000000000005      67.025000000000006
   181   1      9.5750000000000028      49.790000000000006      67.025000000000006
   182   1      9.5750000000000028      51.705000000000005      65.110000000000014
   183   1      9.5750000000000028      51.705000000000005      68.939999999999998
   184   1      9.5750000000000028      53.620000000000005      36.384999999999998
   185   1      7.6600000000000037      53.620000000000005      38.300000000000004
   186   1      7.6600000000000037      55.535000000000011      40.215000000000003
   187   1      9.5750000000000028      53.620000000000005      40.215000000000003
   188   1      9.5750000000000028      55.535000000000011      38.300000000000004
   189   1      7.6600000000000037      53.620000000000005      42.130000000000003
   190   1      7.6600000000000037      55.535000000000011      44.045000000000009
   191   1      9.5750000000000028      53.620000000000005      44.045000000000009
   192   1      9.5750000000000028      55.535000000000011      42.130000000000003
   193   1      7.6600000000000037      53.620000000000005      45.960000000000008
   194   1      7.6600000000000037      55.535000000000011                  47.875
   195   1      9.5750000000000028      53.620000000000005                  47.875
   196   1      9.5750000000000028      55.535000000000011      45.960000000000008
   197   1      7.6600000000000037      53.620000000000005      49.790000000000006
   198   1      7.6600000000000037      55.535000000000011      51.705000000000005
   199   1      9.5750000000000028      53.620000000000005      51.705000000000005
   200   1      9.5750000000000028      55.535000000000011      49.790000000000006
   201   1      7.6600000000000037      53.620000000000005      53.620000000000005
   202   1      7.6600000000000037      55.535000000000011      55.535000000000011
   203   1      9.5750000000000028      53.620000000000005      55.535000000000011
   204   1      9.5750000000000028      55.535000000000011      53.620000000000005
   205   1      7.6600000000000037      53.620000000000005       57.45000000000001
   206   1      7.6600000000000037      55.535000000000011      59.365000000000009
   207   1      9.5750000000000028      53.620000000000005      59.365000000000009
   208   1      9.5750000000000028      55.535000000000011       57.45000000000001
   209   1      7.6600000000000037      53.620000000000005      61.280000000000008
   210   1      7.6600000000000037      55.535000000000011      63.195000000000007
   211   1      9.5750000000000028      53.620000000000005      63.195000000000007
   212   1      9.5750000000000028      55.535000000000011      61.280000000000008
   213   1      7.6600000000000037      53.620000000000005      65.110000000000014
   214   1      7.6600000000000037      55.535000000000011      67.025000000000006
   215   1      9.5750000000000028      53.620000000000005      67.025000000000006
   216   1      9.5750000000000028      55.535000000000011      65.110000000000014
   217   1      7.6600000000000037      53.620000000000005      68.939999999999998
   218   1      9.5750000000000028      53.620000000000005      70.855000000000004
   219   1      9.5750000000000028      55.535000000000011      68.939999999999998
   220   1      9.5750000000000028       57.45000000000001      40.215000000000003
   221   1      7.6600000000000037       57.45000000000001      42.130000000000003
   222   1      7.6600000000000037      59.365000000000009      44.045000000000009
   223   1      9.5750000000000028       57.45000000000001      44.045000000000009
   224   1      9.5750000000000028      59.365000000000009      42.130000000000003
   225   1      7.6600000000000037       57.45000000000001      45.960000000000008
   226   1      7.6600000000000037      59.365000000000009                  47.875
   227   1      9.5750000000000028       57.45000000000001                  47.875
   228   1      9.5750000000000028      59.365000000000009      45.960000000000008
   229   1      7.6600000000000037       57.45000000000001      49.790000000000006
   230   1      7.6600000000000037      59.365000000000009      51.705000000000005
   231   1      9.5750000000000028       57.45000000000001      51.705000000000005
   232   1      9.5750000000000028      59.365000000000009      49.790000000000006
   233   1      7.6600000000000037       57.45000000000001      53.620000000000005
   234   1      7.6600000000000037      59.365000000000009      55.535000000000011
   235   1      9.5750000000000028       57.45000000000001      55.535000000000011
   236   1      9.5750000000000028      59.365000000000009      53.620000000000005
   237   1      7.6600000000000037       57.45000000000001       57.45000000000001
   238   1      7.6600000000000037      59.365000000000009      59.365000000000009
   239   1      9.5750000000000028       57.45000000000001      59.365000000000009
   240   1      9.5750000000000028      59.365000000000009       57.45000000000001
   241   1      7.6600000000000037       57.45000000000001      61.280000000000008
   242   1      7.6600000000000037      59.365000000000009      63.195000000000007
   243   1      9.5750000000000028       57.45000000000001      63.195000000000007
   244   1      9.5750000000000028      59.365000000000009      61.280000000000008
   245   1      7.6600000000000037       57.45000000000001      65.110000000000014
   246   1      9.5750000000000028       57.45000000000001      67.025000000000006
   247   1      9.5750000000000028      59.365000000000009      65.110000000000014
   248   1      9.5750000000000028      61.280000000000008      40.215000000000003
   249   1      9.5750000000000028      61.280000000000008      44.045000000000009
   250   1      9.5750000000000028      63.195000000000007      42.130000000000003
   251   1      7.6600000000000037      61.280000000000008      45.960000000000008
   252   1      7.6600000000000037      63.195000000000007                  47.875
   253   1      9.5750000000000028      61.280000000000008                  47.875
   254   1      9.5750000000000028      63.195000000000007      45.960000000000008
   255   1      7.6600000000000037      61.280000000000008      49.790000000000006
   256   1      7.6600000000000037      63.195000000000007      51.705000000000005
   257   1      9.5750000000000028      61.280000000000008      51.705000000000005
   258   1      9.5750000000000028      63.195000000000007      49.790000000000006
   259   1      7.6600000000000037      61.280000000000008      53.620000000000005
   260   1      7.6600000000000037      63.195000000000007      55.535000000000011
   261   1      9.5750000000000028      61.280000000000008      55.535000000000011
   262   1      9.5750000000000028      63.195000000000007      53.620000000000005
   263   1      7.6600000000000037      61.280000000000008       57.45000000000001
   264   1      7.6600000000000037      63.195000000000007      59.365000000000009
   265   1      9.5750000000000028      61.280000000000008      59.365000000000009
   266   1      9.5750000000000028      63.195000000000007       57.45000000000001
   267   1      7.6600000000000037      61.280000000000008      61.280000000000008
   268   1      9.5750000000000028      61.280000000000008      63.195000000000007
   269   1      9.5750000000000028      63.195000000000007      61.280000000000008
   270   1      9.5750000000000028      61.280000000000008      67.025000000000006
   271   1      9.5750000000000028      63.195000000000007      65.110000000000014
   272   1      9.5750000000000028      65.110000000000014      44.045000000000009
   273   1      9.5750000000000028      65.110000000000014                  47.875
   274   1      9.5750000000000028      67.025000000000006      45.960000000000008
   275   1      7.6600000000000037      65.110000000000014      49.790000000000006
   276   1      7.6600000000000037      67.025000000000006      51.705000000000005
   277   1      9.5750000000000028      65.110000000000014      51.705000000000005
   278   1      9.5750000000000028      67.025000000000006      49.790000000000006
   279   1      7.6600000000000037      65.110000000000014      53.620000000000005
   280   1      7.6600000000000037      67.025000000000006      55.535000000000011
   281   1      9.5750000000000028      65.110000000000014      55.535000000000011
   282   1      9.5750000000000028      67.025000000000006      53.620000000000005
   283   1      7.6600000000000037      65.110000000000014       57.45000000000001
   284   1      9.5750000000000028      65.110000000000014      59.365000000000009
   285   1      9.5750000000000028      67.025000000000006       57.45000000000001
   286   1      9.5750000000000028      65.110000000000014      63.195000000000007
   287   1      9.5750000000000028      67.025000000000006      61.280000000000008
   288   1      9.5750000000000028      68.939999999999998      51.705000000000005
   289   1      7.6600000000000037      68.939999999999998      53.620000000000005
   290   1      9.5750000000000028      68.939999999999998      55.535000000000011
   291   1      9.5750000000000028      70.855000000000004      53.620000000000005
   292   1      13.405000000000001      28.725000000000005      53.620000000000005
   293   1      13.405000000000001      30.640000000000004      51.705000000000005
   294   1      13.405000000000001      32.555000000000007      49.790000000000006
   295   1      13.405000000000001      30.640000000000004      55.535000000000011
   296   1      13.405000000000001      32.555000000000007      53.620000000000005
   297   1      13.405000000000001      32.555000000000007       57.45000000000001
   298   1      13.405000000000001      36.384999999999998      42.130000000000003
   299   1      11.490000000000004      36.384999999999998                  47.875
   300   1      13.405000000000001      34.469999999999999                  47.875
   301   1      13.405000000000001      36.384999999999998      45.960000000000008
   302   1      11.490000000000004      34.469999999999999      49.790000000000006
   303   1      11.490000000000004      36.384999999999998      51.705000000000005
   304   1      13.405000000000001      34.469999999999999      51.705000000000005
   305   1      13.405000000000001      36.384999999999998      49.790000000000006
   306   1      11.490000000000004      34.469999999999999      53.620000000000005
   307   1      11.490000000000004      36.384999999999998      55.535000000000011
   308   1      13.405000000000001      34.469999999999999      55.535000000000011
   309   1      13.405000000000001      36.384999999999998      53.620000000000005
   310   1      11.490000000000004      34.469999999999999       57.45000000000001
   311   1      11.490000000000004      36.384999999999998      59.365000000000009
   312   1      13.405000000000001      34.469999999999999      59.365000000000009
   313   1      13.405000000000001      36.384999999999998       57.45000000000001
   314   1      13.405000000000001      36.384999999999998      61.280000000000008
   315   1      13.405000000000001      36.384999999999998      65.110000000000014
   316   1      13.405000000000001      38.300000000000004      40.215000000000003
   317   1      13.405000000000001      40.215000000000003      38.300000000000004
   318   1      11.490000000000004      40.215000000000003      44.045000000000009
   319   1      13.405000000000001      38.300000000000004      44.045000000000009
   320   1      13.405000000000001      40.215000000000003      42.130000000000003
   321   1      11.490000000000004      38.300000000000004      45.960000000000008
   322   1      11.490000000000004      40.215000000000003                  47.875
   323   1      13.405000000000001      38.300000000000004                  47.875
   324   1      13.405000000000001      40.215000000000003      45.960000000000008
   325   1      11.490000000000004      38.300000000000004      49.790000000000006
   326   1      11.490000000000004      40.215000000000003      51.705000000000005
   327   1      13.405000000000001      38.300000000000004      51.705000000000005
   328   1      13.405000000000001      40.215000000000003      49.790000000000006
   329   1      11.490000000000004      38.300000000000004      53.620000000000005
   330   1      11.490000000000004      40.215000000000003      55.535000000000011
   331   1      13.405000000000001      38.300000000000004      55.535000000000011
   332   1      13.405000000000001      40.215000000000003      53.620000000000005
   333   1      11.490000000000004      38.300000000000004       57.45000000000001
   334   1      11.490000000000004      40.215000000000003      59.365000000000009
   335   1      13.405000000000001      38.300000000000004      59.365000000000009
   336   1      13.405000000000001      40.215000000000003       57.45000000000001
   337   1      11.490000000000004      38.300000000000004      61.280000000000008
   338   1      11.490000000000004      40.215000000000003      63.195000000000007
   339   1      13.405000000000001      38.300000000000004      63.195000000000007
   340   1      13.405000000000001      40.215000000000003      61.280000000000008
   341   1      13.405000000000001      38.300000000000004      67.025000000000006
   342   1      13.405000000000001      40.215000000000003      65.110000000000014
   343   1      13.405000000000001      40.215000000000003      68.939999999999998
   344   1      13.405000000000001      42.130000000000003      36.384999999999998
   345   1      11.490000000000004      44.045000000000009      40.215000000000003
   346   1      13.405000000000001      42.130000000000003      40.215000000000003
   347   1      13.405000000000001      44.045000000000009      38.300000000000004
   348   1      11.490000000000004      42.130000000000003      42.130000000000003
   349   1      11.490000000000004      44.045000000000009      44.045000000000009
   350   1      13.405000000000001      42.130000000000003      44.045000000000009
   351   1      13.405000000000001      44.045000000000009      42.130000000000003
   352   1      11.490000000000004      42.130000000000003      45.960000000000008
   353   1      11.490000000000004      44.045000000000009                  47.875
   354   1      13.405000000000001      42.130000000000003                  47.875
   355   1      13.405000000000001      44.045000000000009      45.960000000000008
   356   1      11.490000000000004      42.130000000000003      49.790000000000006
   357   1      11.490000000000004      44.045000000000009      51.705000000000005
   358   1      13.405000000000001      42.130000000000003      51.705000000000005