model_files/Pt/Pt_10000/Pt_211/data.Pt_211_fcc_10299 (written by ASE) 

10299 	 atoms 
1  atom types
0.0                      74  xlo xhi
0.0                      74  ylo yhi
0.0                      74  zlo zhi


Atoms 

     1   1      73.999999999999986      35.279999999999994      37.239999999999995
     2   1      73.999999999999986      37.239999999999995      35.279999999999994
     3   1      73.999999999999986      37.239999999999995      39.199999999999996
     4   1      73.999999999999986      39.199999999999996      37.239999999999995
     5   1       3.919999999999995      27.439999999999991      37.239999999999995
     6   1       3.919999999999995      29.399999999999991      35.279999999999994
     7   1       3.919999999999995      31.359999999999996      33.319999999999993
     8   1       3.919999999999995      29.399999999999991      39.199999999999996
     9   1       3.919999999999995      31.359999999999996      37.239999999999995
    10   1       3.919999999999995      31.359999999999996      41.159999999999989
    11   1       3.919999999999995      33.319999999999993      31.359999999999996
    12   1       3.919999999999995      35.279999999999994      29.399999999999991
    13   1      1.9599999999999937      35.279999999999994      35.279999999999994
    14   1       3.919999999999995      33.319999999999993      35.279999999999994
    15   1       3.919999999999995      35.279999999999994      33.319999999999993
    16   1      1.9599999999999937      33.319999999999993      37.239999999999995
    17   1      1.9599999999999937      35.279999999999994      39.199999999999996
    18   1       3.919999999999995      33.319999999999993      39.199999999999996
    19   1       3.919999999999995      35.279999999999994      37.239999999999995
    20   1       3.919999999999995      33.319999999999993      43.119999999999997
    21   1       3.919999999999995      35.279999999999994      41.159999999999989
    22   1       3.919999999999995      35.279999999999994      45.079999999999991
    23   1       3.919999999999995      37.239999999999995      27.439999999999991
    24   1       3.919999999999995      37.239999999999995      31.359999999999996
    25   1       3.919999999999995      39.199999999999996      29.399999999999991
    26   1      1.9599999999999937      37.239999999999995      33.319999999999993
    27   1      1.9599999999999937      39.199999999999996      35.279999999999994
    28   1       3.919999999999995      37.239999999999995      35.279999999999994
    29   1       3.919999999999995      39.199999999999996      33.319999999999993
    30   1      1.9599999999999937      37.239999999999995      37.239999999999995
    31   1      1.9599999999999937      39.199999999999996      39.199999999999996
    32   1       3.919999999999995      37.239999999999995      39.199999999999996
    33   1       3.919999999999995      39.199999999999996      37.239999999999995
    34   1      1.9599999999999937      37.239999999999995      41.159999999999989
    35   1       3.919999999999995      37.239999999999995      43.119999999999997
    36   1       3.919999999999995      39.199999999999996      41.159999999999989
    37   1       3.919999999999995      37.239999999999995      47.039999999999999
    38   1       3.919999999999995      39.199999999999996      45.079999999999991
    39   1       3.919999999999995      41.159999999999989      31.359999999999996
    40   1       3.919999999999995      41.159999999999989      35.279999999999994
    41   1       3.919999999999995      43.119999999999997      33.319999999999993
    42   1      1.9599999999999937      41.159999999999989      37.239999999999995
    43   1       3.919999999999995      41.159999999999989      39.199999999999996
    44   1       3.919999999999995      43.119999999999997      37.239999999999995
    45   1       3.919999999999995      41.159999999999989      43.119999999999997
    46   1       3.919999999999995      43.119999999999997      41.159999999999989
    47   1       3.919999999999995      45.079999999999991      35.279999999999994
    48   1       3.919999999999995      45.079999999999991      39.199999999999996
    49   1       3.919999999999995      47.039999999999999      37.239999999999995
    50   1      7.8399999999999928      19.599999999999998      37.239999999999995
    51   1      7.8399999999999928      21.559999999999995      35.279999999999994
    52   1      7.8399999999999928      23.519999999999992      33.319999999999993
    53   1      7.8399999999999928      21.559999999999995      39.199999999999996
    54   1      7.8399999999999928      23.519999999999992      37.239999999999995
    55   1      7.8399999999999928      23.519999999999992      41.159999999999989
    56   1      7.8399999999999928       25.47999999999999      31.359999999999996
    57   1      7.8399999999999928      27.439999999999991      29.399999999999991
    58   1      5.8799999999999919      27.439999999999991      35.279999999999994
    59   1      7.8399999999999928       25.47999999999999      35.279999999999994
    60   1      7.8399999999999928      27.439999999999991      33.319999999999993
    61   1      5.8799999999999919       25.47999999999999      37.239999999999995
    62   1      5.8799999999999919      27.439999999999991      39.199999999999996
    63   1      7.8399999999999928       25.47999999999999      39.199999999999996
    64   1      7.8399999999999928      27.439999999999991      37.239999999999995
    65   1      7.8399999999999928       25.47999999999999      43.119999999999997
    66   1      7.8399999999999928      27.439999999999991      41.159999999999989
    67   1      7.8399999999999928      27.439999999999991      45.079999999999991
    68   1      7.8399999999999928      29.399999999999991      27.439999999999991
    69   1      7.8399999999999928      31.359999999999996       25.47999999999999
    70   1      5.8799999999999919      31.359999999999996      31.359999999999996
    71   1      7.8399999999999928      29.399999999999991      31.359999999999996
    72   1      7.8399999999999928      31.359999999999996      29.399999999999991
    73   1      5.8799999999999919      29.399999999999991      33.319999999999993
    74   1      5.8799999999999919      31.359999999999996      35.279999999999994
    75   1      7.8399999999999928      29.399999999999991      35.279999999999994
    76   1      7.8399999999999928      31.359999999999996      33.319999999999993
    77   1      5.8799999999999919      29.399999999999991      37.239999999999995
    78   1      5.8799999999999919      31.359999999999996      39.199999999999996
    79   1      7.8399999999999928      29.399999999999991      39.199999999999996
    80   1      7.8399999999999928      31.359999999999996      37.239999999999995
    81   1      5.8799999999999919      29.399999999999991      41.159999999999989
    82   1      5.8799999999999919      31.359999999999996      43.119999999999997
    83   1      7.8399999999999928      29.399999999999991      43.119999999999997
    84   1      7.8399999999999928      31.359999999999996      41.159999999999989
    85   1      7.8399999999999928      29.399999999999991      47.039999999999999
    86   1      7.8399999999999928      31.359999999999996      45.079999999999991
    87   1      7.8399999999999928      31.359999999999996      48.999999999999993
    88   1      7.8399999999999928      33.319999999999993      23.519999999999992
    89   1      7.8399999999999928      35.279999999999994      21.559999999999995
    90   1      5.8799999999999919      35.279999999999994      27.439999999999991
    91   1      7.8399999999999928      33.319999999999993      27.439999999999991
    92   1      7.8399999999999928      35.279999999999994       25.47999999999999
    93   1      5.8799999999999919      33.319999999999993      29.399999999999991
    94   1      5.8799999999999919      35.279999999999994      31.359999999999996
    95   1      7.8399999999999928      33.319999999999993      31.359999999999996
    96   1      7.8399999999999928      35.279999999999994      29.399999999999991
    97   1      5.8799999999999919      33.319999999999993      33.319999999999993
    98   1      5.8799999999999919      35.279999999999994      35.279999999999994
    99   1      7.8399999999999928      33.319999999999993      35.279999999999994
   100   1      7.8399999999999928      35.279999999999994      33.319999999999993
   101   1      5.8799999999999919      33.319999999999993      37.239999999999995
   102   1      5.8799999999999919      35.279999999999994      39.199999999999996
   103   1      7.8399999999999928      33.319999999999993      39.199999999999996
   104   1      7.8399999999999928      35.279999999999994      37.239999999999995
   105   1      5.8799999999999919      33.319999999999993      41.159999999999989
   106   1      5.8799999999999919      35.279999999999994      43.119999999999997
   107   1      7.8399999999999928      33.319999999999993      43.119999999999997
   108   1      7.8399999999999928      35.279999999999994      41.159999999999989
   109   1      5.8799999999999919      33.319999999999993      45.079999999999991
   110   1      5.8799999999999919      35.279999999999994      47.039999999999999
   111   1      7.8399999999999928      33.319999999999993      47.039999999999999
   112   1      7.8399999999999928      35.279999999999994      45.079999999999991
   113   1      7.8399999999999928      33.319999999999993      50.959999999999994
   114   1      7.8399999999999928      35.279999999999994      48.999999999999993
   115   1      7.8399999999999928      35.279999999999994      52.919999999999995
   116   1      7.8399999999999928      37.239999999999995      19.599999999999998
   117   1      7.8399999999999928      37.239999999999995      23.519999999999992
   118   1      7.8399999999999928      39.199999999999996      21.559999999999995
   119   1      5.8799999999999919      37.239999999999995       25.47999999999999
   120   1      5.8799999999999919      39.199999999999996      27.439999999999991
   121   1      7.8399999999999928      37.239999999999995      27.439999999999991
   122   1      7.8399999999999928      39.199999999999996       25.47999999999999
   123   1      5.8799999999999919      37.239999999999995      29.399999999999991
   124   1      5.8799999999999919      39.199999999999996      31.359999999999996
   125   1      7.8399999999999928      37.239999999999995      31.359999999999996
   126   1      7.8399999999999928      39.199999999999996      29.399999999999991
   127   1      5.8799999999999919      37.239999999999995      33.319999999999993
   128   1      5.8799999999999919      39.199999999999996      35.279999999999994
   129   1      7.8399999999999928      37.239999999999995      35.279999999999994
   130   1      7.8399999999999928      39.199999999999996      33.319999999999993
   131   1      5.8799999999999919      37.239999999999995      37.239999999999995
   132   1      5.8799999999999919      39.199999999999996      39.199999999999996
   133   1      7.8399999999999928      37.239999999999995      39.199999999999996
   134   1      7.8399999999999928      39.199999999999996      37.239999999999995
   135   1      5.8799999999999919      37.239999999999995      41.159999999999989
   136   1      5.8799999999999919      39.199999999999996      43.119999999999997
   137   1      7.8399999999999928      37.239999999999995      43.119999999999997
   138   1      7.8399999999999928      39.199999999999996      41.159999999999989
   139   1      5.8799999999999919      37.239999999999995      45.079999999999991
   140   1      5.8799999999999919      39.199999999999996      47.039999999999999
   141   1      7.8399999999999928      37.239999999999995      47.039999999999999
   142   1      7.8399999999999928      39.199999999999996      45.079999999999991
   143   1      5.8799999999999919      37.239999999999995      48.999999999999993
   144   1      7.8399999999999928      37.239999999999995      50.959999999999994
   145   1      7.8399999999999928      39.199999999999996      48.999999999999993
   146   1      7.8399999999999928      37.239999999999995      54.879999999999988
   147   1      7.8399999999999928      39.199999999999996      52.919999999999995
   148   1      7.8399999999999928      41.159999999999989      23.519999999999992
   149   1      7.8399999999999928      41.159999999999989      27.439999999999991
   150   1      7.8399999999999928      43.119999999999997       25.47999999999999
   151   1      5.8799999999999919      41.159999999999989      29.399999999999991
   152   1      5.8799999999999919      43.119999999999997      31.359999999999996
   153   1      7.8399999999999928      41.159999999999989      31.359999999999996
   154   1      7.8399999999999928      43.119999999999997      29.399999999999991
   155   1      5.8799999999999919      41.159999999999989      33.319999999999993
   156   1      5.8799999999999919      43.119999999999997      35.279999999999994
   157   1      7.8399999999999928      41.159999999999989      35.279999999999994
   158   1      7.8399999999999928      43.119999999999997      33.319999999999993
   159   1      5.8799999999999919      41.159999999999989      37.239999999999995
   160   1      5.8799999999999919      43.119999999999997      39.199999999999996
   161   1      7.8399999999999928      41.159999999999989      39.199999999999996
   162   1      7.8399999999999928      43.119999999999997      37.239999999999995
   163   1      5.8799999999999919      41.159999999999989      41.159999999999989
   164   1      5.8799999999999919      43.119999999999997      43.119999999999997
   165   1      7.8399999999999928      41.159999999999989      43.119999999999997
   166   1      7.8399999999999928      43.119999999999997      41.159999999999989
   167   1      5.8799999999999919      41.159999999999989      45.079999999999991
   168   1      7.8399999999999928      41.159999999999989      47.039999999999999
   169   1      7.8399999999999928      43.119999999999997      45.079999999999991
   170   1      7.8399999999999928      41.159999999999989      50.959999999999994
   171   1      7.8399999999999928      43.119999999999997      48.999999999999993
   172   1      7.8399999999999928      45.079999999999991      27.439999999999991
   173   1      7.8399999999999928      45.079999999999991      31.359999999999996
   174   1      7.8399999999999928      47.039999999999999      29.399999999999991
   175   1      5.8799999999999919      45.079999999999991      33.319999999999993
   176   1      5.8799999999999919      47.039999999999999      35.279999999999994
   177   1      7.8399999999999928      45.079999999999991      35.279999999999994
   178   1      7.8399999999999928      47.039999999999999      33.319999999999993
   179   1      5.8799999999999919      45.079999999999991      37.239999999999995
   180   1      5.8799999999999919      47.039999999999999      39.199999999999996
   181   1      7.8399999999999928      45.079999999999991      39.199999999999996
   182   1      7.8399999999999928      47.039999999999999      37.239999999999995
   183   1      5.8799999999999919      45.079999999999991      41.159999999999989
   184   1      7.8399999999999928      45.079999999999991      43.119999999999997
   185   1      7.8399999999999928      47.039999999999999      41.159999999999989
   186   1      7.8399999999999928      45.079999999999991      47.039999999999999
   187   1      7.8399999999999928      47.039999999999999      45.079999999999991
   188   1      7.8399999999999928      48.999999999999993      31.359999999999996
   189   1      7.8399999999999928      48.999999999999993      35.279999999999994
   190   1      7.8399999999999928      50.959999999999994      33.319999999999993
   191   1      5.8799999999999919      48.999999999999993      37.239999999999995
   192   1      7.8399999999999928      48.999999999999993      39.199999999999996
   193   1      7.8399999999999928      50.959999999999994      37.239999999999995
   194   1      7.8399999999999928      48.999999999999993      43.119999999999997
   195   1      7.8399999999999928      50.959999999999994      41.159999999999989
   196   1      7.8399999999999928      52.919999999999995      35.279999999999994
   197   1      7.8399999999999928      52.919999999999995      39.199999999999996
   198   1      7.8399999999999928      54.879999999999988      37.239999999999995
   199   1      11.759999999999991      11.759999999999991      37.239999999999995
   200   1      11.759999999999991      13.719999999999994      35.279999999999994
   201   1      11.759999999999991      15.679999999999994      33.319999999999993
   202   1      11.759999999999991      13.719999999999994      39.199999999999996
   203   1      11.759999999999991      15.679999999999994      37.239999999999995
   204   1      11.759999999999991      15.679999999999994      41.159999999999989
   205   1      11.759999999999991      17.639999999999993      31.359999999999996
   206   1      11.759999999999991      19.599999999999998      29.399999999999991
   207   1      9.7999999999999901      19.599999999999998      35.279999999999994
   208   1      11.759999999999991      17.639999999999993      35.279999999999994
   209   1      11.759999999999991      19.599999999999998      33.319999999999993
   210   1      9.7999999999999901      17.639999999999993      37.239999999999995
   211   1      9.7999999999999901      19.599999999999998      39.199999999999996
   212   1      11.759999999999991      17.639999999999993      39.199999999999996
   213   1      11.759999999999991      19.599999999999998      37.239999999999995
   214   1      11.759999999999991      17.639999999999993      43.119999999999997
   215   1      11.759999999999991      19.599999999999998      41.159999999999989
   216   1      11.759999999999991      19.599999999999998      45.079999999999991
   217   1      11.759999999999991      21.559999999999995      27.439999999999991
   218   1      11.759999999999991      23.519999999999992       25.47999999999999
   219   1      9.7999999999999901      23.519999999999992      31.359999999999996
   220   1      11.759999999999991      21.559999999999995      31.359999999999996
   221   1      11.759999999999991      23.519999999999992      29.399999999999991
   222   1      9.7999999999999901      21.559999999999995      33.319999999999993
   223   1      9.7999999999999901      23.519999999999992      35.279999999999994
   224   1      11.759999999999991      21.559999999999995      35.279999999999994
   225   1      11.759999999999991      23.519999999999992      33.319999999999993
   226   1      9.7999999999999901      21.559999999999995      37.239999999999995
   227   1      9.7999999999999901      23.519999999999992      39.199999999999996
   228   1      11.759999999999991      21.559999999999995      39.199999999999996
   229   1      11.759999999999991      23.519999999999992      37.239999999999995
   230   1      9.7999999999999901      21.559999999999995      41.159999999999989
   231   1      9.7999999999999901      23.519999999999992      43.119999999999997
   232   1      11.759999999999991      21.559999999999995      43.119999999999997
   233   1      11.759999999999991      23.519999999999992      41.159999999999989
   234   1      11.759999999999991      21.559999999999995      47.039999999999999
   235   1      11.759999999999991      23.519999999999992      45.079999999999991
   236   1      11.759999999999991      23.519999999999992      48.999999999999993
   237   1      11.759999999999991       25.47999999999999      23.519999999999992
   238   1      11.759999999999991      27.439999999999991      21.559999999999995
   239   1      9.7999999999999901      27.439999999999991      27.439999999999991
   240   1      11.759999999999991       25.47999999999999      27.439999999999991
   241   1      11.759999999999991      27.439999999999991       25.47999999999999
   242   1      9.7999999999999901       25.47999999999999      29.399999999999991
   243   1      9.7999999999999901      27.439999999999991      31.359999999999996
   244   1      11.759999999999991       25.47999999999999      31.359999999999996
   245   1      11.759999999999991      27.439999999999991      29.399999999999991
   246   1      9.7999999999999901       25.47999999999999      33.319999999999993
   247   1      9.7999999999999901      27.439999999999991      35.279999999999994
   248   1      11.759999999999991       25.47999999999999      35.279999999999994
   249   1      11.759999999999991      27.439999999999991      33.319999999999993
   250   1      9.7999999999999901       25.47999999999999      37.239999999999995
   251   1      9.7999999999999901      27.439999999999991      39.199999999999996
   252   1      11.759999999999991       25.47999999999999      39.199999999999996
   253   1      11.759999999999991      27.439999999999991      37.239999999999995
   254   1      9.7999999999999901       25.47999999999999      41.159999999999989
   255   1      9.7999999999999901      27.439999999999991      43.119999999999997
   256   1      11.759999999999991       25.47999999999999      43.119999999999997
   257   1      11.759999999999991      27.439999999999991      41.159999999999989
   258   1      9.7999999999999901       25.47999999999999      45.079999999999991
   259   1      9.7999999999999901      27.439999999999991      47.039999999999999
   260   1      11.759999999999991       25.47999999999999      47.039999999999999
   261   1      11.759999999999991      27.439999999999991      45.079999999999991
   262   1      11.759999999999991       25.47999999999999      50.959999999999994
   263   1      11.759999999999991      27.439999999999991      48.999999999999993
   264   1      11.759999999999991      27.439999999999991      52.919999999999995
   265   1      11.759999999999991      29.399999999999991      19.599999999999998
   266   1      11.759999999999991      31.359999999999996      17.639999999999993
   267   1      9.7999999999999901      31.359999999999996      23.519999999999992
   268   1      11.759999999999991      29.399999999999991      23.519999999999992
   269   1      11.759999999999991      31.359999999999996      21.559999999999995
   270   1      9.7999999999999901      29.399999999999991       25.47999999999999
   271   1      9.7999999999999901      31.359999999999996      27.439999999999991
   272   1      11.759999999999991      29.399999999999991      27.439999999999991
   273   1      11.759999999999991      31.359999999999996       25.47999999999999
   274   1      9.7999999999999901      29.399999999999991      29.399999999999991
   275   1      9.7999999999999901      31.359999999999996      31.359999999999996
   276   1      11.759999999999991      29.399999999999991      31.359999999999996
   277   1      11.759999999999991      31.359999999999996      29.399999999999991
   278   1      9.7999999999999901      29.399999999999991      33.319999999999993
   279   1      9.7999999999999901      31.359999999999996      35.279999999999994
   280   1      11.759999999999991      29.399999999999991      35.279999999999994
   281   1      11.759999999999991      31.359999999999996      33.319999999999993
   282   1      9.7999999999999901      29.399999999999991      37.239999999999995
   283   1      9.7999999999999901      31.359999999999996      39.199999999999996
   284   1      11.759999999999991      29.399999999999991      39.199999999999996
   285   1      11.759999999999991      31.359999999999996      37.239999999999995
   286   1      9.7999999999999901      29.399999999999991      41.159999999999989
   287   1      9.7999999999999901      31.359999999999996      43.119999999999997
   288   1      11.759999999999991      29.399999999999991      43.119999999999997
   289   1      11.759999999999991      31.359999999999996      41.159999999999989
   290   1      9.7999999999999901      29.399999999999991      45.079999999999991
   291   1      9.7999999999999901      31.359999999999996      47.039999999999999
   292   1      11.759999999999991      29.399999999999991      47.039999999999999
   293   1      11.759999999999991      31.359999999999996      45.079999999999991
   294   1      9.7999999999999901      29.399999999999991      48.999999999999993
   295   1      9.7999999999999901      31.359999999999996      50.959999999999994
   296   1      11.759999999999991      29.399999999999991      50.959999999999994
   297   1      11.759999999999991      31.359999999999996      48.999999999999993
   298   1      11.759999999999991      29.399999999999991      54.879999999999988
   299   1      11.759999999999991      31.359999999999996      52.919999999999995
   300   1      11.759999999999991      31.359999999999996      56.839999999999996
   301   1      11.759999999999991      33.319999999999993      15.679999999999994
   302   1      11.759999999999991      35.279999999999994      13.719999999999994
   303   1      9.7999999999999901      35.279999999999994      19.599999999999998
   304   1      11.759999999999991      33.319999999999993      19.599999999999998
   305   1      11.759999999999991      35.279999999999994      17.639999999999993
   306   1      9.7999999999999901      33.319999999999993      21.559999999999995
   307   1      9.7999999999999901      35.279999999999994      23.519999999999992
   308   1      11.759999999999991      33.319999999999993      23.519999999999992
   309   1      11.759999999999991      35.279999999999994      21.559999999999995
   310   1      9.7999999999999901      33.319999999999993       25.47999999999999
   311   1      9.7999999999999901      35.279999999999994      27.439999999999991
   312   1      11.759999999999991      33.319999999999993      27.439999999999991
   313   1      11.759999999999991      35.279999999999994       25.47999999999999
   314   1      9.7999999999999901      33.319999999999993      29.399999999999991
   315   1      9.7999999999999901      35.279999999999994      31.359999999999996
   316   1      11.759999999999991      33.319999999999993      31.359999999999996
   317   1      11.759999999999991      35.279999999999994      29.399999999999991
   318   1      9.7999999999999901      33.319999999999993      33.319999999999993
   319   1      9.7999999999999901      35.279999999999994      35.279999999999994
   320   1      11.759999999999991      33.319999999999993      35.279999999999994
   321   1      11.759999999999991      35.279999999999994      33.319999999999993
   322   1      9.7999999999999901      33.319999999999993      37.239999999999995
   323   1      9.7999999999999901      35.279999999999994      39.199999999999996
   324   1      11.759999999999991      33.319999999999993      39.199999999999996
   325   1      11.759999999999991      35.279999999999994      37.239999999999995
   326   1      9.7999999999999901      33.319999999999993      41.159999999999989
   327   1      9.7999999999999901      35.279999999999994      43.119999999999997
   328   1      11.759999999999991      33.319999999999993      43.119999999999997
   329   1      11.759999999999991      35.279999999999994      41.159999999999989
   330   1      9.7999999999999901      33.319999999999993      45.079999999999991
   331   1      9.7999999999999901      35.279999999999994      47.039999999999999
   332   1      11.759999999999991      33.319999999999993      47.039999999999999
   333   1      11.759999999999991      35.279999999999994      45.079999999999991
   334   1      9.7999999999999901      33.319999999999993      48.999999999999993
   335   1      9.7999999999999901      35.279999999999994      50.959999999999994
   336   1      11.759999999999991      33.319999999999993      50.959999999999994
   337   1      11.759999999999991      35.279999999999994      48.999999999999993
   338   1      9.7999999999999901      33.319999999999993      52.919999999999995
   339   1      9.7999999999999901      35.279999999999994      54.879999999999988
   340   1      11.759999999999991      33.319999999999993      54.879999999999988
   341   1      11.759999999999991      35.279999999999994      52.919999999999995
   342   1      11.759999999999991      33.319999999999993       58.79999999999999
   343   1      11.759999999999991      35.279999999999994      56.839999999999996
   344   1      11.759999999999991      35.279999999999994      60.759999999999998
   345   1      11.759999999999991      37.239999999999995      11.759999999999991
   346   1      11.759999999999991      37.239999999999995      15.679999999999994
   347   1      11.759999999999991      39.199999999999996      13.719999999999994
   348   1      9.7999999999999901      37.239999999999995      17.639999999999993
   349   1      9.7999999999999901      39.199999999999996      19.599999999999998
   350   1      11.759999999999991      37.239999999999995      19.599999999999998
   351   1      11.759999999999991      39.199999999999996      17.639999999999993
   352   1      9.7999999999999901      37.239999999999995      21.559999999999995
   353   1      9.7999999999999901      39.199999999999996      23.519999999999992
   354   1      11.759999999999991      37.239999999999995      23.519999999999992
   355   1      11.759999999999991      39.199999999999996      21.559999999999995
   356   1      9.7999999999999901      37.239999999999995       25.47999999999999
   357   1      9.7999999999999901      39.199999999999996      27.439999999999991
   358   1      11.759999999999991      37.239999999999995      27.439999999999991