model_files/Pt/Pt_10000/Pt_421/data.Pt_421_fcc_9863 (written by ASE) 

9863 	 atoms 
1  atom types
0.0                      70  xlo xhi
0.0                      70  ylo yhi
0.0                      70  zlo zhi


Atoms 

     1   1      1.9600000000000009      29.399999999999999      35.280000000000001
     2   1      1.9600000000000009      31.359999999999996                   33.32
     3   1      1.9600000000000009                   33.32      31.359999999999996
     4   1      1.9600000000000009      31.359999999999996      37.240000000000002
     5   1      1.9600000000000009                   33.32      35.280000000000001
     6   1      1.9600000000000009                   33.32      39.199999999999996
     7   1      1.9600000000000009      35.280000000000001      29.399999999999999
     8   1      1.9600000000000009      35.280000000000001                   33.32
     9   1      1.9600000000000009      37.240000000000002      31.359999999999996
    10   1                       0      35.280000000000001      35.280000000000001
    11   1      1.9600000000000009      35.280000000000001      37.240000000000002
    12   1      1.9600000000000009      37.240000000000002      35.280000000000001
    13   1      1.9600000000000009      35.280000000000001      41.159999999999997
    14   1      1.9600000000000009      37.240000000000002      39.199999999999996
    15   1      1.9600000000000009      39.199999999999996                   33.32
    16   1      1.9600000000000009      39.199999999999996      37.240000000000002
    17   1      1.9600000000000009      41.159999999999997      35.280000000000001
    18   1      5.8799999999999981      21.559999999999999      35.280000000000001
    19   1      5.8799999999999981      25.479999999999997      27.439999999999998
    20   1      5.8799999999999981      23.519999999999992                   33.32
    21   1      5.8799999999999981      25.479999999999997      31.359999999999996
    22   1      5.8799999999999981      23.519999999999992      37.240000000000002
    23   1      5.8799999999999981      25.479999999999997      35.280000000000001
    24   1      5.8799999999999981      25.479999999999997      39.199999999999996
    25   1      5.8799999999999981      25.479999999999997      43.119999999999997
    26   1      5.8799999999999981      27.439999999999998      25.479999999999997
    27   1      3.9199999999999982      29.399999999999999      29.399999999999999
    28   1      5.8799999999999981      27.439999999999998      29.399999999999999
    29   1      5.8799999999999981      29.399999999999999      27.439999999999998
    30   1      3.9199999999999982      27.439999999999998      31.359999999999996
    31   1      3.9199999999999982      29.399999999999999                   33.32
    32   1      5.8799999999999981      27.439999999999998                   33.32
    33   1      5.8799999999999981      29.399999999999999      31.359999999999996
    34   1      3.9199999999999982      27.439999999999998      35.280000000000001
    35   1      3.9199999999999982      29.399999999999999      37.240000000000002
    36   1      5.8799999999999981      27.439999999999998      37.240000000000002
    37   1      5.8799999999999981      29.399999999999999      35.280000000000001
    38   1      3.9199999999999982      27.439999999999998      39.199999999999996
    39   1      3.9199999999999982      29.399999999999999      41.159999999999997
    40   1      5.8799999999999981      27.439999999999998      41.159999999999997
    41   1      5.8799999999999981      29.399999999999999      39.199999999999996
    42   1      5.8799999999999981      27.439999999999998      45.079999999999991
    43   1      5.8799999999999981      29.399999999999999      43.119999999999997
    44   1      5.8799999999999981      31.359999999999996      25.479999999999997
    45   1      5.8799999999999981                   33.32      23.519999999999992
    46   1      3.9199999999999982      31.359999999999996      27.439999999999998
    47   1      3.9199999999999982                   33.32      29.399999999999999
    48   1      5.8799999999999981      31.359999999999996      29.399999999999999
    49   1      5.8799999999999981                   33.32      27.439999999999998
    50   1      3.9199999999999982      31.359999999999996      31.359999999999996
    51   1      3.9199999999999982                   33.32                   33.32
    52   1      5.8799999999999981      31.359999999999996                   33.32
    53   1      5.8799999999999981                   33.32      31.359999999999996
    54   1      3.9199999999999982      31.359999999999996      35.280000000000001
    55   1      3.9199999999999982                   33.32      37.240000000000002
    56   1      5.8799999999999981      31.359999999999996      37.240000000000002
    57   1      5.8799999999999981                   33.32      35.280000000000001
    58   1      3.9199999999999982      31.359999999999996      39.199999999999996
    59   1      3.9199999999999982                   33.32      41.159999999999997
    60   1      5.8799999999999981      31.359999999999996      41.159999999999997
    61   1      5.8799999999999981                   33.32      39.199999999999996
    62   1      3.9199999999999982      31.359999999999996      43.119999999999997
    63   1      5.8799999999999981      31.359999999999996      45.079999999999991
    64   1      5.8799999999999981                   33.32      43.119999999999997
    65   1      5.8799999999999981                   33.32      47.039999999999992
    66   1      5.8799999999999981      35.280000000000001      21.559999999999999
    67   1      5.8799999999999981      35.280000000000001      25.479999999999997
    68   1      5.8799999999999981      37.240000000000002      23.519999999999992
    69   1      3.9199999999999982      35.280000000000001      27.439999999999998
    70   1      3.9199999999999982      37.240000000000002      29.399999999999999
    71   1      5.8799999999999981      35.280000000000001      29.399999999999999
    72   1      5.8799999999999981      37.240000000000002      27.439999999999998
    73   1      3.9199999999999982      35.280000000000001      31.359999999999996
    74   1      3.9199999999999982      37.240000000000002                   33.32
    75   1      5.8799999999999981      35.280000000000001                   33.32
    76   1      5.8799999999999981      37.240000000000002      31.359999999999996
    77   1      3.9199999999999982      35.280000000000001      35.280000000000001
    78   1      3.9199999999999982      37.240000000000002      37.240000000000002
    79   1      5.8799999999999981      35.280000000000001      37.240000000000002
    80   1      5.8799999999999981      37.240000000000002      35.280000000000001
    81   1      3.9199999999999982      35.280000000000001      39.199999999999996
    82   1      3.9199999999999982      37.240000000000002      41.159999999999997
    83   1      5.8799999999999981      35.280000000000001      41.159999999999997
    84   1      5.8799999999999981      37.240000000000002      39.199999999999996
    85   1      3.9199999999999982      35.280000000000001      43.119999999999997
    86   1      5.8799999999999981      35.280000000000001      45.079999999999991
    87   1      5.8799999999999981      37.240000000000002      43.119999999999997
    88   1      5.8799999999999981      35.280000000000001                      49
    89   1      5.8799999999999981      37.240000000000002      47.039999999999992
    90   1      5.8799999999999981      39.199999999999996      25.479999999999997
    91   1      3.9199999999999982      39.199999999999996      27.439999999999998
    92   1      3.9199999999999982      41.159999999999997      29.399999999999999
    93   1      5.8799999999999981      39.199999999999996      29.399999999999999
    94   1      5.8799999999999981      41.159999999999997      27.439999999999998
    95   1      3.9199999999999982      39.199999999999996      31.359999999999996
    96   1      3.9199999999999982      41.159999999999997                   33.32
    97   1      5.8799999999999981      39.199999999999996                   33.32
    98   1      5.8799999999999981      41.159999999999997      31.359999999999996
    99   1      3.9199999999999982      39.199999999999996      35.280000000000001
   100   1      3.9199999999999982      41.159999999999997      37.240000000000002
   101   1      5.8799999999999981      39.199999999999996      37.240000000000002
   102   1      5.8799999999999981      41.159999999999997      35.280000000000001
   103   1      3.9199999999999982      39.199999999999996      39.199999999999996
   104   1      3.9199999999999982      41.159999999999997      41.159999999999997
   105   1      5.8799999999999981      39.199999999999996      41.159999999999997
   106   1      5.8799999999999981      41.159999999999997      39.199999999999996
   107   1      3.9199999999999982      39.199999999999996      43.119999999999997
   108   1      5.8799999999999981      39.199999999999996      45.079999999999991
   109   1      5.8799999999999981      41.159999999999997      43.119999999999997
   110   1      5.8799999999999981      43.119999999999997      25.479999999999997
   111   1      5.8799999999999981      43.119999999999997      29.399999999999999
   112   1      5.8799999999999981      45.079999999999991      27.439999999999998
   113   1      3.9199999999999982      43.119999999999997      31.359999999999996
   114   1      5.8799999999999981      43.119999999999997                   33.32
   115   1      5.8799999999999981      45.079999999999991      31.359999999999996
   116   1      3.9199999999999982      43.119999999999997      35.280000000000001
   117   1      5.8799999999999981      43.119999999999997      37.240000000000002
   118   1      5.8799999999999981      45.079999999999991      35.280000000000001
   119   1      3.9199999999999982      43.119999999999997      39.199999999999996
   120   1      5.8799999999999981      43.119999999999997      41.159999999999997
   121   1      5.8799999999999981      45.079999999999991      39.199999999999996
   122   1      5.8799999999999981      43.119999999999997      45.079999999999991
   123   1      5.8799999999999981      45.079999999999991      43.119999999999997
   124   1      5.8799999999999981      47.039999999999992                   33.32
   125   1      5.8799999999999981      47.039999999999992      37.240000000000002
   126   1      5.8799999999999981                      49      35.280000000000001
   127   1      9.7999999999999972      13.719999999999999      35.280000000000001
   128   1      9.7999999999999972      17.640000000000001      27.439999999999998
   129   1      9.7999999999999972      15.679999999999998                   33.32
   130   1      9.7999999999999972      17.640000000000001      31.359999999999996
   131   1      9.7999999999999972      15.679999999999998      37.240000000000002
   132   1      9.7999999999999972      17.640000000000001      35.280000000000001
   133   1      9.7999999999999972      17.640000000000001      39.199999999999996
   134   1      9.7999999999999972      17.640000000000001      43.119999999999997
   135   1      9.7999999999999972      19.599999999999998      25.479999999999997
   136   1      9.7999999999999972      21.559999999999999      23.519999999999992
   137   1      7.8399999999999963      21.559999999999999      29.399999999999999
   138   1      9.7999999999999972      19.599999999999998      29.399999999999999
   139   1      9.7999999999999972      21.559999999999999      27.439999999999998
   140   1      7.8399999999999963      19.599999999999998      31.359999999999996
   141   1      7.8399999999999963      21.559999999999999                   33.32
   142   1      9.7999999999999972      19.599999999999998                   33.32
   143   1      9.7999999999999972      21.559999999999999      31.359999999999996
   144   1      7.8399999999999963      19.599999999999998      35.280000000000001
   145   1      7.8399999999999963      21.559999999999999      37.240000000000002
   146   1      9.7999999999999972      19.599999999999998      37.240000000000002
   147   1      9.7999999999999972      21.559999999999999      35.280000000000001
   148   1      7.8399999999999963      19.599999999999998      39.199999999999996
   149   1      7.8399999999999963      21.559999999999999      41.159999999999997
   150   1      9.7999999999999972      19.599999999999998      41.159999999999997
   151   1      9.7999999999999972      21.559999999999999      39.199999999999996
   152   1      9.7999999999999972      19.599999999999998      45.079999999999991
   153   1      9.7999999999999972      21.559999999999999      43.119999999999997
   154   1      9.7999999999999972      21.559999999999999      47.039999999999992
   155   1      9.7999999999999972      23.519999999999992      21.559999999999999
   156   1      9.7999999999999972      25.479999999999997      19.599999999999998
   157   1      7.8399999999999963      23.519999999999992      23.519999999999992
   158   1      7.8399999999999963      25.479999999999997      25.479999999999997
   159   1      9.7999999999999972      23.519999999999992      25.479999999999997
   160   1      9.7999999999999972      25.479999999999997      23.519999999999992
   161   1      7.8399999999999963      23.519999999999992      27.439999999999998
   162   1      7.8399999999999963      25.479999999999997      29.399999999999999
   163   1      9.7999999999999972      23.519999999999992      29.399999999999999
   164   1      9.7999999999999972      25.479999999999997      27.439999999999998
   165   1      7.8399999999999963      23.519999999999992      31.359999999999996
   166   1      7.8399999999999963      25.479999999999997                   33.32
   167   1      9.7999999999999972      23.519999999999992                   33.32
   168   1      9.7999999999999972      25.479999999999997      31.359999999999996
   169   1      7.8399999999999963      23.519999999999992      35.280000000000001
   170   1      7.8399999999999963      25.479999999999997      37.240000000000002
   171   1      9.7999999999999972      23.519999999999992      37.240000000000002
   172   1      9.7999999999999972      25.479999999999997      35.280000000000001
   173   1      7.8399999999999963      23.519999999999992      39.199999999999996
   174   1      7.8399999999999963      25.479999999999997      41.159999999999997
   175   1      9.7999999999999972      23.519999999999992      41.159999999999997
   176   1      9.7999999999999972      25.479999999999997      39.199999999999996
   177   1      7.8399999999999963      23.519999999999992      43.119999999999997
   178   1      7.8399999999999963      25.479999999999997      45.079999999999991
   179   1      9.7999999999999972      23.519999999999992      45.079999999999991
   180   1      9.7999999999999972      25.479999999999997      43.119999999999997
   181   1      7.8399999999999963      23.519999999999992      47.039999999999992
   182   1      9.7999999999999972      23.519999999999992                      49
   183   1      9.7999999999999972      25.479999999999997      47.039999999999992
   184   1      9.7999999999999972      25.479999999999997      50.959999999999994
   185   1      9.7999999999999972      27.439999999999998      17.640000000000001
   186   1      7.8399999999999963      29.399999999999999      21.559999999999999
   187   1      9.7999999999999972      27.439999999999998      21.559999999999999
   188   1      9.7999999999999972      29.399999999999999      19.599999999999998
   189   1      7.8399999999999963      27.439999999999998      23.519999999999992
   190   1      7.8399999999999963      29.399999999999999      25.479999999999997
   191   1      9.7999999999999972      27.439999999999998      25.479999999999997
   192   1      9.7999999999999972      29.399999999999999      23.519999999999992
   193   1      7.8399999999999963      27.439999999999998      27.439999999999998
   194   1      7.8399999999999963      29.399999999999999      29.399999999999999
   195   1      9.7999999999999972      27.439999999999998      29.399999999999999
   196   1      9.7999999999999972      29.399999999999999      27.439999999999998
   197   1      7.8399999999999963      27.439999999999998      31.359999999999996
   198   1      7.8399999999999963      29.399999999999999                   33.32
   199   1      9.7999999999999972      27.439999999999998                   33.32
   200   1      9.7999999999999972      29.399999999999999      31.359999999999996
   201   1      7.8399999999999963      27.439999999999998      35.280000000000001
   202   1      7.8399999999999963      29.399999999999999      37.240000000000002
   203   1      9.7999999999999972      27.439999999999998      37.240000000000002
   204   1      9.7999999999999972      29.399999999999999      35.280000000000001
   205   1      7.8399999999999963      27.439999999999998      39.199999999999996
   206   1      7.8399999999999963      29.399999999999999      41.159999999999997
   207   1      9.7999999999999972      27.439999999999998      41.159999999999997
   208   1      9.7999999999999972      29.399999999999999      39.199999999999996
   209   1      7.8399999999999963      27.439999999999998      43.119999999999997
   210   1      7.8399999999999963      29.399999999999999      45.079999999999991
   211   1      9.7999999999999972      27.439999999999998      45.079999999999991
   212   1      9.7999999999999972      29.399999999999999      43.119999999999997
   213   1      7.8399999999999963      27.439999999999998      47.039999999999992
   214   1      7.8399999999999963      29.399999999999999                      49
   215   1      9.7999999999999972      27.439999999999998                      49
   216   1      9.7999999999999972      29.399999999999999      47.039999999999992
   217   1      9.7999999999999972      27.439999999999998      52.919999999999995
   218   1      9.7999999999999972      29.399999999999999      50.959999999999994
   219   1      9.7999999999999972      31.359999999999996      17.640000000000001
   220   1      9.7999999999999972                   33.32      15.679999999999998
   221   1      7.8399999999999963      31.359999999999996      19.599999999999998
   222   1      7.8399999999999963                   33.32      21.559999999999999
   223   1      9.7999999999999972      31.359999999999996      21.559999999999999
   224   1      9.7999999999999972                   33.32      19.599999999999998
   225   1      7.8399999999999963      31.359999999999996      23.519999999999992
   226   1      7.8399999999999963                   33.32      25.479999999999997
   227   1      9.7999999999999972      31.359999999999996      25.479999999999997
   228   1      9.7999999999999972                   33.32      23.519999999999992
   229   1      7.8399999999999963      31.359999999999996      27.439999999999998
   230   1      7.8399999999999963                   33.32      29.399999999999999
   231   1      9.7999999999999972      31.359999999999996      29.399999999999999
   232   1      9.7999999999999972                   33.32      27.439999999999998
   233   1      7.8399999999999963      31.359999999999996      31.359999999999996
   234   1      7.8399999999999963                   33.32                   33.32
   235   1      9.7999999999999972      31.359999999999996                   33.32
   236   1      9.7999999999999972                   33.32      31.359999999999996
   237   1      7.8399999999999963      31.359999999999996      35.280000000000001
   238   1      7.8399999999999963                   33.32      37.240000000000002
   239   1      9.7999999999999972      31.359999999999996      37.240000000000002
   240   1      9.7999999999999972                   33.32      35.280000000000001
   241   1      7.8399999999999963      31.359999999999996      39.199999999999996
   242   1      7.8399999999999963                   33.32      41.159999999999997
   243   1      9.7999999999999972      31.359999999999996      41.159999999999997
   244   1      9.7999999999999972                   33.32      39.199999999999996
   245   1      7.8399999999999963      31.359999999999996      43.119999999999997
   246   1      7.8399999999999963                   33.32      45.079999999999991
   247   1      9.7999999999999972      31.359999999999996      45.079999999999991
   248   1      9.7999999999999972                   33.32      43.119999999999997
   249   1      7.8399999999999963      31.359999999999996      47.039999999999992
   250   1      7.8399999999999963                   33.32                      49
   251   1      9.7999999999999972      31.359999999999996                      49
   252   1      9.7999999999999972                   33.32      47.039999999999992
   253   1      7.8399999999999963      31.359999999999996      50.959999999999994
   254   1      9.7999999999999972      31.359999999999996      52.919999999999995
   255   1      9.7999999999999972                   33.32      50.959999999999994
   256   1      9.7999999999999972                   33.32      54.879999999999995
   257   1      9.7999999999999972      35.280000000000001      13.719999999999999
   258   1      9.7999999999999972      35.280000000000001      17.640000000000001
   259   1      9.7999999999999972      37.240000000000002      15.679999999999998
   260   1      7.8399999999999963      35.280000000000001      19.599999999999998
   261   1      7.8399999999999963      37.240000000000002      21.559999999999999
   262   1      9.7999999999999972      35.280000000000001      21.559999999999999
   263   1      9.7999999999999972      37.240000000000002      19.599999999999998
   264   1      7.8399999999999963      35.280000000000001      23.519999999999992
   265   1      7.8399999999999963      37.240000000000002      25.479999999999997
   266   1      9.7999999999999972      35.280000000000001      25.479999999999997
   267   1      9.7999999999999972      37.240000000000002      23.519999999999992
   268   1      7.8399999999999963      35.280000000000001      27.439999999999998
   269   1      7.8399999999999963      37.240000000000002      29.399999999999999
   270   1      9.7999999999999972      35.280000000000001      29.399999999999999
   271   1      9.7999999999999972      37.240000000000002      27.439999999999998
   272   1      7.8399999999999963      35.280000000000001      31.359999999999996
   273   1      7.8399999999999963      37.240000000000002                   33.32
   274   1      9.7999999999999972      35.280000000000001                   33.32
   275   1      9.7999999999999972      37.240000000000002      31.359999999999996
   276   1      7.8399999999999963      35.280000000000001      35.280000000000001
   277   1      7.8399999999999963      37.240000000000002      37.240000000000002
   278   1      9.7999999999999972      35.280000000000001      37.240000000000002
   279   1      9.7999999999999972      37.240000000000002      35.280000000000001
   280   1      7.8399999999999963      35.280000000000001      39.199999999999996
   281   1      7.8399999999999963      37.240000000000002      41.159999999999997
   282   1      9.7999999999999972      35.280000000000001      41.159999999999997
   283   1      9.7999999999999972      37.240000000000002      39.199999999999996
   284   1      7.8399999999999963      35.280000000000001      43.119999999999997
   285   1      7.8399999999999963      37.240000000000002      45.079999999999991
   286   1      9.7999999999999972      35.280000000000001      45.079999999999991
   287   1      9.7999999999999972      37.240000000000002      43.119999999999997
   288   1      7.8399999999999963      35.280000000000001      47.039999999999992
   289   1      7.8399999999999963      37.240000000000002                      49
   290   1      9.7999999999999972      35.280000000000001                      49
   291   1      9.7999999999999972      37.240000000000002      47.039999999999992
   292   1      7.8399999999999963      35.280000000000001      50.959999999999994
   293   1      9.7999999999999972      35.280000000000001      52.919999999999995
   294   1      9.7999999999999972      37.240000000000002      50.959999999999994
   295   1      9.7999999999999972      35.280000000000001      56.839999999999996
   296   1      9.7999999999999972      37.240000000000002      54.879999999999995
   297   1      9.7999999999999972      39.199999999999996      17.640000000000001
   298   1      7.8399999999999963      39.199999999999996      19.599999999999998
   299   1      7.8399999999999963      41.159999999999997      21.559999999999999
   300   1      9.7999999999999972      39.199999999999996      21.559999999999999
   301   1      9.7999999999999972      41.159999999999997      19.599999999999998
   302   1      7.8399999999999963      39.199999999999996      23.519999999999992
   303   1      7.8399999999999963      41.159999999999997      25.479999999999997
   304   1      9.7999999999999972      39.199999999999996      25.479999999999997
   305   1      9.7999999999999972      41.159999999999997      23.519999999999992
   306   1      7.8399999999999963      39.199999999999996      27.439999999999998
   307   1      7.8399999999999963      41.159999999999997      29.399999999999999
   308   1      9.7999999999999972      39.199999999999996      29.399999999999999
   309   1      9.7999999999999972      41.159999999999997      27.439999999999998
   310   1      7.8399999999999963      39.199999999999996      31.359999999999996
   311   1      7.8399999999999963      41.159999999999997                   33.32
   312   1      9.7999999999999972      39.199999999999996                   33.32
   313   1      9.7999999999999972      41.159999999999997      31.359999999999996
   314   1      7.8399999999999963      39.199999999999996      35.280000000000001
   315   1      7.8399999999999963      41.159999999999997      37.240000000000002
   316   1      9.7999999999999972      39.199999999999996      37.240000000000002
   317   1      9.7999999999999972      41.159999999999997      35.280000000000001
   318   1      7.8399999999999963      39.199999999999996      39.199999999999996
   319   1      7.8399999999999963      41.159999999999997      41.159999999999997
   320   1      9.7999999999999972      39.199999999999996      41.159999999999997
   321   1      9.7999999999999972      41.159999999999997      39.199999999999996
   322   1      7.8399999999999963      39.199999999999996      43.119999999999997
   323   1      7.8399999999999963      41.159999999999997      45.079999999999991
   324   1      9.7999999999999972      39.199999999999996      45.079999999999991
   325   1      9.7999999999999972      41.159999999999997      43.119999999999997
   326   1      7.8399999999999963      39.199999999999996      47.039999999999992
   327   1      7.8399999999999963      41.159999999999997                      49
   328   1      9.7999999999999972      39.199999999999996                      49
   329   1      9.7999999999999972      41.159999999999997      47.039999999999992
   330   1      7.8399999999999963      39.199999999999996      50.959999999999994
   331   1      9.7999999999999972      39.199999999999996      52.919999999999995
   332   1      9.7999999999999972      41.159999999999997      50.959999999999994
   333   1      9.7999999999999972      43.119999999999997      17.640000000000001
   334   1      9.7999999999999972      43.119999999999997      21.559999999999999
   335   1      9.7999999999999972      45.079999999999991      19.599999999999998
   336   1      7.8399999999999963      43.119999999999997      23.519999999999992
   337   1      7.8399999999999963      45.079999999999991      25.479999999999997
   338   1      9.7999999999999972      43.119999999999997      25.479999999999997
   339   1      9.7999999999999972      45.079999999999991      23.519999999999992
   340   1      7.8399999999999963      43.119999999999997      27.439999999999998
   341   1      7.8399999999999963      45.079999999999991      29.399999999999999
   342   1      9.7999999999999972      43.119999999999997      29.399999999999999
   343   1      9.7999999999999972      45.079999999999991      27.439999999999998
   344   1      7.8399999999999963      43.119999999999997      31.359999999999996
   345   1      7.8399999999999963      45.079999999999991                   33.32
   346   1      9.7999999999999972      43.119999999999997                   33.32
   347   1      9.7999999999999972      45.079999999999991      31.359999999999996
   348   1      7.8399999999999963      43.119999999999997      35.280000000000001
   349   1      7.8399999999999963      45.079999999999991      37.240000000000002
   350   1      9.7999999999999972      43.119999999999997      37.240000000000002
   351   1      9.7999999999999972      45.079999999999991      35.280000000000001
   352   1      7.8399999999999963      43.119999999999997      39.199999999999996
   353   1      7.8399999999999963      45.079999999999991      41.159999999999997
   354   1      9.7999999999999972      43.119999999999997      41.159999999999997
   355   1      9.7999999999999972      45.079999999999991      39.199999999999996
   356   1      7.8399999999999963      43.119999999999997      43.119999999999997
   357   1      7.8399999999999963      45.079999999999991      45.079999999999991
   358   1      9.7999999999999972      43.119999999999997      45.079999999999991