model_files/PtAu/PtAu_30000/PtAu_544/PtAu_544_fcc_30001_temp.data (written by ASE) 

30001 	 atoms 
2  atom types
0.0                     131  xlo xhi
0.0                     131  ylo yhi
0.0                     131  zlo zhi


Atoms 

     1   1      2.0214999999999961      62.666499999999992      64.688000000000002
     2   1      2.0214999999999961      64.688000000000002      62.666499999999992
     3   1                       0      64.688000000000002      64.688000000000002
     4   1      2.0214999999999961      64.688000000000002      66.709500000000006
     5   1      2.0214999999999961      66.709500000000006      64.688000000000002
     6   1      6.0644999999999953      58.623499999999993      64.688000000000002
     7   1      4.0429999999999922      62.666499999999992      62.666499999999992
     8   1      6.0644999999999953      60.644999999999989      62.666499999999992
     9   1      6.0644999999999953      62.666499999999992      60.644999999999989
    10   1      4.0429999999999922      60.644999999999989      64.688000000000002
    11   1      4.0429999999999922      62.666499999999992      66.709500000000006
    12   1      6.0644999999999953      60.644999999999989      66.709500000000006
    13   1      6.0644999999999953      62.666499999999992      64.688000000000002
    14   1      6.0644999999999953      62.666499999999992      68.730999999999995
    15   1      6.0644999999999953      64.688000000000002      58.623499999999993
    16   1      4.0429999999999922      64.688000000000002      60.644999999999989
    17   1      4.0429999999999922      66.709500000000006      62.666499999999992
    18   1      6.0644999999999953      64.688000000000002      62.666499999999992
    19   1      6.0644999999999953      66.709500000000006      60.644999999999989
    20   1      4.0429999999999922      64.688000000000002      64.688000000000002
    21   1      4.0429999999999922      66.709500000000006      66.709500000000006
    22   1      6.0644999999999953      64.688000000000002      66.709500000000006
    23   1      6.0644999999999953      66.709500000000006      64.688000000000002
    24   1      4.0429999999999922      64.688000000000002      68.730999999999995
    25   1      6.0644999999999953      64.688000000000002      70.752499999999998
    26   1      6.0644999999999953      66.709500000000006      68.730999999999995
    27   1      6.0644999999999953      68.730999999999995      62.666499999999992
    28   1      4.0429999999999922      68.730999999999995      64.688000000000002
    29   1      6.0644999999999953      68.730999999999995      66.709500000000006
    30   1      6.0644999999999953      70.752499999999998      64.688000000000002
    31   1      10.107499999999995      50.537500000000001      64.688000000000002
    32   1      10.107499999999995      52.558999999999997      62.666499999999992
    33   1      10.107499999999995      54.580499999999994      60.644999999999989
    34   1      10.107499999999995      52.558999999999997      66.709500000000006
    35   1      10.107499999999995      54.580499999999994      64.688000000000002
    36   1      10.107499999999995      54.580499999999994      68.730999999999995
    37   1      10.107499999999995       56.60199999999999      58.623499999999993
    38   1      10.107499999999995      58.623499999999993       56.60199999999999
    39   1      8.0859999999999985      58.623499999999993      62.666499999999992
    40   1      10.107499999999995       56.60199999999999      62.666499999999992
    41   1      10.107499999999995      58.623499999999993      60.644999999999989
    42   1      8.0859999999999985       56.60199999999999      64.688000000000002
    43   1      8.0859999999999985      58.623499999999993      66.709500000000006
    44   1      10.107499999999995       56.60199999999999      66.709500000000006
    45   1      10.107499999999995      58.623499999999993      64.688000000000002
    46   1      10.107499999999995       56.60199999999999      70.752499999999998
    47   1      10.107499999999995      58.623499999999993      68.730999999999995
    48   1      10.107499999999995      58.623499999999993      72.774000000000001
    49   1      10.107499999999995      60.644999999999989      54.580499999999994
    50   1      10.107499999999995      62.666499999999992      52.558999999999997
    51   1      8.0859999999999985      62.666499999999992      58.623499999999993
    52   1      10.107499999999995      60.644999999999989      58.623499999999993
    53   1      10.107499999999995      62.666499999999992       56.60199999999999
    54   1      8.0859999999999985      60.644999999999989      60.644999999999989
    55   1      8.0859999999999985      62.666499999999992      62.666499999999992
    56   1      10.107499999999995      60.644999999999989      62.666499999999992
    57   1      10.107499999999995      62.666499999999992      60.644999999999989
    58   1      8.0859999999999985      60.644999999999989      64.688000000000002
    59   1      8.0859999999999985      62.666499999999992      66.709500000000006
    60   1      10.107499999999995      60.644999999999989      66.709500000000006
    61   1      10.107499999999995      62.666499999999992      64.688000000000002
    62   1      8.0859999999999985      60.644999999999989      68.730999999999995
    63   1      8.0859999999999985      62.666499999999992      70.752499999999998
    64   1      10.107499999999995      60.644999999999989      70.752499999999998
    65   1      10.107499999999995      62.666499999999992      68.730999999999995
    66   1      10.107499999999995      60.644999999999989      74.795500000000004
    67   1      10.107499999999995      62.666499999999992      72.774000000000001
    68   1      10.107499999999995      62.666499999999992      76.816999999999993
    69   1      10.107499999999995      64.688000000000002      50.537500000000001
    70   1      10.107499999999995      64.688000000000002      54.580499999999994
    71   1      10.107499999999995      66.709500000000006      52.558999999999997
    72   1      8.0859999999999985      64.688000000000002       56.60199999999999
    73   1      8.0859999999999985      66.709500000000006      58.623499999999993
    74   1      10.107499999999995      64.688000000000002      58.623499999999993
    75   1      10.107499999999995      66.709500000000006       56.60199999999999
    76   1      8.0859999999999985      64.688000000000002      60.644999999999989
    77   1      8.0859999999999985      66.709500000000006      62.666499999999992
    78   1      10.107499999999995      64.688000000000002      62.666499999999992
    79   1      10.107499999999995      66.709500000000006      60.644999999999989
    80   1      8.0859999999999985      64.688000000000002      64.688000000000002
    81   1      8.0859999999999985      66.709500000000006      66.709500000000006
    82   1      10.107499999999995      64.688000000000002      66.709500000000006
    83   1      10.107499999999995      66.709500000000006      64.688000000000002
    84   1      8.0859999999999985      64.688000000000002      68.730999999999995
    85   1      8.0859999999999985      66.709500000000006      70.752499999999998
    86   1      10.107499999999995      64.688000000000002      70.752499999999998
    87   1      10.107499999999995      66.709500000000006      68.730999999999995
    88   1      8.0859999999999985      64.688000000000002      72.774000000000001
    89   1      10.107499999999995      64.688000000000002      74.795500000000004
    90   1      10.107499999999995      66.709500000000006      72.774000000000001
    91   1      10.107499999999995      64.688000000000002      78.838499999999996
    92   1      10.107499999999995      66.709500000000006      76.816999999999993
    93   1      10.107499999999995      68.730999999999995      54.580499999999994
    94   1      10.107499999999995      68.730999999999995      58.623499999999993
    95   1      10.107499999999995      70.752499999999998       56.60199999999999
    96   1      8.0859999999999985      68.730999999999995      60.644999999999989
    97   1      8.0859999999999985      70.752499999999998      62.666499999999992
    98   1      10.107499999999995      68.730999999999995      62.666499999999992
    99   1      10.107499999999995      70.752499999999998      60.644999999999989
   100   1      8.0859999999999985      68.730999999999995      64.688000000000002
   101   1      8.0859999999999985      70.752499999999998      66.709500000000006
   102   1      10.107499999999995      68.730999999999995      66.709500000000006
   103   1      10.107499999999995      70.752499999999998      64.688000000000002
   104   1      8.0859999999999985      68.730999999999995      68.730999999999995
   105   1      10.107499999999995      68.730999999999995      70.752499999999998
   106   1      10.107499999999995      70.752499999999998      68.730999999999995
   107   1      10.107499999999995      68.730999999999995      74.795500000000004
   108   1      10.107499999999995      70.752499999999998      72.774000000000001
   109   1      10.107499999999995      72.774000000000001      58.623499999999993
   110   1      10.107499999999995      72.774000000000001      62.666499999999992
   111   1      10.107499999999995      74.795500000000004      60.644999999999989
   112   1      8.0859999999999985      72.774000000000001      64.688000000000002
   113   1      10.107499999999995      72.774000000000001      66.709500000000006
   114   1      10.107499999999995      74.795500000000004      64.688000000000002
   115   1      10.107499999999995      72.774000000000001      70.752499999999998
   116   1      10.107499999999995      74.795500000000004      68.730999999999995
   117   1      10.107499999999995      76.816999999999993      62.666499999999992
   118   1      10.107499999999995      76.816999999999993      66.709500000000006
   119   1      10.107499999999995      78.838499999999996      64.688000000000002
   120   1      14.150499999999992      46.494500000000002      64.688000000000002
   121   1      12.128999999999991      50.537500000000001      62.666499999999992
   122   1      14.150499999999992      48.515999999999998      62.666499999999992
   123   1      14.150499999999992      50.537500000000001      60.644999999999989
   124   1      12.128999999999991      48.515999999999998      64.688000000000002
   125   1      12.128999999999991      50.537500000000001      66.709500000000006
   126   1      14.150499999999992      48.515999999999998      66.709500000000006
   127   1      14.150499999999992      50.537500000000001      64.688000000000002
   128   1      14.150499999999992      50.537500000000001      68.730999999999995
   129   1      12.128999999999991      54.580499999999994      58.623499999999993
   130   1      14.150499999999992      52.558999999999997      58.623499999999993
   131   1      14.150499999999992      54.580499999999994       56.60199999999999
   132   1      12.128999999999991      52.558999999999997      60.644999999999989
   133   1      12.128999999999991      54.580499999999994      62.666499999999992
   134   1      14.150499999999992      52.558999999999997      62.666499999999992
   135   1      14.150499999999992      54.580499999999994      60.644999999999989
   136   1      12.128999999999991      52.558999999999997      64.688000000000002
   137   1      12.128999999999991      54.580499999999994      66.709500000000006
   138   1      14.150499999999992      52.558999999999997      66.709500000000006
   139   1      14.150499999999992      54.580499999999994      64.688000000000002
   140   1      12.128999999999991      52.558999999999997      68.730999999999995
   141   1      12.128999999999991      54.580499999999994      70.752499999999998
   142   1      14.150499999999992      52.558999999999997      70.752499999999998
   143   1      14.150499999999992      54.580499999999994      68.730999999999995
   144   1      14.150499999999992      54.580499999999994      72.774000000000001
   145   1      12.128999999999991      58.623499999999993      54.580499999999994
   146   1      14.150499999999992       56.60199999999999      54.580499999999994
   147   1      14.150499999999992      58.623499999999993      52.558999999999997
   148   1      12.128999999999991       56.60199999999999       56.60199999999999
   149   1      12.128999999999991      58.623499999999993      58.623499999999993
   150   1      14.150499999999992       56.60199999999999      58.623499999999993
   151   1      14.150499999999992      58.623499999999993       56.60199999999999
   152   1      12.128999999999991       56.60199999999999      60.644999999999989
   153   1      12.128999999999991      58.623499999999993      62.666499999999992
   154   1      14.150499999999992       56.60199999999999      62.666499999999992
   155   1      14.150499999999992      58.623499999999993      60.644999999999989
   156   1      12.128999999999991       56.60199999999999      64.688000000000002
   157   1      12.128999999999991      58.623499999999993      66.709500000000006
   158   1      14.150499999999992       56.60199999999999      66.709500000000006
   159   1      14.150499999999992      58.623499999999993      64.688000000000002
   160   1      12.128999999999991       56.60199999999999      68.730999999999995
   161   1      12.128999999999991      58.623499999999993      70.752499999999998
   162   1      14.150499999999992       56.60199999999999      70.752499999999998
   163   1      14.150499999999992      58.623499999999993      68.730999999999995
   164   1      12.128999999999991       56.60199999999999      72.774000000000001
   165   1      12.128999999999991      58.623499999999993      74.795500000000004
   166   1      14.150499999999992       56.60199999999999      74.795500000000004
   167   1      14.150499999999992      58.623499999999993      72.774000000000001
   168   1      14.150499999999992      58.623499999999993      76.816999999999993
   169   1      12.128999999999991      62.666499999999992      50.537500000000001
   170   1      14.150499999999992      60.644999999999989      50.537500000000001
   171   1      14.150499999999992      62.666499999999992      48.515999999999998
   172   1      12.128999999999991      60.644999999999989      52.558999999999997
   173   1      12.128999999999991      62.666499999999992      54.580499999999994
   174   1      14.150499999999992      60.644999999999989      54.580499999999994
   175   1      14.150499999999992      62.666499999999992      52.558999999999997
   176   1      12.128999999999991      60.644999999999989       56.60199999999999
   177   1      12.128999999999991      62.666499999999992      58.623499999999993
   178   1      14.150499999999992      60.644999999999989      58.623499999999993
   179   1      14.150499999999992      62.666499999999992       56.60199999999999
   180   1      12.128999999999991      60.644999999999989      60.644999999999989
   181   1      12.128999999999991      62.666499999999992      62.666499999999992
   182   1      14.150499999999992      60.644999999999989      62.666499999999992
   183   1      14.150499999999992      62.666499999999992      60.644999999999989
   184   1      12.128999999999991      60.644999999999989      64.688000000000002
   185   1      12.128999999999991      62.666499999999992      66.709500000000006
   186   1      14.150499999999992      60.644999999999989      66.709500000000006
   187   1      14.150499999999992      62.666499999999992      64.688000000000002
   188   1      12.128999999999991      60.644999999999989      68.730999999999995
   189   1      12.128999999999991      62.666499999999992      70.752499999999998
   190   1      14.150499999999992      60.644999999999989      70.752499999999998
   191   1      14.150499999999992      62.666499999999992      68.730999999999995
   192   1      12.128999999999991      60.644999999999989      72.774000000000001
   193   1      12.128999999999991      62.666499999999992      74.795500000000004
   194   1      14.150499999999992      60.644999999999989      74.795500000000004
   195   1      14.150499999999992      62.666499999999992      72.774000000000001
   196   1      12.128999999999991      60.644999999999989      76.816999999999993
   197   1      12.128999999999991      62.666499999999992      78.838499999999996
   198   1      14.150499999999992      60.644999999999989      78.838499999999996
   199   1      14.150499999999992      62.666499999999992      76.816999999999993
   200   1      14.150499999999992      62.666499999999992      80.859999999999999
   201   1      14.150499999999992      64.688000000000002      46.494500000000002
   202   1      12.128999999999991      64.688000000000002      48.515999999999998
   203   1      12.128999999999991      66.709500000000006      50.537500000000001
   204   1      14.150499999999992      64.688000000000002      50.537500000000001
   205   1      14.150499999999992      66.709500000000006      48.515999999999998
   206   1      12.128999999999991      64.688000000000002      52.558999999999997
   207   1      12.128999999999991      66.709500000000006      54.580499999999994
   208   1      14.150499999999992      64.688000000000002      54.580499999999994
   209   1      14.150499999999992      66.709500000000006      52.558999999999997
   210   1      12.128999999999991      64.688000000000002       56.60199999999999
   211   1      12.128999999999991      66.709500000000006      58.623499999999993
   212   1      14.150499999999992      64.688000000000002      58.623499999999993
   213   1      14.150499999999992      66.709500000000006       56.60199999999999
   214   1      12.128999999999991      64.688000000000002      60.644999999999989
   215   1      12.128999999999991      66.709500000000006      62.666499999999992
   216   1      14.150499999999992      64.688000000000002      62.666499999999992
   217   1      14.150499999999992      66.709500000000006      60.644999999999989
   218   1      12.128999999999991      64.688000000000002      64.688000000000002
   219   1      12.128999999999991      66.709500000000006      66.709500000000006
   220   1      14.150499999999992      64.688000000000002      66.709500000000006
   221   1      14.150499999999992      66.709500000000006      64.688000000000002
   222   1      12.128999999999991      64.688000000000002      68.730999999999995
   223   1      12.128999999999991      66.709500000000006      70.752499999999998
   224   1      14.150499999999992      64.688000000000002      70.752499999999998
   225   1      14.150499999999992      66.709500000000006      68.730999999999995
   226   1      12.128999999999991      64.688000000000002      72.774000000000001
   227   1      12.128999999999991      66.709500000000006      74.795500000000004
   228   1      14.150499999999992      64.688000000000002      74.795500000000004
   229   1      14.150499999999992      66.709500000000006      72.774000000000001
   230   1      12.128999999999991      64.688000000000002      76.816999999999993
   231   1      12.128999999999991      66.709500000000006      78.838499999999996
   232   1      14.150499999999992      64.688000000000002      78.838499999999996
   233   1      14.150499999999992      66.709500000000006      76.816999999999993
   234   1      12.128999999999991      64.688000000000002      80.859999999999999
   235   1      14.150499999999992      64.688000000000002      82.881500000000003
   236   1      14.150499999999992      66.709500000000006      80.859999999999999
   237   1      14.150499999999992      68.730999999999995      50.537500000000001
   238   1      12.128999999999991      68.730999999999995      52.558999999999997
   239   1      12.128999999999991      70.752499999999998      54.580499999999994
   240   1      14.150499999999992      68.730999999999995      54.580499999999994
   241   1      14.150499999999992      70.752499999999998      52.558999999999997
   242   1      12.128999999999991      68.730999999999995       56.60199999999999
   243   1      12.128999999999991      70.752499999999998      58.623499999999993
   244   1      14.150499999999992      68.730999999999995      58.623499999999993
   245   1      14.150499999999992      70.752499999999998       56.60199999999999
   246   1      12.128999999999991      68.730999999999995      60.644999999999989
   247   1      12.128999999999991      70.752499999999998      62.666499999999992
   248   1      14.150499999999992      68.730999999999995      62.666499999999992
   249   1      14.150499999999992      70.752499999999998      60.644999999999989
   250   1      12.128999999999991      68.730999999999995      64.688000000000002
   251   1      12.128999999999991      70.752499999999998      66.709500000000006
   252   1      14.150499999999992      68.730999999999995      66.709500000000006
   253   1      14.150499999999992      70.752499999999998      64.688000000000002
   254   1      12.128999999999991      68.730999999999995      68.730999999999995
   255   1      12.128999999999991      70.752499999999998      70.752499999999998
   256   1      14.150499999999992      68.730999999999995      70.752499999999998
   257   1      14.150499999999992      70.752499999999998      68.730999999999995
   258   1      12.128999999999991      68.730999999999995      72.774000000000001
   259   1      12.128999999999991      70.752499999999998      74.795500000000004
   260   1      14.150499999999992      68.730999999999995      74.795500000000004
   261   1      14.150499999999992      70.752499999999998      72.774000000000001
   262   1      12.128999999999991      68.730999999999995      76.816999999999993
   263   1      14.150499999999992      68.730999999999995      78.838499999999996
   264   1      14.150499999999992      70.752499999999998      76.816999999999993
   265   1      14.150499999999992      72.774000000000001      54.580499999999994
   266   1      12.128999999999991      72.774000000000001       56.60199999999999
   267   1      12.128999999999991      74.795500000000004      58.623499999999993
   268   1      14.150499999999992      72.774000000000001      58.623499999999993
   269   1      14.150499999999992      74.795500000000004       56.60199999999999
   270   1      12.128999999999991      72.774000000000001      60.644999999999989
   271   1      12.128999999999991      74.795500000000004      62.666499999999992
   272   1      14.150499999999992      72.774000000000001      62.666499999999992
   273   1      14.150499999999992      74.795500000000004      60.644999999999989
   274   1      12.128999999999991      72.774000000000001      64.688000000000002
   275   1      12.128999999999991      74.795500000000004      66.709500000000006
   276   1      14.150499999999992      72.774000000000001      66.709500000000006
   277   1      14.150499999999992      74.795500000000004      64.688000000000002
   278   1      12.128999999999991      72.774000000000001      68.730999999999995
   279   1      12.128999999999991      74.795500000000004      70.752499999999998
   280   1      14.150499999999992      72.774000000000001      70.752499999999998
   281   1      14.150499999999992      74.795500000000004      68.730999999999995
   282   1      12.128999999999991      72.774000000000001      72.774000000000001
   283   1      14.150499999999992      72.774000000000001      74.795500000000004
   284   1      14.150499999999992      74.795500000000004      72.774000000000001
   285   1      14.150499999999992      76.816999999999993      58.623499999999993
   286   1      12.128999999999991      76.816999999999993      60.644999999999989
   287   1      12.128999999999991      78.838499999999996      62.666499999999992
   288   1      14.150499999999992      76.816999999999993      62.666499999999992
   289   1      14.150499999999992      78.838499999999996      60.644999999999989
   290   1      12.128999999999991      76.816999999999993      64.688000000000002
   291   1      12.128999999999991      78.838499999999996      66.709500000000006
   292   1      14.150499999999992      76.816999999999993      66.709500000000006
   293   1      14.150499999999992      78.838499999999996      64.688000000000002
   294   1      12.128999999999991      76.816999999999993      68.730999999999995
   295   1      14.150499999999992      76.816999999999993      70.752499999999998
   296   1      14.150499999999992      78.838499999999996      68.730999999999995
   297   1      14.150499999999992      80.859999999999999      62.666499999999992
   298   1      12.128999999999991      80.859999999999999      64.688000000000002
   299   1      14.150499999999992      80.859999999999999      66.709500000000006
   300   1      14.150499999999992      82.881500000000003      64.688000000000002
   301   1      18.193499999999993      42.451499999999996      64.688000000000002
   302   1      16.171999999999997      46.494500000000002      62.666499999999992
   303   1      18.193499999999993      44.472999999999999      62.666499999999992
   304   1      18.193499999999993      46.494500000000002      60.644999999999989
   305   1      16.171999999999997      44.472999999999999      64.688000000000002
   306   1      16.171999999999997      46.494500000000002      66.709500000000006
   307   1      18.193499999999993      44.472999999999999      66.709500000000006
   308   1      18.193499999999993      46.494500000000002      64.688000000000002
   309   1      18.193499999999993      46.494500000000002      68.730999999999995
   310   1      16.171999999999997      50.537500000000001      58.623499999999993
   311   1      18.193499999999993      48.515999999999998      58.623499999999993
   312   1      18.193499999999993      50.537500000000001       56.60199999999999
   313   1      16.171999999999997      48.515999999999998      60.644999999999989
   314   1      16.171999999999997      50.537500000000001      62.666499999999992
   315   1      18.193499999999993      48.515999999999998      62.666499999999992
   316   1      18.193499999999993      50.537500000000001      60.644999999999989
   317   1      16.171999999999997      48.515999999999998      64.688000000000002
   318   1      16.171999999999997      50.537500000000001      66.709500000000006
   319   1      18.193499999999993      48.515999999999998      66.709500000000006
   320   1      18.193499999999993      50.537500000000001      64.688000000000002
   321   1      16.171999999999997      48.515999999999998      68.730999999999995
   322   1      16.171999999999997      50.537500000000001      70.752499999999998
   323   1      18.193499999999993      48.515999999999998      70.752499999999998
   324   1      18.193499999999993      50.537500000000001      68.730999999999995
   325   1      18.193499999999993      50.537500000000001      72.774000000000001
   326   1      16.171999999999997      54.580499999999994      54.580499999999994
   327   1      18.193499999999993      52.558999999999997      54.580499999999994
   328   1      18.193499999999993      54.580499999999994      52.558999999999997
   329   1      16.171999999999997      52.558999999999997       56.60199999999999
   330   1      16.171999999999997      54.580499999999994      58.623499999999993
   331   1      18.193499999999993      52.558999999999997      58.623499999999993
   332   1      18.193499999999993      54.580499999999994       56.60199999999999
   333   1      16.171999999999997      52.558999999999997      60.644999999999989
   334   1      16.171999999999997      54.580499999999994      62.666499999999992
   335   1      18.193499999999993      52.558999999999997      62.666499999999992
   336   1      18.193499999999993      54.580499999999994      60.644999999999989
   337   1      16.171999999999997      52.558999999999997      64.688000000000002
   338   1      16.171999999999997      54.580499999999994      66.709500000000006
   339   1      18.193499999999993      52.558999999999997      66.709500000000006
   340   1      18.193499999999993      54.580499999999994      64.688000000000002
   341   1      16.171999999999997      52.558999999999997      68.730999999999995
   342   1      16.171999999999997      54.580499999999994      70.752499999999998
   343   1      18.193499999999993      52.558999999999997      70.752499999999998
   344   1      18.193499999999993      54.580499999999994      68.730999999999995
   345   1      16.171999999999997      52.558999999999997      72.774000000000001
   346   1      16.171999999999997      54.580499999999994      74.795500000000004
   347   1      18.193499999999993      52.558999999999997      74.795500000000004
   348   1      18.193499999999993      54.580499999999994      72.774000000000001
   349   1      18.193499999999993      54.580499999999994      76.816999999999993
   350   1      16.171999999999997      58.623499999999993      50.537500000000001
   351   1      18.193499999999993       56.60199999999999      50.537500000000001
   352   1      18.193499999999993      58.623499999999993      48.515999999999998
   353   1      16.171999999999997       56.60199999999999      52.558999999999997
   354   1      16.171999999999997      58.623499999999993      54.580499999999994
   355   1      18.193499999999993       56.60199999999999      54.580499999999994
   356   1      18.193499999999993      58.623499999999993      52.558999999999997
   357   1      16.171999999999997       56.60199999999999       56.60199999999999
   358   1      16.171999999999997      58.623499999999993      58.623499999999993