model_files/Pt/Pt_3000/Pt_320/data.Pt_320_fcc_3073 (written by ASE) 

3073 	 atoms 
1  atom types
0.0                      49  xlo xhi
0.0                      49  ylo yhi
0.0                      49  zlo zhi


Atoms 

     1   1  7.1054273576010011e-15      21.560000000000002      21.560000000000002
     2   1      1.9600000000000042      19.600000000000005      21.560000000000002
     3   1      1.9600000000000042      21.560000000000002      19.600000000000005
     4   1  7.1054273576010011e-15      21.560000000000002                   25.48
     5   1      1.9600000000000042      19.600000000000005                   25.48
     6   1      1.9600000000000042      21.560000000000002      23.520000000000003
     7   1      1.9600000000000042      21.560000000000002      27.440000000000001
     8   1  7.1054273576010011e-15                   25.48      21.560000000000002
     9   1      1.9600000000000042      23.520000000000003      21.560000000000002
    10   1      1.9600000000000042                   25.48      19.600000000000005
    11   1  7.1054273576010011e-15      23.520000000000003      23.520000000000003
    12   1  7.1054273576010011e-15                   25.48                   25.48
    13   1      1.9600000000000042      23.520000000000003                   25.48
    14   1      1.9600000000000042                   25.48      23.520000000000003
    15   1      1.9600000000000042                   25.48      27.440000000000001
    16   1      1.9600000000000042      27.440000000000001      21.560000000000002
    17   1      1.9600000000000042      27.440000000000001                   25.48
    18   1      5.8800000000000061      13.720000000000004      15.680000000000005
    19   1      5.8800000000000061      13.720000000000004      19.600000000000005
    20   1      5.8800000000000061      13.720000000000004      23.520000000000003
    21   1      5.8800000000000061      13.720000000000004      27.440000000000001
    22   1      5.8800000000000061      13.720000000000004      31.360000000000007
    23   1      5.8800000000000061      15.680000000000005      13.720000000000004
    24   1      3.9200000000000048      15.680000000000005      15.680000000000005
    25   1      3.9200000000000048      17.640000000000008      17.640000000000008
    26   1      5.8800000000000061      15.680000000000005      17.640000000000008
    27   1      5.8800000000000061      17.640000000000008      15.680000000000005
    28   1      3.9200000000000048      15.680000000000005      19.600000000000005
    29   1      3.9200000000000048      17.640000000000008      21.560000000000002
    30   1      5.8800000000000061      15.680000000000005      21.560000000000002
    31   1      5.8800000000000061      17.640000000000008      19.600000000000005
    32   1      3.9200000000000048      15.680000000000005      23.520000000000003
    33   1      3.9200000000000048      17.640000000000008                   25.48
    34   1      5.8800000000000061      15.680000000000005                   25.48
    35   1      5.8800000000000061      17.640000000000008      23.520000000000003
    36   1      3.9200000000000048      15.680000000000005      27.440000000000001
    37   1      3.9200000000000048      17.640000000000008      29.400000000000006
    38   1      5.8800000000000061      15.680000000000005      29.400000000000006
    39   1      5.8800000000000061      17.640000000000008      27.440000000000001
    40   1      3.9200000000000048      15.680000000000005      31.360000000000007
    41   1      5.8800000000000061      15.680000000000005                   33.32
    42   1      5.8800000000000061      17.640000000000008      31.360000000000007
    43   1      5.8800000000000061      19.600000000000005      13.720000000000004
    44   1      3.9200000000000048      19.600000000000005      15.680000000000005
    45   1      3.9200000000000048      21.560000000000002      17.640000000000008
    46   1      5.8800000000000061      19.600000000000005      17.640000000000008
    47   1      5.8800000000000061      21.560000000000002      15.680000000000005
    48   1      3.9200000000000048      19.600000000000005      19.600000000000005
    49   1      3.9200000000000048      21.560000000000002      21.560000000000002
    50   1      5.8800000000000061      19.600000000000005      21.560000000000002
    51   1      5.8800000000000061      21.560000000000002      19.600000000000005
    52   1      3.9200000000000048      19.600000000000005      23.520000000000003
    53   1      3.9200000000000048      21.560000000000002                   25.48
    54   1      5.8800000000000061      19.600000000000005                   25.48
    55   1      5.8800000000000061      21.560000000000002      23.520000000000003
    56   1      3.9200000000000048      19.600000000000005      27.440000000000001
    57   1      3.9200000000000048      21.560000000000002      29.400000000000006
    58   1      5.8800000000000061      19.600000000000005      29.400000000000006
    59   1      5.8800000000000061      21.560000000000002      27.440000000000001
    60   1      3.9200000000000048      19.600000000000005      31.360000000000007
    61   1      5.8800000000000061      19.600000000000005                   33.32
    62   1      5.8800000000000061      21.560000000000002      31.360000000000007
    63   1      5.8800000000000061      23.520000000000003      13.720000000000004
    64   1      3.9200000000000048      23.520000000000003      15.680000000000005
    65   1      3.9200000000000048                   25.48      17.640000000000008
    66   1      5.8800000000000061      23.520000000000003      17.640000000000008
    67   1      5.8800000000000061                   25.48      15.680000000000005
    68   1      3.9200000000000048      23.520000000000003      19.600000000000005
    69   1      3.9200000000000048                   25.48      21.560000000000002
    70   1      5.8800000000000061      23.520000000000003      21.560000000000002
    71   1      5.8800000000000061                   25.48      19.600000000000005
    72   1      3.9200000000000048      23.520000000000003      23.520000000000003
    73   1      3.9200000000000048                   25.48                   25.48
    74   1      5.8800000000000061      23.520000000000003                   25.48
    75   1      5.8800000000000061                   25.48      23.520000000000003
    76   1      3.9200000000000048      23.520000000000003      27.440000000000001
    77   1      3.9200000000000048                   25.48      29.400000000000006
    78   1      5.8800000000000061      23.520000000000003      29.400000000000006
    79   1      5.8800000000000061                   25.48      27.440000000000001
    80   1      3.9200000000000048      23.520000000000003      31.360000000000007
    81   1      5.8800000000000061      23.520000000000003                   33.32
    82   1      5.8800000000000061                   25.48      31.360000000000007
    83   1      5.8800000000000061      27.440000000000001      13.720000000000004
    84   1      3.9200000000000048      27.440000000000001      15.680000000000005
    85   1      3.9200000000000048      29.400000000000006      17.640000000000008
    86   1      5.8800000000000061      27.440000000000001      17.640000000000008
    87   1      5.8800000000000061      29.400000000000006      15.680000000000005
    88   1      3.9200000000000048      27.440000000000001      19.600000000000005
    89   1      3.9200000000000048      29.400000000000006      21.560000000000002
    90   1      5.8800000000000061      27.440000000000001      21.560000000000002
    91   1      5.8800000000000061      29.400000000000006      19.600000000000005
    92   1      3.9200000000000048      27.440000000000001      23.520000000000003
    93   1      3.9200000000000048      29.400000000000006                   25.48
    94   1      5.8800000000000061      27.440000000000001                   25.48
    95   1      5.8800000000000061      29.400000000000006      23.520000000000003
    96   1      3.9200000000000048      27.440000000000001      27.440000000000001
    97   1      3.9200000000000048      29.400000000000006      29.400000000000006
    98   1      5.8800000000000061      27.440000000000001      29.400000000000006
    99   1      5.8800000000000061      29.400000000000006      27.440000000000001
   100   1      3.9200000000000048      27.440000000000001      31.360000000000007
   101   1      5.8800000000000061      27.440000000000001                   33.32
   102   1      5.8800000000000061      29.400000000000006      31.360000000000007
   103   1      5.8800000000000061      31.360000000000007      13.720000000000004
   104   1      3.9200000000000048      31.360000000000007      15.680000000000005
   105   1      5.8800000000000061      31.360000000000007      17.640000000000008
   106   1      5.8800000000000061                   33.32      15.680000000000005
   107   1      3.9200000000000048      31.360000000000007      19.600000000000005
   108   1      5.8800000000000061      31.360000000000007      21.560000000000002
   109   1      5.8800000000000061                   33.32      19.600000000000005
   110   1      3.9200000000000048      31.360000000000007      23.520000000000003
   111   1      5.8800000000000061      31.360000000000007                   25.48
   112   1      5.8800000000000061                   33.32      23.520000000000003
   113   1      3.9200000000000048      31.360000000000007      27.440000000000001
   114   1      5.8800000000000061      31.360000000000007      29.400000000000006
   115   1      5.8800000000000061                   33.32      27.440000000000001
   116   1      3.9200000000000048      31.360000000000007      31.360000000000007
   117   1      5.8800000000000061      31.360000000000007                   33.32
   118   1      5.8800000000000061                   33.32      31.360000000000007
   119   1      7.8400000000000043      9.8000000000000025      9.8000000000000025
   120   1      9.8000000000000025      7.8400000000000043      9.8000000000000025
   121   1      9.8000000000000025      9.8000000000000025      7.8400000000000043
   122   1      7.8400000000000043      9.8000000000000025      13.720000000000004
   123   1      9.8000000000000025      7.8400000000000043      13.720000000000004
   124   1      9.8000000000000025      9.8000000000000025      11.760000000000003
   125   1      7.8400000000000043      9.8000000000000025      17.640000000000008
   126   1      9.8000000000000025      7.8400000000000043      17.640000000000008
   127   1      9.8000000000000025      9.8000000000000025      15.680000000000005
   128   1      7.8400000000000043      9.8000000000000025      21.560000000000002
   129   1      9.8000000000000025      7.8400000000000043      21.560000000000002
   130   1      9.8000000000000025      9.8000000000000025      19.600000000000005
   131   1      7.8400000000000043      9.8000000000000025                   25.48
   132   1      9.8000000000000025      7.8400000000000043                   25.48
   133   1      9.8000000000000025      9.8000000000000025      23.520000000000003
   134   1      7.8400000000000043      9.8000000000000025      29.400000000000006
   135   1      9.8000000000000025      7.8400000000000043      29.400000000000006
   136   1      9.8000000000000025      9.8000000000000025      27.440000000000001
   137   1      7.8400000000000043      9.8000000000000025                   33.32
   138   1      9.8000000000000025      7.8400000000000043                   33.32
   139   1      9.8000000000000025      9.8000000000000025      31.360000000000007
   140   1      7.8400000000000043      9.8000000000000025      37.240000000000009
   141   1      9.8000000000000025      7.8400000000000043      37.240000000000009
   142   1      9.8000000000000025      9.8000000000000025      35.280000000000001
   143   1      9.8000000000000025      9.8000000000000025      39.200000000000003
   144   1      7.8400000000000043      13.720000000000004      9.8000000000000025
   145   1      9.8000000000000025      11.760000000000003      9.8000000000000025
   146   1      9.8000000000000025      13.720000000000004      7.8400000000000043
   147   1      7.8400000000000043      11.760000000000003      11.760000000000003
   148   1      7.8400000000000043      13.720000000000004      13.720000000000004
   149   1      9.8000000000000025      11.760000000000003      13.720000000000004
   150   1      9.8000000000000025      13.720000000000004      11.760000000000003
   151   1      7.8400000000000043      11.760000000000003      15.680000000000005
   152   1      7.8400000000000043      13.720000000000004      17.640000000000008
   153   1      9.8000000000000025      11.760000000000003      17.640000000000008
   154   1      9.8000000000000025      13.720000000000004      15.680000000000005
   155   1      7.8400000000000043      11.760000000000003      19.600000000000005
   156   1      7.8400000000000043      13.720000000000004      21.560000000000002
   157   1      9.8000000000000025      11.760000000000003      21.560000000000002
   158   1      9.8000000000000025      13.720000000000004      19.600000000000005
   159   1      7.8400000000000043      11.760000000000003      23.520000000000003
   160   1      7.8400000000000043      13.720000000000004                   25.48
   161   1      9.8000000000000025      11.760000000000003                   25.48
   162   1      9.8000000000000025      13.720000000000004      23.520000000000003
   163   1      7.8400000000000043      11.760000000000003      27.440000000000001
   164   1      7.8400000000000043      13.720000000000004      29.400000000000006
   165   1      9.8000000000000025      11.760000000000003      29.400000000000006
   166   1      9.8000000000000025      13.720000000000004      27.440000000000001
   167   1      7.8400000000000043      11.760000000000003      31.360000000000007
   168   1      7.8400000000000043      13.720000000000004                   33.32
   169   1      9.8000000000000025      11.760000000000003                   33.32
   170   1      9.8000000000000025      13.720000000000004      31.360000000000007
   171   1      7.8400000000000043      11.760000000000003      35.280000000000001
   172   1      7.8400000000000043      13.720000000000004      37.240000000000009
   173   1      9.8000000000000025      11.760000000000003      37.240000000000009
   174   1      9.8000000000000025      13.720000000000004      35.280000000000001
   175   1      9.8000000000000025      13.720000000000004      39.200000000000003
   176   1      7.8400000000000043      17.640000000000008      9.8000000000000025
   177   1      9.8000000000000025      15.680000000000005      9.8000000000000025
   178   1      9.8000000000000025      17.640000000000008      7.8400000000000043
   179   1      7.8400000000000043      15.680000000000005      11.760000000000003
   180   1      7.8400000000000043      17.640000000000008      13.720000000000004
   181   1      9.8000000000000025      15.680000000000005      13.720000000000004
   182   1      9.8000000000000025      17.640000000000008      11.760000000000003
   183   1      7.8400000000000043      15.680000000000005      15.680000000000005
   184   1      7.8400000000000043      17.640000000000008      17.640000000000008
   185   1      9.8000000000000025      15.680000000000005      17.640000000000008
   186   1      9.8000000000000025      17.640000000000008      15.680000000000005
   187   1      7.8400000000000043      15.680000000000005      19.600000000000005
   188   1      7.8400000000000043      17.640000000000008      21.560000000000002
   189   1      9.8000000000000025      15.680000000000005      21.560000000000002
   190   1      9.8000000000000025      17.640000000000008      19.600000000000005
   191   1      7.8400000000000043      15.680000000000005      23.520000000000003
   192   1      7.8400000000000043      17.640000000000008                   25.48
   193   1      9.8000000000000025      15.680000000000005                   25.48
   194   1      9.8000000000000025      17.640000000000008      23.520000000000003
   195   1      7.8400000000000043      15.680000000000005      27.440000000000001
   196   1      7.8400000000000043      17.640000000000008      29.400000000000006
   197   1      9.8000000000000025      15.680000000000005      29.400000000000006
   198   1      9.8000000000000025      17.640000000000008      27.440000000000001
   199   1      7.8400000000000043      15.680000000000005      31.360000000000007
   200   1      7.8400000000000043      17.640000000000008                   33.32
   201   1      9.8000000000000025      15.680000000000005                   33.32
   202   1      9.8000000000000025      17.640000000000008      31.360000000000007
   203   1      7.8400000000000043      15.680000000000005      35.280000000000001
   204   1      7.8400000000000043      17.640000000000008      37.240000000000009
   205   1      9.8000000000000025      15.680000000000005      37.240000000000009
   206   1      9.8000000000000025      17.640000000000008      35.280000000000001
   207   1      9.8000000000000025      17.640000000000008      39.200000000000003
   208   1      7.8400000000000043      21.560000000000002      9.8000000000000025
   209   1      9.8000000000000025      19.600000000000005      9.8000000000000025
   210   1      9.8000000000000025      21.560000000000002      7.8400000000000043
   211   1      7.8400000000000043      19.600000000000005      11.760000000000003
   212   1      7.8400000000000043      21.560000000000002      13.720000000000004
   213   1      9.8000000000000025      19.600000000000005      13.720000000000004
   214   1      9.8000000000000025      21.560000000000002      11.760000000000003
   215   1      7.8400000000000043      19.600000000000005      15.680000000000005
   216   1      7.8400000000000043      21.560000000000002      17.640000000000008
   217   1      9.8000000000000025      19.600000000000005      17.640000000000008
   218   1      9.8000000000000025      21.560000000000002      15.680000000000005
   219   1      7.8400000000000043      19.600000000000005      19.600000000000005
   220   1      7.8400000000000043      21.560000000000002      21.560000000000002
   221   1      9.8000000000000025      19.600000000000005      21.560000000000002
   222   1      9.8000000000000025      21.560000000000002      19.600000000000005
   223   1      7.8400000000000043      19.600000000000005      23.520000000000003
   224   1      7.8400000000000043      21.560000000000002                   25.48
   225   1      9.8000000000000025      19.600000000000005                   25.48
   226   1      9.8000000000000025      21.560000000000002      23.520000000000003
   227   1      7.8400000000000043      19.600000000000005      27.440000000000001
   228   1      7.8400000000000043      21.560000000000002      29.400000000000006
   229   1      9.8000000000000025      19.600000000000005      29.400000000000006
   230   1      9.8000000000000025      21.560000000000002      27.440000000000001
   231   1      7.8400000000000043      19.600000000000005      31.360000000000007
   232   1      7.8400000000000043      21.560000000000002                   33.32
   233   1      9.8000000000000025      19.600000000000005                   33.32
   234   1      9.8000000000000025      21.560000000000002      31.360000000000007
   235   1      7.8400000000000043      19.600000000000005      35.280000000000001
   236   1      7.8400000000000043      21.560000000000002      37.240000000000009
   237   1      9.8000000000000025      19.600000000000005      37.240000000000009
   238   1      9.8000000000000025      21.560000000000002      35.280000000000001
   239   1      9.8000000000000025      21.560000000000002      39.200000000000003
   240   1      7.8400000000000043                   25.48      9.8000000000000025
   241   1      9.8000000000000025      23.520000000000003      9.8000000000000025
   242   1      9.8000000000000025                   25.48      7.8400000000000043
   243   1      7.8400000000000043      23.520000000000003      11.760000000000003
   244   1      7.8400000000000043                   25.48      13.720000000000004
   245   1      9.8000000000000025      23.520000000000003      13.720000000000004
   246   1      9.8000000000000025                   25.48      11.760000000000003
   247   1      7.8400000000000043      23.520000000000003      15.680000000000005
   248   1      7.8400000000000043                   25.48      17.640000000000008
   249   1      9.8000000000000025      23.520000000000003      17.640000000000008
   250   1      9.8000000000000025                   25.48      15.680000000000005
   251   1      7.8400000000000043      23.520000000000003      19.600000000000005
   252   1      7.8400000000000043                   25.48      21.560000000000002
   253   1      9.8000000000000025      23.520000000000003      21.560000000000002
   254   1      9.8000000000000025                   25.48      19.600000000000005
   255   1      7.8400000000000043      23.520000000000003      23.520000000000003
   256   1      7.8400000000000043                   25.48                   25.48
   257   1      9.8000000000000025      23.520000000000003                   25.48
   258   1      9.8000000000000025                   25.48      23.520000000000003
   259   1      7.8400000000000043      23.520000000000003      27.440000000000001
   260   1      7.8400000000000043                   25.48      29.400000000000006
   261   1      9.8000000000000025      23.520000000000003      29.400000000000006
   262   1      9.8000000000000025                   25.48      27.440000000000001
   263   1      7.8400000000000043      23.520000000000003      31.360000000000007
   264   1      7.8400000000000043                   25.48                   33.32
   265   1      9.8000000000000025      23.520000000000003                   33.32
   266   1      9.8000000000000025                   25.48      31.360000000000007
   267   1      7.8400000000000043      23.520000000000003      35.280000000000001
   268   1      7.8400000000000043                   25.48      37.240000000000009
   269   1      9.8000000000000025      23.520000000000003      37.240000000000009
   270   1      9.8000000000000025                   25.48      35.280000000000001
   271   1      9.8000000000000025                   25.48      39.200000000000003
   272   1      7.8400000000000043      29.400000000000006      9.8000000000000025
   273   1      9.8000000000000025      27.440000000000001      9.8000000000000025
   274   1      9.8000000000000025      29.400000000000006      7.8400000000000043
   275   1      7.8400000000000043      27.440000000000001      11.760000000000003
   276   1      7.8400000000000043      29.400000000000006      13.720000000000004
   277   1      9.8000000000000025      27.440000000000001      13.720000000000004
   278   1      9.8000000000000025      29.400000000000006      11.760000000000003
   279   1      7.8400000000000043      27.440000000000001      15.680000000000005
   280   1      7.8400000000000043      29.400000000000006      17.640000000000008
   281   1      9.8000000000000025      27.440000000000001      17.640000000000008
   282   1      9.8000000000000025      29.400000000000006      15.680000000000005
   283   1      7.8400000000000043      27.440000000000001      19.600000000000005
   284   1      7.8400000000000043      29.400000000000006      21.560000000000002
   285   1      9.8000000000000025      27.440000000000001      21.560000000000002
   286   1      9.8000000000000025      29.400000000000006      19.600000000000005
   287   1      7.8400000000000043      27.440000000000001      23.520000000000003
   288   1      7.8400000000000043      29.400000000000006                   25.48
   289   1      9.8000000000000025      27.440000000000001                   25.48
   290   1      9.8000000000000025      29.400000000000006      23.520000000000003
   291   1      7.8400000000000043      27.440000000000001      27.440000000000001
   292   1      7.8400000000000043      29.400000000000006      29.400000000000006
   293   1      9.8000000000000025      27.440000000000001      29.400000000000006
   294   1      9.8000000000000025      29.400000000000006      27.440000000000001
   295   1      7.8400000000000043      27.440000000000001      31.360000000000007
   296   1      7.8400000000000043      29.400000000000006                   33.32
   297   1      9.8000000000000025      27.440000000000001                   33.32
   298   1      9.8000000000000025      29.400000000000006      31.360000000000007
   299   1      7.8400000000000043      27.440000000000001      35.280000000000001
   300   1      7.8400000000000043      29.400000000000006      37.240000000000009
   301   1      9.8000000000000025      27.440000000000001      37.240000000000009
   302   1      9.8000000000000025      29.400000000000006      35.280000000000001
   303   1      9.8000000000000025      29.400000000000006      39.200000000000003
   304   1      7.8400000000000043                   33.32      9.8000000000000025
   305   1      9.8000000000000025      31.360000000000007      9.8000000000000025
   306   1      9.8000000000000025                   33.32      7.8400000000000043
   307   1      7.8400000000000043      31.360000000000007      11.760000000000003
   308   1      7.8400000000000043                   33.32      13.720000000000004
   309   1      9.8000000000000025      31.360000000000007      13.720000000000004
   310   1      9.8000000000000025                   33.32      11.760000000000003
   311   1      7.8400000000000043      31.360000000000007      15.680000000000005
   312   1      7.8400000000000043                   33.32      17.640000000000008
   313   1      9.8000000000000025      31.360000000000007      17.640000000000008
   314   1      9.8000000000000025                   33.32      15.680000000000005
   315   1      7.8400000000000043      31.360000000000007      19.600000000000005
   316   1      7.8400000000000043                   33.32      21.560000000000002
   317   1      9.8000000000000025      31.360000000000007      21.560000000000002
   318   1      9.8000000000000025                   33.32      19.600000000000005
   319   1      7.8400000000000043      31.360000000000007      23.520000000000003
   320   1      7.8400000000000043                   33.32                   25.48
   321   1      9.8000000000000025      31.360000000000007                   25.48
   322   1      9.8000000000000025                   33.32      23.520000000000003
   323   1      7.8400000000000043      31.360000000000007      27.440000000000001
   324   1      7.8400000000000043                   33.32      29.400000000000006
   325   1      9.8000000000000025      31.360000000000007      29.400000000000006
   326   1      9.8000000000000025                   33.32      27.440000000000001
   327   1      7.8400000000000043      31.360000000000007      31.360000000000007
   328   1      7.8400000000000043                   33.32                   33.32
   329   1      9.8000000000000025      31.360000000000007                   33.32
   330   1      9.8000000000000025                   33.32      31.360000000000007
   331   1      7.8400000000000043      31.360000000000007      35.280000000000001
   332   1      7.8400000000000043                   33.32      37.240000000000009
   333   1      9.8000000000000025      31.360000000000007      37.240000000000009
   334   1      9.8000000000000025                   33.32      35.280000000000001
   335   1      9.8000000000000025                   33.32      39.200000000000003
   336   1      7.8400000000000043      37.240000000000009      9.8000000000000025
   337   1      9.8000000000000025      35.280000000000001      9.8000000000000025
   338   1      9.8000000000000025      37.240000000000009      7.8400000000000043
   339   1      7.8400000000000043      35.280000000000001      11.760000000000003
   340   1      7.8400000000000043      37.240000000000009      13.720000000000004
   341   1      9.8000000000000025      35.280000000000001      13.720000000000004
   342   1      9.8000000000000025      37.240000000000009      11.760000000000003
   343   1      7.8400000000000043      35.280000000000001      15.680000000000005
   344   1      7.8400000000000043      37.240000000000009      17.640000000000008
   345   1      9.8000000000000025      35.280000000000001      17.640000000000008
   346   1      9.8000000000000025      37.240000000000009      15.680000000000005
   347   1      7.8400000000000043      35.280000000000001      19.600000000000005
   348   1      7.8400000000000043      37.240000000000009      21.560000000000002
   349   1      9.8000000000000025      35.280000000000001      21.560000000000002
   350   1      9.8000000000000025      37.240000000000009      19.600000000000005
   351   1      7.8400000000000043      35.280000000000001      23.520000000000003
   352   1      7.8400000000000043      37.240000000000009                   25.48
   353   1      9.8000000000000025      35.280000000000001                   25.48
   354   1      9.8000000000000025      37.240000000000009      23.520000000000003
   355   1      7.8400000000000043      35.280000000000001      27.440000000000001
   356   1      7.8400000000000043      37.240000000000009      29.400000000000006
   357   1      9.8000000000000025      35.280000000000001      29.400000000000006
   358   1      9.8000000000000025      37.240000000000009      27.440000000000001