model_files/CuFeNi/CuFeNi_30000/CuFeNi_211/CuFeNi_211_fcc_30069_temp.data (written by ASE) 

30069 	 atoms 
3  atom types
0.0                     106  xlo xhi
0.0                     106  ylo yhi
0.0                     106  zlo zhi


Atoms 

     1   1      1.8999999999999986       51.29999999999999      53.199999999999989
     2   1      1.8999999999999986      53.199999999999989       51.29999999999999
     3   1                       0      53.199999999999989      53.199999999999989
     4   1      1.8999999999999986      53.199999999999989      55.099999999999994
     5   1      1.8999999999999986      55.099999999999994      53.199999999999989
     6   1      5.7000000000000028      43.699999999999996      53.199999999999989
     7   1      3.8000000000000043      47.499999999999993       51.29999999999999
     8   1      5.7000000000000028      45.599999999999987       51.29999999999999
     9   1      5.7000000000000028      47.499999999999993      49.399999999999991
    10   1      3.8000000000000043      45.599999999999987      53.199999999999989
    11   1      3.8000000000000043      47.499999999999993      55.099999999999994
    12   1      5.7000000000000028      45.599999999999987      55.099999999999994
    13   1      5.7000000000000028      47.499999999999993      53.199999999999989
    14   1      5.7000000000000028      47.499999999999993      56.999999999999986
    15   1      3.8000000000000043       51.29999999999999      47.499999999999993
    16   1      5.7000000000000028      49.399999999999991      47.499999999999993
    17   1      5.7000000000000028       51.29999999999999      45.599999999999987
    18   1      3.8000000000000043      49.399999999999991      49.399999999999991
    19   1      3.8000000000000043       51.29999999999999       51.29999999999999
    20   1      5.7000000000000028      49.399999999999991       51.29999999999999
    21   1      5.7000000000000028       51.29999999999999      49.399999999999991
    22   1      3.8000000000000043      49.399999999999991      53.199999999999989
    23   1      3.8000000000000043       51.29999999999999      55.099999999999994
    24   1      5.7000000000000028      49.399999999999991      55.099999999999994
    25   1      5.7000000000000028       51.29999999999999      53.199999999999989
    26   1      3.8000000000000043      49.399999999999991      56.999999999999986
    27   1      3.8000000000000043       51.29999999999999      58.899999999999991
    28   1      5.7000000000000028      49.399999999999991      58.899999999999991
    29   1      5.7000000000000028       51.29999999999999      56.999999999999986
    30   1      5.7000000000000028       51.29999999999999      60.799999999999997
    31   1      5.7000000000000028      53.199999999999989      43.699999999999996
    32   1      3.8000000000000043      53.199999999999989      45.599999999999987
    33   1      3.8000000000000043      55.099999999999994      47.499999999999993
    34   1      5.7000000000000028      53.199999999999989      47.499999999999993
    35   1      5.7000000000000028      55.099999999999994      45.599999999999987
    36   1      3.8000000000000043      53.199999999999989      49.399999999999991
    37   1      3.8000000000000043      55.099999999999994       51.29999999999999
    38   1      5.7000000000000028      53.199999999999989       51.29999999999999
    39   1      5.7000000000000028      55.099999999999994      49.399999999999991
    40   1      3.8000000000000043      53.199999999999989      53.199999999999989
    41   1      3.8000000000000043      55.099999999999994      55.099999999999994
    42   1      5.7000000000000028      53.199999999999989      55.099999999999994
    43   1      5.7000000000000028      55.099999999999994      53.199999999999989
    44   1      3.8000000000000043      53.199999999999989      56.999999999999986
    45   1      3.8000000000000043      55.099999999999994      58.899999999999991
    46   1      5.7000000000000028      53.199999999999989      58.899999999999991
    47   1      5.7000000000000028      55.099999999999994      56.999999999999986
    48   1      3.8000000000000043      53.199999999999989      60.799999999999997
    49   1      5.7000000000000028      53.199999999999989      62.700000000000003
    50   1      5.7000000000000028      55.099999999999994      60.799999999999997
    51   1      5.7000000000000028      56.999999999999986      47.499999999999993
    52   1      3.8000000000000043      56.999999999999986      49.399999999999991
    53   1      3.8000000000000043      58.899999999999991       51.29999999999999
    54   1      5.7000000000000028      56.999999999999986       51.29999999999999
    55   1      5.7000000000000028      58.899999999999991      49.399999999999991
    56   1      3.8000000000000043      56.999999999999986      53.199999999999989
    57   1      3.8000000000000043      58.899999999999991      55.099999999999994
    58   1      5.7000000000000028      56.999999999999986      55.099999999999994
    59   1      5.7000000000000028      58.899999999999991      53.199999999999989
    60   1      3.8000000000000043      56.999999999999986      56.999999999999986
    61   1      5.7000000000000028      56.999999999999986      58.899999999999991
    62   1      5.7000000000000028      58.899999999999991      56.999999999999986
    63   1      5.7000000000000028      60.799999999999997       51.29999999999999
    64   1      3.8000000000000043      60.799999999999997      53.199999999999989
    65   1      5.7000000000000028      60.799999999999997      55.099999999999994
    66   1      5.7000000000000028      62.700000000000003      53.199999999999989
    67   1                     9.5      36.099999999999994      53.199999999999989
    68   1      7.6000000000000014      39.899999999999991       51.29999999999999
    69   1                     9.5      37.999999999999993       51.29999999999999
    70   1                     9.5      39.899999999999991      49.399999999999991
    71   1      7.6000000000000014      37.999999999999993      53.199999999999989
    72   1      7.6000000000000014      39.899999999999991      55.099999999999994
    73   1                     9.5      37.999999999999993      55.099999999999994
    74   1                     9.5      39.899999999999991      53.199999999999989
    75   1                     9.5      39.899999999999991      56.999999999999986
    76   1      7.6000000000000014      43.699999999999996      47.499999999999993
    77   1                     9.5      41.799999999999997      47.499999999999993
    78   1                     9.5      43.699999999999996      45.599999999999987
    79   1      7.6000000000000014      41.799999999999997      49.399999999999991
    80   1      7.6000000000000014      43.699999999999996       51.29999999999999
    81   1                     9.5      41.799999999999997       51.29999999999999
    82   1                     9.5      43.699999999999996      49.399999999999991
    83   1      7.6000000000000014      41.799999999999997      53.199999999999989
    84   1      7.6000000000000014      43.699999999999996      55.099999999999994
    85   1                     9.5      41.799999999999997      55.099999999999994
    86   1                     9.5      43.699999999999996      53.199999999999989
    87   1      7.6000000000000014      41.799999999999997      56.999999999999986
    88   1      7.6000000000000014      43.699999999999996      58.899999999999991
    89   1                     9.5      41.799999999999997      58.899999999999991
    90   1                     9.5      43.699999999999996      56.999999999999986
    91   1                     9.5      43.699999999999996      60.799999999999997
    92   1      7.6000000000000014      47.499999999999993      43.699999999999996
    93   1                     9.5      45.599999999999987      43.699999999999996
    94   1                     9.5      47.499999999999993      41.799999999999997
    95   1      7.6000000000000014      45.599999999999987      45.599999999999987
    96   1      7.6000000000000014      47.499999999999993      47.499999999999993
    97   1                     9.5      45.599999999999987      47.499999999999993
    98   1                     9.5      47.499999999999993      45.599999999999987
    99   1      7.6000000000000014      45.599999999999987      49.399999999999991
   100   1      7.6000000000000014      47.499999999999993       51.29999999999999
   101   1                     9.5      45.599999999999987       51.29999999999999
   102   1                     9.5      47.499999999999993      49.399999999999991
   103   1      7.6000000000000014      45.599999999999987      53.199999999999989
   104   1      7.6000000000000014      47.499999999999993      55.099999999999994
   105   1                     9.5      45.599999999999987      55.099999999999994
   106   1                     9.5      47.499999999999993      53.199999999999989
   107   1      7.6000000000000014      45.599999999999987      56.999999999999986
   108   1      7.6000000000000014      47.499999999999993      58.899999999999991
   109   1                     9.5      45.599999999999987      58.899999999999991
   110   1                     9.5      47.499999999999993      56.999999999999986
   111   1      7.6000000000000014      45.599999999999987      60.799999999999997
   112   1      7.6000000000000014      47.499999999999993      62.700000000000003
   113   1                     9.5      45.599999999999987      62.700000000000003
   114   1                     9.5      47.499999999999993      60.799999999999997
   115   1                     9.5      47.499999999999993      64.599999999999994
   116   1      7.6000000000000014       51.29999999999999      39.899999999999991
   117   1                     9.5      49.399999999999991      39.899999999999991
   118   1                     9.5       51.29999999999999      37.999999999999993
   119   1      7.6000000000000014      49.399999999999991      41.799999999999997
   120   1      7.6000000000000014       51.29999999999999      43.699999999999996
   121   1                     9.5      49.399999999999991      43.699999999999996
   122   1                     9.5       51.29999999999999      41.799999999999997
   123   1      7.6000000000000014      49.399999999999991      45.599999999999987
   124   1      7.6000000000000014       51.29999999999999      47.499999999999993
   125   1                     9.5      49.399999999999991      47.499999999999993
   126   1                     9.5       51.29999999999999      45.599999999999987
   127   1      7.6000000000000014      49.399999999999991      49.399999999999991
   128   1      7.6000000000000014       51.29999999999999       51.29999999999999
   129   1                     9.5      49.399999999999991       51.29999999999999
   130   1                     9.5       51.29999999999999      49.399999999999991
   131   1      7.6000000000000014      49.399999999999991      53.199999999999989
   132   1      7.6000000000000014       51.29999999999999      55.099999999999994
   133   1                     9.5      49.399999999999991      55.099999999999994
   134   1                     9.5       51.29999999999999      53.199999999999989
   135   1      7.6000000000000014      49.399999999999991      56.999999999999986
   136   1      7.6000000000000014       51.29999999999999      58.899999999999991
   137   1                     9.5      49.399999999999991      58.899999999999991
   138   1                     9.5       51.29999999999999      56.999999999999986
   139   1      7.6000000000000014      49.399999999999991      60.799999999999997
   140   1      7.6000000000000014       51.29999999999999      62.700000000000003
   141   1                     9.5      49.399999999999991      62.700000000000003
   142   1                     9.5       51.29999999999999      60.799999999999997
   143   1      7.6000000000000014      49.399999999999991      64.599999999999994
   144   1      7.6000000000000014       51.29999999999999                    66.5
   145   1                     9.5      49.399999999999991                    66.5
   146   1                     9.5       51.29999999999999      64.599999999999994
   147   1                     9.5       51.29999999999999      68.399999999999991
   148   1                     9.5      53.199999999999989      36.099999999999994
   149   1      7.6000000000000014      53.199999999999989      37.999999999999993
   150   1      7.6000000000000014      55.099999999999994      39.899999999999991
   151   1                     9.5      53.199999999999989      39.899999999999991
   152   1                     9.5      55.099999999999994      37.999999999999993
   153   1      7.6000000000000014      53.199999999999989      41.799999999999997
   154   1      7.6000000000000014      55.099999999999994      43.699999999999996
   155   1                     9.5      53.199999999999989      43.699999999999996
   156   1                     9.5      55.099999999999994      41.799999999999997
   157   1      7.6000000000000014      53.199999999999989      45.599999999999987
   158   1      7.6000000000000014      55.099999999999994      47.499999999999993
   159   1                     9.5      53.199999999999989      47.499999999999993
   160   1                     9.5      55.099999999999994      45.599999999999987
   161   1      7.6000000000000014      53.199999999999989      49.399999999999991
   162   1      7.6000000000000014      55.099999999999994       51.29999999999999
   163   1                     9.5      53.199999999999989       51.29999999999999
   164   1                     9.5      55.099999999999994      49.399999999999991
   165   1      7.6000000000000014      53.199999999999989      53.199999999999989
   166   1      7.6000000000000014      55.099999999999994      55.099999999999994
   167   1                     9.5      53.199999999999989      55.099999999999994
   168   1                     9.5      55.099999999999994      53.199999999999989
   169   1      7.6000000000000014      53.199999999999989      56.999999999999986
   170   1      7.6000000000000014      55.099999999999994      58.899999999999991
   171   1                     9.5      53.199999999999989      58.899999999999991
   172   1                     9.5      55.099999999999994      56.999999999999986
   173   1      7.6000000000000014      53.199999999999989      60.799999999999997
   174   1      7.6000000000000014      55.099999999999994      62.700000000000003
   175   1                     9.5      53.199999999999989      62.700000000000003
   176   1                     9.5      55.099999999999994      60.799999999999997
   177   1      7.6000000000000014      53.199999999999989      64.599999999999994
   178   1      7.6000000000000014      55.099999999999994                    66.5
   179   1                     9.5      53.199999999999989                    66.5
   180   1                     9.5      55.099999999999994      64.599999999999994
   181   1      7.6000000000000014      53.199999999999989      68.399999999999991
   182   1                     9.5      53.199999999999989      70.299999999999997
   183   1                     9.5      55.099999999999994      68.399999999999991
   184   1                     9.5      56.999999999999986      39.899999999999991
   185   1      7.6000000000000014      56.999999999999986      41.799999999999997
   186   1      7.6000000000000014      58.899999999999991      43.699999999999996
   187   1                     9.5      56.999999999999986      43.699999999999996
   188   1                     9.5      58.899999999999991      41.799999999999997
   189   1      7.6000000000000014      56.999999999999986      45.599999999999987
   190   1      7.6000000000000014      58.899999999999991      47.499999999999993
   191   1                     9.5      56.999999999999986      47.499999999999993
   192   1                     9.5      58.899999999999991      45.599999999999987
   193   1      7.6000000000000014      56.999999999999986      49.399999999999991
   194   1      7.6000000000000014      58.899999999999991       51.29999999999999
   195   1                     9.5      56.999999999999986       51.29999999999999
   196   1                     9.5      58.899999999999991      49.399999999999991
   197   1      7.6000000000000014      56.999999999999986      53.199999999999989
   198   1      7.6000000000000014      58.899999999999991      55.099999999999994
   199   1                     9.5      56.999999999999986      55.099999999999994
   200   1                     9.5      58.899999999999991      53.199999999999989
   201   1      7.6000000000000014      56.999999999999986      56.999999999999986
   202   1      7.6000000000000014      58.899999999999991      58.899999999999991
   203   1                     9.5      56.999999999999986      58.899999999999991
   204   1                     9.5      58.899999999999991      56.999999999999986
   205   1      7.6000000000000014      56.999999999999986      60.799999999999997
   206   1      7.6000000000000014      58.899999999999991      62.700000000000003
   207   1                     9.5      56.999999999999986      62.700000000000003
   208   1                     9.5      58.899999999999991      60.799999999999997
   209   1      7.6000000000000014      56.999999999999986      64.599999999999994
   210   1                     9.5      56.999999999999986                    66.5
   211   1                     9.5      58.899999999999991      64.599999999999994
   212   1                     9.5      60.799999999999997      43.699999999999996
   213   1      7.6000000000000014      60.799999999999997      45.599999999999987
   214   1      7.6000000000000014      62.700000000000003      47.499999999999993
   215   1                     9.5      60.799999999999997      47.499999999999993
   216   1                     9.5      62.700000000000003      45.599999999999987
   217   1      7.6000000000000014      60.799999999999997      49.399999999999991
   218   1      7.6000000000000014      62.700000000000003       51.29999999999999
   219   1                     9.5      60.799999999999997       51.29999999999999
   220   1                     9.5      62.700000000000003      49.399999999999991
   221   1      7.6000000000000014      60.799999999999997      53.199999999999989
   222   1      7.6000000000000014      62.700000000000003      55.099999999999994
   223   1                     9.5      60.799999999999997      55.099999999999994
   224   1                     9.5      62.700000000000003      53.199999999999989
   225   1      7.6000000000000014      60.799999999999997      56.999999999999986
   226   1      7.6000000000000014      62.700000000000003      58.899999999999991
   227   1                     9.5      60.799999999999997      58.899999999999991
   228   1                     9.5      62.700000000000003      56.999999999999986
   229   1      7.6000000000000014      60.799999999999997      60.799999999999997
   230   1                     9.5      60.799999999999997      62.700000000000003
   231   1                     9.5      62.700000000000003      60.799999999999997
   232   1                     9.5      64.599999999999994      47.499999999999993
   233   1      7.6000000000000014      64.599999999999994      49.399999999999991
   234   1      7.6000000000000014                    66.5       51.29999999999999
   235   1                     9.5      64.599999999999994       51.29999999999999
   236   1                     9.5                    66.5      49.399999999999991
   237   1      7.6000000000000014      64.599999999999994      53.199999999999989
   238   1      7.6000000000000014                    66.5      55.099999999999994
   239   1                     9.5      64.599999999999994      55.099999999999994
   240   1                     9.5                    66.5      53.199999999999989
   241   1      7.6000000000000014      64.599999999999994      56.999999999999986
   242   1                     9.5      64.599999999999994      58.899999999999991
   243   1                     9.5                    66.5      56.999999999999986
   244   1                     9.5      68.399999999999991       51.29999999999999
   245   1      7.6000000000000014      68.399999999999991      53.199999999999989
   246   1                     9.5      68.399999999999991      55.099999999999994
   247   1                     9.5      70.299999999999997      53.199999999999989
   248   1      13.300000000000002                    28.5      53.199999999999989
   249   1      11.399999999999997      32.299999999999997       51.29999999999999
   250   1      13.300000000000002      30.399999999999999       51.29999999999999
   251   1      13.300000000000002      32.299999999999997      49.399999999999991
   252   1      11.399999999999997      30.399999999999999      53.199999999999989
   253   1      11.399999999999997      32.299999999999997      55.099999999999994
   254   1      13.300000000000002      30.399999999999999      55.099999999999994
   255   1      13.300000000000002      32.299999999999997      53.199999999999989
   256   1      13.300000000000002      32.299999999999997      56.999999999999986
   257   1      11.399999999999997      36.099999999999994      47.499999999999993
   258   1      13.300000000000002      34.199999999999996      47.499999999999993
   259   1      13.300000000000002      36.099999999999994      45.599999999999987
   260   1      11.399999999999997      34.199999999999996      49.399999999999991
   261   1      11.399999999999997      36.099999999999994       51.29999999999999
   262   1      13.300000000000002      34.199999999999996       51.29999999999999
   263   1      13.300000000000002      36.099999999999994      49.399999999999991
   264   1      11.399999999999997      34.199999999999996      53.199999999999989
   265   1      11.399999999999997      36.099999999999994      55.099999999999994
   266   1      13.300000000000002      34.199999999999996      55.099999999999994
   267   1      13.300000000000002      36.099999999999994      53.199999999999989
   268   1      11.399999999999997      34.199999999999996      56.999999999999986
   269   1      11.399999999999997      36.099999999999994      58.899999999999991
   270   1      13.300000000000002      34.199999999999996      58.899999999999991
   271   1      13.300000000000002      36.099999999999994      56.999999999999986
   272   1      13.300000000000002      36.099999999999994      60.799999999999997
   273   1      11.399999999999997      39.899999999999991      43.699999999999996
   274   1      13.300000000000002      37.999999999999993      43.699999999999996
   275   1      13.300000000000002      39.899999999999991      41.799999999999997
   276   1      11.399999999999997      37.999999999999993      45.599999999999987
   277   1      11.399999999999997      39.899999999999991      47.499999999999993
   278   1      13.300000000000002      37.999999999999993      47.499999999999993
   279   1      13.300000000000002      39.899999999999991      45.599999999999987
   280   1      11.399999999999997      37.999999999999993      49.399999999999991
   281   1      11.399999999999997      39.899999999999991       51.29999999999999
   282   1      13.300000000000002      37.999999999999993       51.29999999999999
   283   1      13.300000000000002      39.899999999999991      49.399999999999991
   284   1      11.399999999999997      37.999999999999993      53.199999999999989
   285   1      11.399999999999997      39.899999999999991      55.099999999999994
   286   1      13.300000000000002      37.999999999999993      55.099999999999994
   287   1      13.300000000000002      39.899999999999991      53.199999999999989
   288   1      11.399999999999997      37.999999999999993      56.999999999999986
   289   1      11.399999999999997      39.899999999999991      58.899999999999991
   290   1      13.300000000000002      37.999999999999993      58.899999999999991
   291   1      13.300000000000002      39.899999999999991      56.999999999999986
   292   1      11.399999999999997      37.999999999999993      60.799999999999997
   293   1      11.399999999999997      39.899999999999991      62.700000000000003
   294   1      13.300000000000002      37.999999999999993      62.700000000000003
   295   1      13.300000000000002      39.899999999999991      60.799999999999997
   296   1      13.300000000000002      39.899999999999991      64.599999999999994
   297   1      11.399999999999997      43.699999999999996      39.899999999999991
   298   1      13.300000000000002      41.799999999999997      39.899999999999991
   299   1      13.300000000000002      43.699999999999996      37.999999999999993
   300   1      11.399999999999997      41.799999999999997      41.799999999999997
   301   1      11.399999999999997      43.699999999999996      43.699999999999996
   302   1      13.300000000000002      41.799999999999997      43.699999999999996
   303   1      13.300000000000002      43.699999999999996      41.799999999999997
   304   1      11.399999999999997      41.799999999999997      45.599999999999987
   305   1      11.399999999999997      43.699999999999996      47.499999999999993
   306   1      13.300000000000002      41.799999999999997      47.499999999999993
   307   1      13.300000000000002      43.699999999999996      45.599999999999987
   308   1      11.399999999999997      41.799999999999997      49.399999999999991
   309   1      11.399999999999997      43.699999999999996       51.29999999999999
   310   1      13.300000000000002      41.799999999999997       51.29999999999999
   311   1      13.300000000000002      43.699999999999996      49.399999999999991
   312   1      11.399999999999997      41.799999999999997      53.199999999999989
   313   1      11.399999999999997      43.699999999999996      55.099999999999994
   314   1      13.300000000000002      41.799999999999997      55.099999999999994
   315   1      13.300000000000002      43.699999999999996      53.199999999999989
   316   1      11.399999999999997      41.799999999999997      56.999999999999986
   317   1      11.399999999999997      43.699999999999996      58.899999999999991
   318   1      13.300000000000002      41.799999999999997      58.899999999999991
   319   1      13.300000000000002      43.699999999999996      56.999999999999986
   320   1      11.399999999999997      41.799999999999997      60.799999999999997
   321   1      11.399999999999997      43.699999999999996      62.700000000000003
   322   1      13.300000000000002      41.799999999999997      62.700000000000003
   323   1      13.300000000000002      43.699999999999996      60.799999999999997
   324   1      11.399999999999997      41.799999999999997      64.599999999999994
   325   1      11.399999999999997      43.699999999999996                    66.5
   326   1      13.300000000000002      41.799999999999997                    66.5
   327   1      13.300000000000002      43.699999999999996      64.599999999999994
   328   1      13.300000000000002      43.699999999999996      68.399999999999991
   329   1      11.399999999999997      47.499999999999993      36.099999999999994
   330   1      13.300000000000002      45.599999999999987      36.099999999999994
   331   1      13.300000000000002      47.499999999999993      34.199999999999996
   332   1      11.399999999999997      45.599999999999987      37.999999999999993
   333   1      11.399999999999997      47.499999999999993      39.899999999999991
   334   1      13.300000000000002      45.599999999999987      39.899999999999991
   335   1      13.300000000000002      47.499999999999993      37.999999999999993
   336   1      11.399999999999997      45.599999999999987      41.799999999999997
   337   1      11.399999999999997      47.499999999999993      43.699999999999996
   338   1      13.300000000000002      45.599999999999987      43.699999999999996
   339   1      13.300000000000002      47.499999999999993      41.799999999999997
   340   1      11.399999999999997      45.599999999999987      45.599999999999987
   341   1      11.399999999999997      47.499999999999993      47.499999999999993
   342   1      13.300000000000002      45.599999999999987      47.499999999999993
   343   1      13.300000000000002      47.499999999999993      45.599999999999987
   344   1      11.399999999999997      45.599999999999987      49.399999999999991
   345   1      11.399999999999997      47.499999999999993       51.29999999999999
   346   1      13.300000000000002      45.599999999999987       51.29999999999999
   347   1      13.300000000000002      47.499999999999993      49.399999999999991
   348   1      11.399999999999997      45.599999999999987      53.199999999999989
   349   1      11.399999999999997      47.499999999999993      55.099999999999994
   350   1      13.300000000000002      45.599999999999987      55.099999999999994
   351   1      13.300000000000002      47.499999999999993      53.199999999999989
   352   1      11.399999999999997      45.599999999999987      56.999999999999986
   353   1      11.399999999999997      47.499999999999993      58.899999999999991
   354   1      13.300000000000002      45.599999999999987      58.899999999999991
   355   1      13.300000000000002      47.499999999999993      56.999999999999986
   356   1      11.399999999999997      45.599999999999987      60.799999999999997
   357   1      11.399999999999997      47.499999999999993      62.700000000000003
   358   1      13.300000000000002      45.599999999999987      62.700000000000003