model_files/PtCo/PtCo_30000/PtCo_332/PtCo_332_fcc_30163_temp.data (written by ASE) 

30163 	 atoms 
2  atom types
0.0                     124  xlo xhi
0.0                     124  ylo yhi
0.0                     124  zlo zhi


Atoms 

     1   1      1.8249999999999957      60.224999999999987      62.049999999999997
     2   1      1.8249999999999957      62.049999999999997      60.224999999999987
     3   1      123.99999999999999      62.049999999999997      62.049999999999997
     4   1      1.8249999999999957      62.049999999999997                  63.875
     5   1      1.8249999999999957                  63.875      62.049999999999997
     6   1      5.4749999999999934      56.574999999999989      62.049999999999997
     7   1      3.6499999999999915      60.224999999999987      60.224999999999987
     8   1      5.4749999999999934      58.399999999999991      60.224999999999987
     9   1      5.4749999999999934      60.224999999999987      58.399999999999991
    10   1      3.6499999999999915      58.399999999999991      62.049999999999997
    11   1      3.6499999999999915      60.224999999999987                  63.875
    12   1      5.4749999999999934      58.399999999999991                  63.875
    13   1      5.4749999999999934      60.224999999999987      62.049999999999997
    14   1      5.4749999999999934      60.224999999999987      65.699999999999974
    15   1      5.4749999999999934      62.049999999999997      56.574999999999989
    16   1      3.6499999999999915      62.049999999999997      58.399999999999991
    17   1      3.6499999999999915                  63.875      60.224999999999987
    18   1      5.4749999999999934      62.049999999999997      60.224999999999987
    19   1      5.4749999999999934                  63.875      58.399999999999991
    20   1      3.6499999999999915      62.049999999999997      62.049999999999997
    21   1      3.6499999999999915                  63.875                  63.875
    22   1      5.4749999999999934      62.049999999999997                  63.875
    23   1      5.4749999999999934                  63.875      62.049999999999997
    24   1      3.6499999999999915      62.049999999999997      65.699999999999974
    25   1      5.4749999999999934      62.049999999999997      67.524999999999991
    26   1      5.4749999999999934                  63.875      65.699999999999974
    27   1      5.4749999999999934      65.699999999999974      60.224999999999987
    28   1      3.6499999999999915      65.699999999999974      62.049999999999997
    29   1      5.4749999999999934      65.699999999999974                  63.875
    30   1      5.4749999999999934      67.524999999999991      62.049999999999997
    31   1      9.1249999999999911      52.924999999999997      62.049999999999997
    32   1      7.2999999999999972      56.574999999999989      60.224999999999987
    33   1      9.1249999999999911      54.749999999999993      60.224999999999987
    34   1      9.1249999999999911      56.574999999999989      58.399999999999991
    35   1      7.2999999999999972      54.749999999999993      62.049999999999997
    36   1      7.2999999999999972      56.574999999999989                  63.875
    37   1      9.1249999999999911      54.749999999999993                  63.875
    38   1      9.1249999999999911      56.574999999999989      62.049999999999997
    39   1      9.1249999999999911      56.574999999999989      65.699999999999974
    40   1      7.2999999999999972      60.224999999999987      56.574999999999989
    41   1      9.1249999999999911      58.399999999999991      56.574999999999989
    42   1      9.1249999999999911      60.224999999999987      54.749999999999993
    43   1      7.2999999999999972      58.399999999999991      58.399999999999991
    44   1      7.2999999999999972      60.224999999999987      60.224999999999987
    45   1      9.1249999999999911      58.399999999999991      60.224999999999987
    46   1      9.1249999999999911      60.224999999999987      58.399999999999991
    47   1      7.2999999999999972      58.399999999999991      62.049999999999997
    48   1      7.2999999999999972      60.224999999999987                  63.875
    49   1      9.1249999999999911      58.399999999999991                  63.875
    50   1      9.1249999999999911      60.224999999999987      62.049999999999997
    51   1      7.2999999999999972      58.399999999999991      65.699999999999974
    52   1      7.2999999999999972      60.224999999999987      67.524999999999991
    53   1      9.1249999999999911      58.399999999999991      67.524999999999991
    54   1      9.1249999999999911      60.224999999999987      65.699999999999974
    55   1      9.1249999999999911      60.224999999999987      69.349999999999994
    56   1      9.1249999999999911      62.049999999999997      52.924999999999997
    57   1      7.2999999999999972      62.049999999999997      54.749999999999993
    58   1      7.2999999999999972                  63.875      56.574999999999989
    59   1      9.1249999999999911      62.049999999999997      56.574999999999989
    60   1      9.1249999999999911                  63.875      54.749999999999993
    61   1      7.2999999999999972      62.049999999999997      58.399999999999991
    62   1      7.2999999999999972                  63.875      60.224999999999987
    63   1      9.1249999999999911      62.049999999999997      60.224999999999987
    64   1      9.1249999999999911                  63.875      58.399999999999991
    65   1      7.2999999999999972      62.049999999999997      62.049999999999997
    66   1      7.2999999999999972                  63.875                  63.875
    67   1      9.1249999999999911      62.049999999999997                  63.875
    68   1      9.1249999999999911                  63.875      62.049999999999997
    69   1      7.2999999999999972      62.049999999999997      65.699999999999974
    70   1      7.2999999999999972                  63.875      67.524999999999991
    71   1      9.1249999999999911      62.049999999999997      67.524999999999991
    72   1      9.1249999999999911                  63.875      65.699999999999974
    73   1      7.2999999999999972      62.049999999999997      69.349999999999994
    74   1      9.1249999999999911      62.049999999999997      71.174999999999997
    75   1      9.1249999999999911                  63.875      69.349999999999994
    76   1      9.1249999999999911      65.699999999999974      56.574999999999989
    77   1      7.2999999999999972      65.699999999999974      58.399999999999991
    78   1      7.2999999999999972      67.524999999999991      60.224999999999987
    79   1      9.1249999999999911      65.699999999999974      60.224999999999987
    80   1      9.1249999999999911      67.524999999999991      58.399999999999991
    81   1      7.2999999999999972      65.699999999999974      62.049999999999997
    82   1      7.2999999999999972      67.524999999999991                  63.875
    83   1      9.1249999999999911      65.699999999999974                  63.875
    84   1      9.1249999999999911      67.524999999999991      62.049999999999997
    85   1      7.2999999999999972      65.699999999999974      65.699999999999974
    86   1      9.1249999999999911      65.699999999999974      67.524999999999991
    87   1      9.1249999999999911      67.524999999999991      65.699999999999974
    88   1      9.1249999999999911      69.349999999999994      60.224999999999987
    89   1      7.2999999999999972      69.349999999999994      62.049999999999997
    90   1      9.1249999999999911      69.349999999999994                  63.875
    91   1      9.1249999999999911      71.174999999999997      62.049999999999997
    92   1      12.774999999999991      49.274999999999999      62.049999999999997
    93   1      10.949999999999996      52.924999999999997      60.224999999999987
    94   1      12.774999999999991      51.099999999999994      60.224999999999987
    95   1      12.774999999999991      52.924999999999997      58.399999999999991
    96   1      10.949999999999996      51.099999999999994      62.049999999999997
    97   1      10.949999999999996      52.924999999999997                  63.875
    98   1      12.774999999999991      51.099999999999994                  63.875
    99   1      12.774999999999991      52.924999999999997      62.049999999999997
   100   1      12.774999999999991      52.924999999999997      65.699999999999974
   101   1      10.949999999999996      56.574999999999989      56.574999999999989
   102   1      12.774999999999991      54.749999999999993      56.574999999999989
   103   1      12.774999999999991      56.574999999999989      54.749999999999993
   104   1      10.949999999999996      54.749999999999993      58.399999999999991
   105   1      10.949999999999996      56.574999999999989      60.224999999999987
   106   1      12.774999999999991      54.749999999999993      60.224999999999987
   107   1      12.774999999999991      56.574999999999989      58.399999999999991
   108   1      10.949999999999996      54.749999999999993      62.049999999999997
   109   1      10.949999999999996      56.574999999999989                  63.875
   110   1      12.774999999999991      54.749999999999993                  63.875
   111   1      12.774999999999991      56.574999999999989      62.049999999999997
   112   1      10.949999999999996      54.749999999999993      65.699999999999974
   113   1      10.949999999999996      56.574999999999989      67.524999999999991
   114   1      12.774999999999991      54.749999999999993      67.524999999999991
   115   1      12.774999999999991      56.574999999999989      65.699999999999974
   116   1      12.774999999999991      56.574999999999989      69.349999999999994
   117   1      10.949999999999996      60.224999999999987      52.924999999999997
   118   1      12.774999999999991      58.399999999999991      52.924999999999997
   119   1      12.774999999999991      60.224999999999987      51.099999999999994
   120   1      10.949999999999996      58.399999999999991      54.749999999999993
   121   1      10.949999999999996      60.224999999999987      56.574999999999989
   122   1      12.774999999999991      58.399999999999991      56.574999999999989
   123   1      12.774999999999991      60.224999999999987      54.749999999999993
   124   1      10.949999999999996      58.399999999999991      58.399999999999991
   125   1      10.949999999999996      60.224999999999987      60.224999999999987
   126   1      12.774999999999991      58.399999999999991      60.224999999999987
   127   1      12.774999999999991      60.224999999999987      58.399999999999991
   128   1      10.949999999999996      58.399999999999991      62.049999999999997
   129   1      10.949999999999996      60.224999999999987                  63.875
   130   1      12.774999999999991      58.399999999999991                  63.875
   131   1      12.774999999999991      60.224999999999987      62.049999999999997
   132   1      10.949999999999996      58.399999999999991      65.699999999999974
   133   1      10.949999999999996      60.224999999999987      67.524999999999991
   134   1      12.774999999999991      58.399999999999991      67.524999999999991
   135   1      12.774999999999991      60.224999999999987      65.699999999999974
   136   1      10.949999999999996      58.399999999999991      69.349999999999994
   137   1      10.949999999999996      60.224999999999987      71.174999999999997
   138   1      12.774999999999991      58.399999999999991      71.174999999999997
   139   1      12.774999999999991      60.224999999999987      69.349999999999994
   140   1      12.774999999999991      60.224999999999987      72.999999999999986
   141   1      12.774999999999991      62.049999999999997      49.274999999999999
   142   1      10.949999999999996      62.049999999999997      51.099999999999994
   143   1      10.949999999999996                  63.875      52.924999999999997
   144   1      12.774999999999991      62.049999999999997      52.924999999999997
   145   1      12.774999999999991                  63.875      51.099999999999994
   146   1      10.949999999999996      62.049999999999997      54.749999999999993
   147   1      10.949999999999996                  63.875      56.574999999999989
   148   1      12.774999999999991      62.049999999999997      56.574999999999989
   149   1      12.774999999999991                  63.875      54.749999999999993
   150   1      10.949999999999996      62.049999999999997      58.399999999999991
   151   1      10.949999999999996                  63.875      60.224999999999987
   152   1      12.774999999999991      62.049999999999997      60.224999999999987
   153   1      12.774999999999991                  63.875      58.399999999999991
   154   1      10.949999999999996      62.049999999999997      62.049999999999997
   155   1      10.949999999999996                  63.875                  63.875
   156   1      12.774999999999991      62.049999999999997                  63.875
   157   1      12.774999999999991                  63.875      62.049999999999997
   158   1      10.949999999999996      62.049999999999997      65.699999999999974
   159   1      10.949999999999996                  63.875      67.524999999999991
   160   1      12.774999999999991      62.049999999999997      67.524999999999991
   161   1      12.774999999999991                  63.875      65.699999999999974
   162   1      10.949999999999996      62.049999999999997      69.349999999999994
   163   1      10.949999999999996                  63.875      71.174999999999997
   164   1      12.774999999999991      62.049999999999997      71.174999999999997
   165   1      12.774999999999991                  63.875      69.349999999999994
   166   1      10.949999999999996      62.049999999999997      72.999999999999986
   167   1      12.774999999999991      62.049999999999997      74.824999999999989
   168   1      12.774999999999991                  63.875      72.999999999999986
   169   1      12.774999999999991      65.699999999999974      52.924999999999997
   170   1      10.949999999999996      65.699999999999974      54.749999999999993
   171   1      10.949999999999996      67.524999999999991      56.574999999999989
   172   1      12.774999999999991      65.699999999999974      56.574999999999989
   173   1      12.774999999999991      67.524999999999991      54.749999999999993
   174   1      10.949999999999996      65.699999999999974      58.399999999999991
   175   1      10.949999999999996      67.524999999999991      60.224999999999987
   176   1      12.774999999999991      65.699999999999974      60.224999999999987
   177   1      12.774999999999991      67.524999999999991      58.399999999999991
   178   1      10.949999999999996      65.699999999999974      62.049999999999997
   179   1      10.949999999999996      67.524999999999991                  63.875
   180   1      12.774999999999991      65.699999999999974                  63.875
   181   1      12.774999999999991      67.524999999999991      62.049999999999997
   182   1      10.949999999999996      65.699999999999974      65.699999999999974
   183   1      10.949999999999996      67.524999999999991      67.524999999999991
   184   1      12.774999999999991      65.699999999999974      67.524999999999991
   185   1      12.774999999999991      67.524999999999991      65.699999999999974
   186   1      10.949999999999996      65.699999999999974      69.349999999999994
   187   1      12.774999999999991      65.699999999999974      71.174999999999997
   188   1      12.774999999999991      67.524999999999991      69.349999999999994
   189   1      12.774999999999991      69.349999999999994      56.574999999999989
   190   1      10.949999999999996      69.349999999999994      58.399999999999991
   191   1      10.949999999999996      71.174999999999997      60.224999999999987
   192   1      12.774999999999991      69.349999999999994      60.224999999999987
   193   1      12.774999999999991      71.174999999999997      58.399999999999991
   194   1      10.949999999999996      69.349999999999994      62.049999999999997
   195   1      10.949999999999996      71.174999999999997                  63.875
   196   1      12.774999999999991      69.349999999999994                  63.875
   197   1      12.774999999999991      71.174999999999997      62.049999999999997
   198   1      10.949999999999996      69.349999999999994      65.699999999999974
   199   1      12.774999999999991      69.349999999999994      67.524999999999991
   200   1      12.774999999999991      71.174999999999997      65.699999999999974
   201   1      12.774999999999991      72.999999999999986      60.224999999999987
   202   1      10.949999999999996      72.999999999999986      62.049999999999997
   203   1      12.774999999999991      72.999999999999986                  63.875
   204   1      12.774999999999991      74.824999999999989      62.049999999999997
   205   1      16.424999999999994      45.624999999999993      62.049999999999997
   206   1      14.599999999999994      49.274999999999999      60.224999999999987
   207   1      16.424999999999994      47.449999999999996      60.224999999999987
   208   1      16.424999999999994      49.274999999999999      58.399999999999991
   209   1      14.599999999999994      47.449999999999996      62.049999999999997
   210   1      14.599999999999994      49.274999999999999                  63.875
   211   1      16.424999999999994      47.449999999999996                  63.875
   212   1      16.424999999999994      49.274999999999999      62.049999999999997
   213   1      16.424999999999994      49.274999999999999      65.699999999999974
   214   1      14.599999999999994      52.924999999999997      56.574999999999989
   215   1      16.424999999999994      51.099999999999994      56.574999999999989
   216   1      16.424999999999994      52.924999999999997      54.749999999999993
   217   1      14.599999999999994      51.099999999999994      58.399999999999991
   218   1      14.599999999999994      52.924999999999997      60.224999999999987
   219   1      16.424999999999994      51.099999999999994      60.224999999999987
   220   1      16.424999999999994      52.924999999999997      58.399999999999991
   221   1      14.599999999999994      51.099999999999994      62.049999999999997
   222   1      14.599999999999994      52.924999999999997                  63.875
   223   1      16.424999999999994      51.099999999999994                  63.875
   224   1      16.424999999999994      52.924999999999997      62.049999999999997
   225   1      14.599999999999994      51.099999999999994      65.699999999999974
   226   1      14.599999999999994      52.924999999999997      67.524999999999991
   227   1      16.424999999999994      51.099999999999994      67.524999999999991
   228   1      16.424999999999994      52.924999999999997      65.699999999999974
   229   1      16.424999999999994      52.924999999999997      69.349999999999994
   230   1      14.599999999999994      56.574999999999989      52.924999999999997
   231   1      16.424999999999994      54.749999999999993      52.924999999999997
   232   1      16.424999999999994      56.574999999999989      51.099999999999994
   233   1      14.599999999999994      54.749999999999993      54.749999999999993
   234   1      14.599999999999994      56.574999999999989      56.574999999999989
   235   1      16.424999999999994      54.749999999999993      56.574999999999989
   236   1      16.424999999999994      56.574999999999989      54.749999999999993
   237   1      14.599999999999994      54.749999999999993      58.399999999999991
   238   1      14.599999999999994      56.574999999999989      60.224999999999987
   239   1      16.424999999999994      54.749999999999993      60.224999999999987
   240   1      16.424999999999994      56.574999999999989      58.399999999999991
   241   1      14.599999999999994      54.749999999999993      62.049999999999997
   242   1      14.599999999999994      56.574999999999989                  63.875
   243   1      16.424999999999994      54.749999999999993                  63.875
   244   1      16.424999999999994      56.574999999999989      62.049999999999997
   245   1      14.599999999999994      54.749999999999993      65.699999999999974
   246   1      14.599999999999994      56.574999999999989      67.524999999999991
   247   1      16.424999999999994      54.749999999999993      67.524999999999991
   248   1      16.424999999999994      56.574999999999989      65.699999999999974
   249   1      14.599999999999994      54.749999999999993      69.349999999999994
   250   1      14.599999999999994      56.574999999999989      71.174999999999997
   251   1      16.424999999999994      54.749999999999993      71.174999999999997
   252   1      16.424999999999994      56.574999999999989      69.349999999999994
   253   1      16.424999999999994      56.574999999999989      72.999999999999986
   254   1      14.599999999999994      60.224999999999987      49.274999999999999
   255   1      16.424999999999994      58.399999999999991      49.274999999999999
   256   1      16.424999999999994      60.224999999999987      47.449999999999996
   257   1      14.599999999999994      58.399999999999991      51.099999999999994
   258   1      14.599999999999994      60.224999999999987      52.924999999999997
   259   1      16.424999999999994      58.399999999999991      52.924999999999997
   260   1      16.424999999999994      60.224999999999987      51.099999999999994
   261   1      14.599999999999994      58.399999999999991      54.749999999999993
   262   1      14.599999999999994      60.224999999999987      56.574999999999989
   263   1      16.424999999999994      58.399999999999991      56.574999999999989
   264   1      16.424999999999994      60.224999999999987      54.749999999999993
   265   1      14.599999999999994      58.399999999999991      58.399999999999991
   266   1      14.599999999999994      60.224999999999987      60.224999999999987
   267   1      16.424999999999994      58.399999999999991      60.224999999999987
   268   1      16.424999999999994      60.224999999999987      58.399999999999991
   269   1      14.599999999999994      58.399999999999991      62.049999999999997
   270   1      14.599999999999994      60.224999999999987                  63.875
   271   1      16.424999999999994      58.399999999999991                  63.875
   272   1      16.424999999999994      60.224999999999987      62.049999999999997
   273   1      14.599999999999994      58.399999999999991      65.699999999999974
   274   1      14.599999999999994      60.224999999999987      67.524999999999991
   275   1      16.424999999999994      58.399999999999991      67.524999999999991
   276   1      16.424999999999994      60.224999999999987      65.699999999999974
   277   1      14.599999999999994      58.399999999999991      69.349999999999994
   278   1      14.599999999999994      60.224999999999987      71.174999999999997
   279   1      16.424999999999994      58.399999999999991      71.174999999999997
   280   1      16.424999999999994      60.224999999999987      69.349999999999994
   281   1      14.599999999999994      58.399999999999991      72.999999999999986
   282   1      14.599999999999994      60.224999999999987      74.824999999999989
   283   1      16.424999999999994      58.399999999999991      74.824999999999989
   284   1      16.424999999999994      60.224999999999987      72.999999999999986
   285   1      16.424999999999994      60.224999999999987      76.649999999999991
   286   1      16.424999999999994      62.049999999999997      45.624999999999993
   287   1      14.599999999999994      62.049999999999997      47.449999999999996
   288   1      14.599999999999994                  63.875      49.274999999999999
   289   1      16.424999999999994      62.049999999999997      49.274999999999999
   290   1      16.424999999999994                  63.875      47.449999999999996
   291   1      14.599999999999994      62.049999999999997      51.099999999999994
   292   1      14.599999999999994                  63.875      52.924999999999997
   293   1      16.424999999999994      62.049999999999997      52.924999999999997
   294   1      16.424999999999994                  63.875      51.099999999999994
   295   1      14.599999999999994      62.049999999999997      54.749999999999993
   296   1      14.599999999999994                  63.875      56.574999999999989
   297   1      16.424999999999994      62.049999999999997      56.574999999999989
   298   1      16.424999999999994                  63.875      54.749999999999993
   299   1      14.599999999999994      62.049999999999997      58.399999999999991
   300   1      14.599999999999994                  63.875      60.224999999999987
   301   1      16.424999999999994      62.049999999999997      60.224999999999987
   302   1      16.424999999999994                  63.875      58.399999999999991
   303   1      14.599999999999994      62.049999999999997      62.049999999999997
   304   1      14.599999999999994                  63.875                  63.875
   305   1      16.424999999999994      62.049999999999997                  63.875
   306   1      16.424999999999994                  63.875      62.049999999999997
   307   1      14.599999999999994      62.049999999999997      65.699999999999974
   308   1      14.599999999999994                  63.875      67.524999999999991
   309   1      16.424999999999994      62.049999999999997      67.524999999999991
   310   1      16.424999999999994                  63.875      65.699999999999974
   311   1      14.599999999999994      62.049999999999997      69.349999999999994
   312   1      14.599999999999994                  63.875      71.174999999999997
   313   1      16.424999999999994      62.049999999999997      71.174999999999997
   314   1      16.424999999999994                  63.875      69.349999999999994
   315   1      14.599999999999994      62.049999999999997      72.999999999999986
   316   1      14.599999999999994                  63.875      74.824999999999989
   317   1      16.424999999999994      62.049999999999997      74.824999999999989
   318   1      16.424999999999994                  63.875      72.999999999999986
   319   1      14.599999999999994      62.049999999999997      76.649999999999991
   320   1      16.424999999999994      62.049999999999997      78.474999999999994
   321   1      16.424999999999994                  63.875      76.649999999999991
   322   1      16.424999999999994      65.699999999999974      49.274999999999999
   323   1      14.599999999999994      65.699999999999974      51.099999999999994
   324   1      14.599999999999994      67.524999999999991      52.924999999999997
   325   1      16.424999999999994      65.699999999999974      52.924999999999997
   326   1      16.424999999999994      67.524999999999991      51.099999999999994
   327   1      14.599999999999994      65.699999999999974      54.749999999999993
   328   1      14.599999999999994      67.524999999999991      56.574999999999989
   329   1      16.424999999999994      65.699999999999974      56.574999999999989
   330   1      16.424999999999994      67.524999999999991      54.749999999999993
   331   1      14.599999999999994      65.699999999999974      58.399999999999991
   332   1      14.599999999999994      67.524999999999991      60.224999999999987
   333   1      16.424999999999994      65.699999999999974      60.224999999999987
   334   1      16.424999999999994      67.524999999999991      58.399999999999991
   335   1      14.599999999999994      65.699999999999974      62.049999999999997
   336   1      14.599999999999994      67.524999999999991                  63.875
   337   1      16.424999999999994      65.699999999999974                  63.875
   338   1      16.424999999999994      67.524999999999991      62.049999999999997
   339   1      14.599999999999994      65.699999999999974      65.699999999999974
   340   1      14.599999999999994      67.524999999999991      67.524999999999991
   341   1      16.424999999999994      65.699999999999974      67.524999999999991
   342   1      16.424999999999994      67.524999999999991      65.699999999999974
   343   1      14.599999999999994      65.699999999999974      69.349999999999994
   344   1      14.599999999999994      67.524999999999991      71.174999999999997
   345   1      16.424999999999994      65.699999999999974      71.174999999999997
   346   1      16.424999999999994      67.524999999999991      69.349999999999994
   347   1      14.599999999999994      65.699999999999974      72.999999999999986
   348   1      16.424999999999994      65.699999999999974      74.824999999999989
   349   1      16.424999999999994      67.524999999999991      72.999999999999986
   350   1      16.424999999999994      69.349999999999994      52.924999999999997
   351   1      14.599999999999994      69.349999999999994      54.749999999999993
   352   1      14.599999999999994      71.174999999999997      56.574999999999989
   353   1      16.424999999999994      69.349999999999994      56.574999999999989
   354   1      16.424999999999994      71.174999999999997      54.749999999999993
   355   1      14.599999999999994      69.349999999999994      58.399999999999991
   356   1      14.599999999999994      71.174999999999997      60.224999999999987
   357   1      16.424999999999994      69.349999999999994      60.224999999999987
   358   1      16.424999999999994      71.174999999999997      58.399999999999991