model_files/CuFeNi/CuFeNi_30000/CuFeNi_331/CuFeNi_331_fcc_30729_temp.data (written by ASE) 

30729 	 atoms 
3  atom types
0.0                     123  xlo xhi
0.0                     123  ylo yhi
0.0                     123  zlo zhi


Atoms 

     1   1      1.8999999999999917      58.899999999999984       60.79999999999999
     2   1      1.8999999999999917       60.79999999999999      58.899999999999984
     3   1      122.99999999999999       60.79999999999999       60.79999999999999
     4   1      1.8999999999999917       60.79999999999999      62.700000000000003
     5   1      1.8999999999999917      62.700000000000003       60.79999999999999
     6   1      5.6999999999999886       55.09999999999998      56.999999999999986
     7   1      5.6999999999999886       55.09999999999998       60.79999999999999
     8   1      5.6999999999999886       55.09999999999998      64.599999999999994
     9   1      5.6999999999999886      56.999999999999986       55.09999999999998
    10   1      3.7999999999999905      56.999999999999986      56.999999999999986
    11   1      3.7999999999999905      58.899999999999984      58.899999999999984
    12   1      5.6999999999999886      56.999999999999986      58.899999999999984
    13   1      5.6999999999999886      58.899999999999984      56.999999999999986
    14   1      3.7999999999999905      56.999999999999986       60.79999999999999
    15   1      3.7999999999999905      58.899999999999984      62.700000000000003
    16   1      5.6999999999999886      56.999999999999986      62.700000000000003
    17   1      5.6999999999999886      58.899999999999984       60.79999999999999
    18   1      3.7999999999999905      56.999999999999986      64.599999999999994
    19   1      5.6999999999999886      56.999999999999986      66.499999999999986
    20   1      5.6999999999999886      58.899999999999984      64.599999999999994
    21   1      5.6999999999999886       60.79999999999999       55.09999999999998
    22   1      3.7999999999999905       60.79999999999999      56.999999999999986
    23   1      3.7999999999999905      62.700000000000003      58.899999999999984
    24   1      5.6999999999999886       60.79999999999999      58.899999999999984
    25   1      5.6999999999999886      62.700000000000003      56.999999999999986
    26   1      3.7999999999999905       60.79999999999999       60.79999999999999
    27   1      3.7999999999999905      62.700000000000003      62.700000000000003
    28   1      5.6999999999999886       60.79999999999999      62.700000000000003
    29   1      5.6999999999999886      62.700000000000003       60.79999999999999
    30   1      3.7999999999999905       60.79999999999999      64.599999999999994
    31   1      5.6999999999999886       60.79999999999999      66.499999999999986
    32   1      5.6999999999999886      62.700000000000003      64.599999999999994
    33   1      5.6999999999999886      64.599999999999994       55.09999999999998
    34   1      3.7999999999999905      64.599999999999994      56.999999999999986
    35   1      5.6999999999999886      64.599999999999994      58.899999999999984
    36   1      5.6999999999999886      66.499999999999986      56.999999999999986
    37   1      3.7999999999999905      64.599999999999994       60.79999999999999
    38   1      5.6999999999999886      64.599999999999994      62.700000000000003
    39   1      5.6999999999999886      66.499999999999986       60.79999999999999
    40   1      3.7999999999999905      64.599999999999994      64.599999999999994
    41   1      5.6999999999999886      64.599999999999994      66.499999999999986
    42   1      5.6999999999999886      66.499999999999986      64.599999999999994
    43   1      9.4999999999999876      51.299999999999983      56.999999999999986
    44   1      9.4999999999999876      51.299999999999983       60.79999999999999
    45   1      9.4999999999999876      51.299999999999983      64.599999999999994
    46   1      7.5999999999999881       55.09999999999998       55.09999999999998
    47   1      9.4999999999999876      53.199999999999989       55.09999999999998
    48   1      9.4999999999999876       55.09999999999998      53.199999999999989
    49   1      7.5999999999999881      53.199999999999989      56.999999999999986
    50   1      7.5999999999999881       55.09999999999998      58.899999999999984
    51   1      9.4999999999999876      53.199999999999989      58.899999999999984
    52   1      9.4999999999999876       55.09999999999998      56.999999999999986
    53   1      7.5999999999999881      53.199999999999989       60.79999999999999
    54   1      7.5999999999999881       55.09999999999998      62.700000000000003
    55   1      9.4999999999999876      53.199999999999989      62.700000000000003
    56   1      9.4999999999999876       55.09999999999998       60.79999999999999
    57   1      7.5999999999999881      53.199999999999989      64.599999999999994
    58   1      7.5999999999999881       55.09999999999998      66.499999999999986
    59   1      9.4999999999999876      53.199999999999989      66.499999999999986
    60   1      9.4999999999999876       55.09999999999998      64.599999999999994
    61   1      9.4999999999999876       55.09999999999998      68.399999999999977
    62   1      9.4999999999999876      56.999999999999986      51.299999999999983
    63   1      7.5999999999999881      56.999999999999986      53.199999999999989
    64   1      7.5999999999999881      58.899999999999984       55.09999999999998
    65   1      9.4999999999999876      56.999999999999986       55.09999999999998
    66   1      9.4999999999999876      58.899999999999984      53.199999999999989
    67   1      7.5999999999999881      56.999999999999986      56.999999999999986
    68   1      7.5999999999999881      58.899999999999984      58.899999999999984
    69   1      9.4999999999999876      56.999999999999986      58.899999999999984
    70   1      9.4999999999999876      58.899999999999984      56.999999999999986
    71   1      7.5999999999999881      56.999999999999986       60.79999999999999
    72   1      7.5999999999999881      58.899999999999984      62.700000000000003
    73   1      9.4999999999999876      56.999999999999986      62.700000000000003
    74   1      9.4999999999999876      58.899999999999984       60.79999999999999
    75   1      7.5999999999999881      56.999999999999986      64.599999999999994
    76   1      7.5999999999999881      58.899999999999984      66.499999999999986
    77   1      9.4999999999999876      56.999999999999986      66.499999999999986
    78   1      9.4999999999999876      58.899999999999984      64.599999999999994
    79   1      7.5999999999999881      56.999999999999986      68.399999999999977
    80   1      9.4999999999999876      56.999999999999986      70.299999999999983
    81   1      9.4999999999999876      58.899999999999984      68.399999999999977
    82   1      9.4999999999999876       60.79999999999999      51.299999999999983
    83   1      7.5999999999999881       60.79999999999999      53.199999999999989
    84   1      7.5999999999999881      62.700000000000003       55.09999999999998
    85   1      9.4999999999999876       60.79999999999999       55.09999999999998
    86   1      9.4999999999999876      62.700000000000003      53.199999999999989
    87   1      7.5999999999999881       60.79999999999999      56.999999999999986
    88   1      7.5999999999999881      62.700000000000003      58.899999999999984
    89   1      9.4999999999999876       60.79999999999999      58.899999999999984
    90   1      9.4999999999999876      62.700000000000003      56.999999999999986
    91   1      7.5999999999999881       60.79999999999999       60.79999999999999
    92   1      7.5999999999999881      62.700000000000003      62.700000000000003
    93   1      9.4999999999999876       60.79999999999999      62.700000000000003
    94   1      9.4999999999999876      62.700000000000003       60.79999999999999
    95   1      7.5999999999999881       60.79999999999999      64.599999999999994
    96   1      7.5999999999999881      62.700000000000003      66.499999999999986
    97   1      9.4999999999999876       60.79999999999999      66.499999999999986
    98   1      9.4999999999999876      62.700000000000003      64.599999999999994
    99   1      7.5999999999999881       60.79999999999999      68.399999999999977
   100   1      9.4999999999999876       60.79999999999999      70.299999999999983
   101   1      9.4999999999999876      62.700000000000003      68.399999999999977
   102   1      9.4999999999999876      64.599999999999994      51.299999999999983
   103   1      7.5999999999999881      64.599999999999994      53.199999999999989
   104   1      7.5999999999999881      66.499999999999986       55.09999999999998
   105   1      9.4999999999999876      64.599999999999994       55.09999999999998
   106   1      9.4999999999999876      66.499999999999986      53.199999999999989
   107   1      7.5999999999999881      64.599999999999994      56.999999999999986
   108   1      7.5999999999999881      66.499999999999986      58.899999999999984
   109   1      9.4999999999999876      64.599999999999994      58.899999999999984
   110   1      9.4999999999999876      66.499999999999986      56.999999999999986
   111   1      7.5999999999999881      64.599999999999994       60.79999999999999
   112   1      7.5999999999999881      66.499999999999986      62.700000000000003
   113   1      9.4999999999999876      64.599999999999994      62.700000000000003
   114   1      9.4999999999999876      66.499999999999986       60.79999999999999
   115   1      7.5999999999999881      64.599999999999994      64.599999999999994
   116   1      7.5999999999999881      66.499999999999986      66.499999999999986
   117   1      9.4999999999999876      64.599999999999994      66.499999999999986
   118   1      9.4999999999999876      66.499999999999986      64.599999999999994
   119   1      7.5999999999999881      64.599999999999994      68.399999999999977
   120   1      9.4999999999999876      64.599999999999994      70.299999999999983
   121   1      9.4999999999999876      66.499999999999986      68.399999999999977
   122   1      9.4999999999999876      68.399999999999977       55.09999999999998
   123   1      7.5999999999999881      68.399999999999977      56.999999999999986
   124   1      9.4999999999999876      68.399999999999977      58.899999999999984
   125   1      9.4999999999999876      70.299999999999983      56.999999999999986
   126   1      7.5999999999999881      68.399999999999977       60.79999999999999
   127   1      9.4999999999999876      68.399999999999977      62.700000000000003
   128   1      9.4999999999999876      70.299999999999983       60.79999999999999
   129   1      7.5999999999999881      68.399999999999977      64.599999999999994
   130   1      9.4999999999999876      68.399999999999977      66.499999999999986
   131   1      9.4999999999999876      70.299999999999983      64.599999999999994
   132   1      13.299999999999985      47.499999999999986      56.999999999999986
   133   1      13.299999999999985      47.499999999999986       60.79999999999999
   134   1      13.299999999999985      47.499999999999986      64.599999999999994
   135   1      11.399999999999986      51.299999999999983      51.299999999999983
   136   1      13.299999999999985      49.399999999999984      51.299999999999983
   137   1      13.299999999999985      51.299999999999983      49.399999999999984
   138   1      11.399999999999986      51.299999999999983       55.09999999999998
   139   1      13.299999999999985      49.399999999999984       55.09999999999998
   140   1      13.299999999999985      51.299999999999983      53.199999999999989
   141   1      11.399999999999986      49.399999999999984      56.999999999999986
   142   1      11.399999999999986      51.299999999999983      58.899999999999984
   143   1      13.299999999999985      49.399999999999984      58.899999999999984
   144   1      13.299999999999985      51.299999999999983      56.999999999999986
   145   1      11.399999999999986      49.399999999999984       60.79999999999999
   146   1      11.399999999999986      51.299999999999983      62.700000000000003
   147   1      13.299999999999985      49.399999999999984      62.700000000000003
   148   1      13.299999999999985      51.299999999999983       60.79999999999999
   149   1      11.399999999999986      49.399999999999984      64.599999999999994
   150   1      11.399999999999986      51.299999999999983      66.499999999999986
   151   1      13.299999999999985      49.399999999999984      66.499999999999986
   152   1      13.299999999999985      51.299999999999983      64.599999999999994
   153   1      11.399999999999986      51.299999999999983      70.299999999999983
   154   1      13.299999999999985      49.399999999999984      70.299999999999983
   155   1      13.299999999999985      51.299999999999983      68.399999999999977
   156   1      13.299999999999985      51.299999999999983      72.199999999999974
   157   1      11.399999999999986       55.09999999999998      51.299999999999983
   158   1      13.299999999999985      53.199999999999989      51.299999999999983
   159   1      13.299999999999985       55.09999999999998      49.399999999999984
   160   1      11.399999999999986      53.199999999999989      53.199999999999989
   161   1      11.399999999999986       55.09999999999998       55.09999999999998
   162   1      13.299999999999985      53.199999999999989       55.09999999999998
   163   1      13.299999999999985       55.09999999999998      53.199999999999989
   164   1      11.399999999999986      53.199999999999989      56.999999999999986
   165   1      11.399999999999986       55.09999999999998      58.899999999999984
   166   1      13.299999999999985      53.199999999999989      58.899999999999984
   167   1      13.299999999999985       55.09999999999998      56.999999999999986
   168   1      11.399999999999986      53.199999999999989       60.79999999999999
   169   1      11.399999999999986       55.09999999999998      62.700000000000003
   170   1      13.299999999999985      53.199999999999989      62.700000000000003
   171   1      13.299999999999985       55.09999999999998       60.79999999999999
   172   1      11.399999999999986      53.199999999999989      64.599999999999994
   173   1      11.399999999999986       55.09999999999998      66.499999999999986
   174   1      13.299999999999985      53.199999999999989      66.499999999999986
   175   1      13.299999999999985       55.09999999999998      64.599999999999994
   176   1      11.399999999999986      53.199999999999989      68.399999999999977
   177   1      11.399999999999986       55.09999999999998      70.299999999999983
   178   1      13.299999999999985      53.199999999999989      70.299999999999983
   179   1      13.299999999999985       55.09999999999998      68.399999999999977
   180   1      13.299999999999985       55.09999999999998      72.199999999999974
   181   1      13.299999999999985      56.999999999999986      47.499999999999986
   182   1      11.399999999999986      56.999999999999986      49.399999999999984
   183   1      11.399999999999986      58.899999999999984      51.299999999999983
   184   1      13.299999999999985      56.999999999999986      51.299999999999983
   185   1      13.299999999999985      58.899999999999984      49.399999999999984
   186   1      11.399999999999986      56.999999999999986      53.199999999999989
   187   1      11.399999999999986      58.899999999999984       55.09999999999998
   188   1      13.299999999999985      56.999999999999986       55.09999999999998
   189   1      13.299999999999985      58.899999999999984      53.199999999999989
   190   1      11.399999999999986      56.999999999999986      56.999999999999986
   191   1      11.399999999999986      58.899999999999984      58.899999999999984
   192   1      13.299999999999985      56.999999999999986      58.899999999999984
   193   1      13.299999999999985      58.899999999999984      56.999999999999986
   194   1      11.399999999999986      56.999999999999986       60.79999999999999
   195   1      11.399999999999986      58.899999999999984      62.700000000000003
   196   1      13.299999999999985      56.999999999999986      62.700000000000003
   197   1      13.299999999999985      58.899999999999984       60.79999999999999
   198   1      11.399999999999986      56.999999999999986      64.599999999999994
   199   1      11.399999999999986      58.899999999999984      66.499999999999986
   200   1      13.299999999999985      56.999999999999986      66.499999999999986
   201   1      13.299999999999985      58.899999999999984      64.599999999999994
   202   1      11.399999999999986      56.999999999999986      68.399999999999977
   203   1      11.399999999999986      58.899999999999984      70.299999999999983
   204   1      13.299999999999985      56.999999999999986      70.299999999999983
   205   1      13.299999999999985      58.899999999999984      68.399999999999977
   206   1      11.399999999999986      56.999999999999986      72.199999999999974
   207   1      13.299999999999985      56.999999999999986       74.09999999999998
   208   1      13.299999999999985      58.899999999999984      72.199999999999974
   209   1      13.299999999999985       60.79999999999999      47.499999999999986
   210   1      11.399999999999986       60.79999999999999      49.399999999999984
   211   1      11.399999999999986      62.700000000000003      51.299999999999983
   212   1      13.299999999999985       60.79999999999999      51.299999999999983
   213   1      13.299999999999985      62.700000000000003      49.399999999999984
   214   1      11.399999999999986       60.79999999999999      53.199999999999989
   215   1      11.399999999999986      62.700000000000003       55.09999999999998
   216   1      13.299999999999985       60.79999999999999       55.09999999999998
   217   1      13.299999999999985      62.700000000000003      53.199999999999989
   218   1      11.399999999999986       60.79999999999999      56.999999999999986
   219   1      11.399999999999986      62.700000000000003      58.899999999999984
   220   1      13.299999999999985       60.79999999999999      58.899999999999984
   221   1      13.299999999999985      62.700000000000003      56.999999999999986
   222   1      11.399999999999986       60.79999999999999       60.79999999999999
   223   1      11.399999999999986      62.700000000000003      62.700000000000003
   224   1      13.299999999999985       60.79999999999999      62.700000000000003
   225   1      13.299999999999985      62.700000000000003       60.79999999999999
   226   1      11.399999999999986       60.79999999999999      64.599999999999994
   227   1      11.399999999999986      62.700000000000003      66.499999999999986
   228   1      13.299999999999985       60.79999999999999      66.499999999999986
   229   1      13.299999999999985      62.700000000000003      64.599999999999994
   230   1      11.399999999999986       60.79999999999999      68.399999999999977
   231   1      11.399999999999986      62.700000000000003      70.299999999999983
   232   1      13.299999999999985       60.79999999999999      70.299999999999983
   233   1      13.299999999999985      62.700000000000003      68.399999999999977
   234   1      11.399999999999986       60.79999999999999      72.199999999999974
   235   1      13.299999999999985       60.79999999999999       74.09999999999998
   236   1      13.299999999999985      62.700000000000003      72.199999999999974
   237   1      13.299999999999985      64.599999999999994      47.499999999999986
   238   1      11.399999999999986      64.599999999999994      49.399999999999984
   239   1      11.399999999999986      66.499999999999986      51.299999999999983
   240   1      13.299999999999985      64.599999999999994      51.299999999999983
   241   1      13.299999999999985      66.499999999999986      49.399999999999984
   242   1      11.399999999999986      64.599999999999994      53.199999999999989
   243   1      11.399999999999986      66.499999999999986       55.09999999999998
   244   1      13.299999999999985      64.599999999999994       55.09999999999998
   245   1      13.299999999999985      66.499999999999986      53.199999999999989
   246   1      11.399999999999986      64.599999999999994      56.999999999999986
   247   1      11.399999999999986      66.499999999999986      58.899999999999984
   248   1      13.299999999999985      64.599999999999994      58.899999999999984
   249   1      13.299999999999985      66.499999999999986      56.999999999999986
   250   1      11.399999999999986      64.599999999999994       60.79999999999999
   251   1      11.399999999999986      66.499999999999986      62.700000000000003
   252   1      13.299999999999985      64.599999999999994      62.700000000000003
   253   1      13.299999999999985      66.499999999999986       60.79999999999999
   254   1      11.399999999999986      64.599999999999994      64.599999999999994
   255   1      11.399999999999986      66.499999999999986      66.499999999999986
   256   1      13.299999999999985      64.599999999999994      66.499999999999986
   257   1      13.299999999999985      66.499999999999986      64.599999999999994
   258   1      11.399999999999986      64.599999999999994      68.399999999999977
   259   1      11.399999999999986      66.499999999999986      70.299999999999983
   260   1      13.299999999999985      64.599999999999994      70.299999999999983
   261   1      13.299999999999985      66.499999999999986      68.399999999999977
   262   1      11.399999999999986      64.599999999999994      72.199999999999974
   263   1      13.299999999999985      64.599999999999994       74.09999999999998
   264   1      13.299999999999985      66.499999999999986      72.199999999999974
   265   1      11.399999999999986      70.299999999999983      51.299999999999983
   266   1      13.299999999999985      68.399999999999977      51.299999999999983
   267   1      13.299999999999985      70.299999999999983      49.399999999999984
   268   1      11.399999999999986      68.399999999999977      53.199999999999989
   269   1      11.399999999999986      70.299999999999983       55.09999999999998
   270   1      13.299999999999985      68.399999999999977       55.09999999999998
   271   1      13.299999999999985      70.299999999999983      53.199999999999989
   272   1      11.399999999999986      68.399999999999977      56.999999999999986
   273   1      11.399999999999986      70.299999999999983      58.899999999999984
   274   1      13.299999999999985      68.399999999999977      58.899999999999984
   275   1      13.299999999999985      70.299999999999983      56.999999999999986
   276   1      11.399999999999986      68.399999999999977       60.79999999999999
   277   1      11.399999999999986      70.299999999999983      62.700000000000003
   278   1      13.299999999999985      68.399999999999977      62.700000000000003
   279   1      13.299999999999985      70.299999999999983       60.79999999999999
   280   1      11.399999999999986      68.399999999999977      64.599999999999994
   281   1      11.399999999999986      70.299999999999983      66.499999999999986
   282   1      13.299999999999985      68.399999999999977      66.499999999999986
   283   1      13.299999999999985      70.299999999999983      64.599999999999994
   284   1      11.399999999999986      68.399999999999977      68.399999999999977
   285   1      11.399999999999986      70.299999999999983      70.299999999999983
   286   1      13.299999999999985      68.399999999999977      70.299999999999983
   287   1      13.299999999999985      70.299999999999983      68.399999999999977
   288   1      13.299999999999985      70.299999999999983      72.199999999999974
   289   1      13.299999999999985      72.199999999999974      51.299999999999983
   290   1      13.299999999999985      72.199999999999974       55.09999999999998
   291   1      11.399999999999986      72.199999999999974      56.999999999999986
   292   1      13.299999999999985      72.199999999999974      58.899999999999984
   293   1      13.299999999999985       74.09999999999998      56.999999999999986
   294   1      11.399999999999986      72.199999999999974       60.79999999999999
   295   1      13.299999999999985      72.199999999999974      62.700000000000003
   296   1      13.299999999999985       74.09999999999998       60.79999999999999
   297   1      11.399999999999986      72.199999999999974      64.599999999999994
   298   1      13.299999999999985      72.199999999999974      66.499999999999986
   299   1      13.299999999999985       74.09999999999998      64.599999999999994
   300   1      13.299999999999985      72.199999999999974      70.299999999999983
   301   1       17.09999999999998      43.699999999999989      56.999999999999986
   302   1       17.09999999999998      43.699999999999989       60.79999999999999
   303   1       17.09999999999998      43.699999999999989      64.599999999999994
   304   1       15.19999999999999      47.499999999999986      51.299999999999983
   305   1       17.09999999999998      45.599999999999987      51.299999999999983
   306   1       17.09999999999998      47.499999999999986      49.399999999999984
   307   1       15.19999999999999      47.499999999999986       55.09999999999998
   308   1       17.09999999999998      45.599999999999987       55.09999999999998
   309   1       17.09999999999998      47.499999999999986      53.199999999999989
   310   1       15.19999999999999      45.599999999999987      56.999999999999986
   311   1       15.19999999999999      47.499999999999986      58.899999999999984
   312   1       17.09999999999998      45.599999999999987      58.899999999999984
   313   1       17.09999999999998      47.499999999999986      56.999999999999986
   314   1       15.19999999999999      45.599999999999987       60.79999999999999
   315   1       15.19999999999999      47.499999999999986      62.700000000000003
   316   1       17.09999999999998      45.599999999999987      62.700000000000003
   317   1       17.09999999999998      47.499999999999986       60.79999999999999
   318   1       15.19999999999999      45.599999999999987      64.599999999999994
   319   1       15.19999999999999      47.499999999999986      66.499999999999986
   320   1       17.09999999999998      45.599999999999987      66.499999999999986
   321   1       17.09999999999998      47.499999999999986      64.599999999999994
   322   1       15.19999999999999      47.499999999999986      70.299999999999983
   323   1       17.09999999999998      45.599999999999987      70.299999999999983
   324   1       17.09999999999998      47.499999999999986      68.399999999999977
   325   1       17.09999999999998      47.499999999999986      72.199999999999974
   326   1       15.19999999999999      51.299999999999983      47.499999999999986
   327   1       17.09999999999998      49.399999999999984      47.499999999999986
   328   1       17.09999999999998      51.299999999999983      45.599999999999987
   329   1       15.19999999999999      49.399999999999984      49.399999999999984
   330   1       15.19999999999999      51.299999999999983      51.299999999999983
   331   1       17.09999999999998      49.399999999999984      51.299999999999983
   332   1       17.09999999999998      51.299999999999983      49.399999999999984
   333   1       15.19999999999999      49.399999999999984      53.199999999999989
   334   1       15.19999999999999      51.299999999999983       55.09999999999998
   335   1       17.09999999999998      49.399999999999984       55.09999999999998
   336   1       17.09999999999998      51.299999999999983      53.199999999999989
   337   1       15.19999999999999      49.399999999999984      56.999999999999986
   338   1       15.19999999999999      51.299999999999983      58.899999999999984
   339   1       17.09999999999998      49.399999999999984      58.899999999999984
   340   1       17.09999999999998      51.299999999999983      56.999999999999986
   341   1       15.19999999999999      49.399999999999984       60.79999999999999
   342   1       15.19999999999999      51.299999999999983      62.700000000000003
   343   1       17.09999999999998      49.399999999999984      62.700000000000003
   344   1       17.09999999999998      51.299999999999983       60.79999999999999
   345   1       15.19999999999999      49.399999999999984      64.599999999999994
   346   1       15.19999999999999      51.299999999999983      66.499999999999986
   347   1       17.09999999999998      49.399999999999984      66.499999999999986
   348   1       17.09999999999998      51.299999999999983      64.599999999999994
   349   1       15.19999999999999      49.399999999999984      68.399999999999977
   350   1       15.19999999999999      51.299999999999983      70.299999999999983
   351   1       17.09999999999998      49.399999999999984      70.299999999999983
   352   1       17.09999999999998      51.299999999999983      68.399999999999977
   353   1       15.19999999999999      49.399999999999984      72.199999999999974
   354   1       15.19999999999999      51.299999999999983       74.09999999999998
   355   1       17.09999999999998      49.399999999999984       74.09999999999998
   356   1       17.09999999999998      51.299999999999983      72.199999999999974
   357   1       17.09999999999998      51.299999999999983      75.999999999999972
   358   1       15.19999999999999       55.09999999999998      47.499999999999986