model_files/Cu/Cu_30000/Cu_421/data.Cu_421_fcc_30423 (written by ASE) 

30423 	 atoms 
1  atom types
0.0                      95  xlo xhi
0.0                      95  ylo yhi
0.0                      95  zlo zhi


Atoms 

     1   1      1.8049999999999997      41.515000000000001                   43.32
     2   1      1.8049999999999997      41.515000000000001                   46.93
     3   1      1.8049999999999997      41.515000000000001      50.540000000000006
     4   1      1.8049999999999997                   43.32      41.515000000000001
     5   1                       0                  45.125                  45.125
     6   1      1.8049999999999997                   43.32                  45.125
     7   1      1.8049999999999997                  45.125                   43.32
     8   1                       0                   43.32                   46.93
     9   1                       0                  45.125      48.734999999999999
    10   1      1.8049999999999997                   43.32      48.734999999999999
    11   1      1.8049999999999997                  45.125                   46.93
    12   1      1.8049999999999997                   43.32      52.344999999999992
    13   1      1.8049999999999997                  45.125      50.540000000000006
    14   1      1.8049999999999997                   46.93      41.515000000000001
    15   1                       0                   46.93                   43.32
    16   1                       0      48.734999999999999                  45.125
    17   1      1.8049999999999997                   46.93                  45.125
    18   1      1.8049999999999997      48.734999999999999                   43.32
    19   1                       0                   46.93                   46.93
    20   1                       0      48.734999999999999      48.734999999999999
    21   1      1.8049999999999997                   46.93      48.734999999999999
    22   1      1.8049999999999997      48.734999999999999                   46.93
    23   1                       0                   46.93      50.540000000000006
    24   1      1.8049999999999997                   46.93      52.344999999999992
    25   1      1.8049999999999997      48.734999999999999      50.540000000000006
    26   1      1.8049999999999997      50.540000000000006      41.515000000000001
    27   1      1.8049999999999997      50.540000000000006                  45.125
    28   1      1.8049999999999997      52.344999999999992                   43.32
    29   1                       0      50.540000000000006                   46.93
    30   1      1.8049999999999997      50.540000000000006      48.734999999999999
    31   1      1.8049999999999997      52.344999999999992                   46.93
    32   1      1.8049999999999997      50.540000000000006      52.344999999999992
    33   1      1.8049999999999997      52.344999999999992      50.540000000000006
    34   1      5.4149999999999991      34.295000000000002                   43.32
    35   1      5.4149999999999991      34.295000000000002                   46.93
    36   1      5.4149999999999991      34.295000000000002      50.540000000000006
    37   1      5.4149999999999991      36.100000000000001      41.515000000000001
    38   1      5.4149999999999991      37.905000000000001      39.710000000000001
    39   1      3.6099999999999994      37.905000000000001                  45.125
    40   1      5.4149999999999991      36.100000000000001                  45.125
    41   1      5.4149999999999991      37.905000000000001                   43.32
    42   1      3.6099999999999994      36.100000000000001                   46.93
    43   1      3.6099999999999994      37.905000000000001      48.734999999999999
    44   1      5.4149999999999991      36.100000000000001      48.734999999999999
    45   1      5.4149999999999991      37.905000000000001                   46.93
    46   1      5.4149999999999991      36.100000000000001      52.344999999999992
    47   1      5.4149999999999991      37.905000000000001      50.540000000000006
    48   1      5.4149999999999991      37.905000000000001      54.149999999999999
    49   1      5.4149999999999991      39.710000000000001      37.905000000000001
    50   1      5.4149999999999991      41.515000000000001      36.100000000000001
    51   1      3.6099999999999994      39.710000000000001      39.710000000000001
    52   1      3.6099999999999994      41.515000000000001      41.515000000000001
    53   1      5.4149999999999991      39.710000000000001      41.515000000000001
    54   1      5.4149999999999991      41.515000000000001      39.710000000000001
    55   1      3.6099999999999994      39.710000000000001                   43.32
    56   1      3.6099999999999994      41.515000000000001                  45.125
    57   1      5.4149999999999991      39.710000000000001                  45.125
    58   1      5.4149999999999991      41.515000000000001                   43.32
    59   1      3.6099999999999994      39.710000000000001                   46.93
    60   1      3.6099999999999994      41.515000000000001      48.734999999999999
    61   1      5.4149999999999991      39.710000000000001      48.734999999999999
    62   1      5.4149999999999991      41.515000000000001                   46.93
    63   1      3.6099999999999994      39.710000000000001      50.540000000000006
    64   1      3.6099999999999994      41.515000000000001      52.344999999999992
    65   1      5.4149999999999991      39.710000000000001      52.344999999999992
    66   1      5.4149999999999991      41.515000000000001      50.540000000000006
    67   1      3.6099999999999994      39.710000000000001      54.149999999999999
    68   1      5.4149999999999991      39.710000000000001      55.954999999999998
    69   1      5.4149999999999991      41.515000000000001      54.149999999999999
    70   1      5.4149999999999991      41.515000000000001      57.759999999999998
    71   1      5.4149999999999991                   43.32      34.295000000000002
    72   1      3.6099999999999994                  45.125      37.905000000000001
    73   1      5.4149999999999991                   43.32      37.905000000000001
    74   1      5.4149999999999991                  45.125      36.100000000000001
    75   1      3.6099999999999994                   43.32      39.710000000000001
    76   1      3.6099999999999994                  45.125      41.515000000000001
    77   1      5.4149999999999991                   43.32      41.515000000000001
    78   1      5.4149999999999991                  45.125      39.710000000000001
    79   1      3.6099999999999994                   43.32                   43.32
    80   1      3.6099999999999994                  45.125                  45.125
    81   1      5.4149999999999991                   43.32                  45.125
    82   1      5.4149999999999991                  45.125                   43.32
    83   1      3.6099999999999994                   43.32                   46.93
    84   1      3.6099999999999994                  45.125      48.734999999999999
    85   1      5.4149999999999991                   43.32      48.734999999999999
    86   1      5.4149999999999991                  45.125                   46.93
    87   1      3.6099999999999994                   43.32      50.540000000000006
    88   1      3.6099999999999994                  45.125      52.344999999999992
    89   1      5.4149999999999991                   43.32      52.344999999999992
    90   1      5.4149999999999991                  45.125      50.540000000000006
    91   1      3.6099999999999994                   43.32      54.149999999999999
    92   1      3.6099999999999994                  45.125      55.954999999999998
    93   1      5.4149999999999991                   43.32      55.954999999999998
    94   1      5.4149999999999991                  45.125      54.149999999999999
    95   1      5.4149999999999991                   43.32      59.564999999999998
    96   1      5.4149999999999991                  45.125      57.759999999999998
    97   1      5.4149999999999991                   46.93      34.295000000000002
    98   1      3.6099999999999994                   46.93      36.100000000000001
    99   1      3.6099999999999994      48.734999999999999      37.905000000000001
   100   1      5.4149999999999991                   46.93      37.905000000000001
   101   1      5.4149999999999991      48.734999999999999      36.100000000000001
   102   1      3.6099999999999994                   46.93      39.710000000000001
   103   1      3.6099999999999994      48.734999999999999      41.515000000000001
   104   1      5.4149999999999991                   46.93      41.515000000000001
   105   1      5.4149999999999991      48.734999999999999      39.710000000000001
   106   1      3.6099999999999994                   46.93                   43.32
   107   1      3.6099999999999994      48.734999999999999                  45.125
   108   1      5.4149999999999991                   46.93                  45.125
   109   1      5.4149999999999991      48.734999999999999                   43.32
   110   1      3.6099999999999994                   46.93                   46.93
   111   1      3.6099999999999994      48.734999999999999      48.734999999999999
   112   1      5.4149999999999991                   46.93      48.734999999999999
   113   1      5.4149999999999991      48.734999999999999                   46.93
   114   1      3.6099999999999994                   46.93      50.540000000000006
   115   1      3.6099999999999994      48.734999999999999      52.344999999999992
   116   1      5.4149999999999991                   46.93      52.344999999999992
   117   1      5.4149999999999991      48.734999999999999      50.540000000000006
   118   1      3.6099999999999994                   46.93      54.149999999999999
   119   1      3.6099999999999994      48.734999999999999      55.954999999999998
   120   1      5.4149999999999991                   46.93      55.954999999999998
   121   1      5.4149999999999991      48.734999999999999      54.149999999999999
   122   1      3.6099999999999994                   46.93      57.759999999999998
   123   1      5.4149999999999991                   46.93      59.564999999999998
   124   1      5.4149999999999991      48.734999999999999      57.759999999999998
   125   1      5.4149999999999991      50.540000000000006      34.295000000000002
   126   1      5.4149999999999991      50.540000000000006      37.905000000000001
   127   1      5.4149999999999991      52.344999999999992      36.100000000000001
   128   1      3.6099999999999994      50.540000000000006      39.710000000000001
   129   1      3.6099999999999994      52.344999999999992      41.515000000000001
   130   1      5.4149999999999991      50.540000000000006      41.515000000000001
   131   1      5.4149999999999991      52.344999999999992      39.710000000000001
   132   1      3.6099999999999994      50.540000000000006                   43.32
   133   1      3.6099999999999994      52.344999999999992                  45.125
   134   1      5.4149999999999991      50.540000000000006                  45.125
   135   1      5.4149999999999991      52.344999999999992                   43.32
   136   1      3.6099999999999994      50.540000000000006                   46.93
   137   1      3.6099999999999994      52.344999999999992      48.734999999999999
   138   1      5.4149999999999991      50.540000000000006      48.734999999999999
   139   1      5.4149999999999991      52.344999999999992                   46.93
   140   1      3.6099999999999994      50.540000000000006      50.540000000000006
   141   1      3.6099999999999994      52.344999999999992      52.344999999999992
   142   1      5.4149999999999991      50.540000000000006      52.344999999999992
   143   1      5.4149999999999991      52.344999999999992      50.540000000000006
   144   1      3.6099999999999994      50.540000000000006      54.149999999999999
   145   1      5.4149999999999991      50.540000000000006      55.954999999999998
   146   1      5.4149999999999991      52.344999999999992      54.149999999999999
   147   1      5.4149999999999991      50.540000000000006      59.564999999999998
   148   1      5.4149999999999991      52.344999999999992      57.759999999999998
   149   1      5.4149999999999991      54.149999999999999      37.905000000000001
   150   1      3.6099999999999994      54.149999999999999      39.710000000000001
   151   1      5.4149999999999991      54.149999999999999      41.515000000000001
   152   1      5.4149999999999991      55.954999999999998      39.710000000000001
   153   1      3.6099999999999994      54.149999999999999                   43.32
   154   1      3.6099999999999994      55.954999999999998                  45.125
   155   1      5.4149999999999991      54.149999999999999                  45.125
   156   1      5.4149999999999991      55.954999999999998                   43.32
   157   1      3.6099999999999994      54.149999999999999                   46.93
   158   1      3.6099999999999994      55.954999999999998      48.734999999999999
   159   1      5.4149999999999991      54.149999999999999      48.734999999999999
   160   1      5.4149999999999991      55.954999999999998                   46.93
   161   1      3.6099999999999994      54.149999999999999      50.540000000000006
   162   1      5.4149999999999991      54.149999999999999      52.344999999999992
   163   1      5.4149999999999991      55.954999999999998      50.540000000000006
   164   1      3.6099999999999994      54.149999999999999      54.149999999999999
   165   1      5.4149999999999991      54.149999999999999      55.954999999999998
   166   1      5.4149999999999991      55.954999999999998      54.149999999999999
   167   1      5.4149999999999991      57.759999999999998      41.515000000000001
   168   1      5.4149999999999991      57.759999999999998                  45.125
   169   1      5.4149999999999991      59.564999999999998                   43.32
   170   1      3.6099999999999994      57.759999999999998                   46.93
   171   1      5.4149999999999991      57.759999999999998      48.734999999999999
   172   1      5.4149999999999991      59.564999999999998                   46.93
   173   1      5.4149999999999991      57.759999999999998      52.344999999999992
   174   1      5.4149999999999991      59.564999999999998      50.540000000000006
   175   1      9.0249999999999986      27.074999999999999                   43.32
   176   1      9.0249999999999986      27.074999999999999                   46.93
   177   1      9.0249999999999986      27.074999999999999      50.540000000000006
   178   1      9.0249999999999986      30.685000000000002      36.100000000000001
   179   1      9.0249999999999986      28.879999999999999      41.515000000000001
   180   1      9.0249999999999986      30.685000000000002      39.710000000000001
   181   1      7.2199999999999989      30.685000000000002                  45.125
   182   1      9.0249999999999986      28.879999999999999                  45.125
   183   1      9.0249999999999986      30.685000000000002                   43.32
   184   1      7.2199999999999989      28.879999999999999                   46.93
   185   1      7.2199999999999989      30.685000000000002      48.734999999999999
   186   1      9.0249999999999986      28.879999999999999      48.734999999999999
   187   1      9.0249999999999986      30.685000000000002                   46.93
   188   1      9.0249999999999986      28.879999999999999      52.344999999999992
   189   1      9.0249999999999986      30.685000000000002      50.540000000000006
   190   1      9.0249999999999986      30.685000000000002      54.149999999999999
   191   1      9.0249999999999986      30.685000000000002      57.759999999999998
   192   1      9.0249999999999986      32.490000000000002      34.295000000000002
   193   1      9.0249999999999986      34.295000000000002      32.490000000000002
   194   1      7.2199999999999989      34.295000000000002      37.905000000000001
   195   1      9.0249999999999986      32.490000000000002      37.905000000000001
   196   1      9.0249999999999986      34.295000000000002      36.100000000000001
   197   1      7.2199999999999989      32.490000000000002      39.710000000000001
   198   1      7.2199999999999989      34.295000000000002      41.515000000000001
   199   1      9.0249999999999986      32.490000000000002      41.515000000000001
   200   1      9.0249999999999986      34.295000000000002      39.710000000000001
   201   1      7.2199999999999989      32.490000000000002                   43.32
   202   1      7.2199999999999989      34.295000000000002                  45.125
   203   1      9.0249999999999986      32.490000000000002                  45.125
   204   1      9.0249999999999986      34.295000000000002                   43.32
   205   1      7.2199999999999989      32.490000000000002                   46.93
   206   1      7.2199999999999989      34.295000000000002      48.734999999999999
   207   1      9.0249999999999986      32.490000000000002      48.734999999999999
   208   1      9.0249999999999986      34.295000000000002                   46.93
   209   1      7.2199999999999989      32.490000000000002      50.540000000000006
   210   1      7.2199999999999989      34.295000000000002      52.344999999999992
   211   1      9.0249999999999986      32.490000000000002      52.344999999999992
   212   1      9.0249999999999986      34.295000000000002      50.540000000000006
   213   1      7.2199999999999989      32.490000000000002      54.149999999999999
   214   1      7.2199999999999989      34.295000000000002      55.954999999999998
   215   1      9.0249999999999986      32.490000000000002      55.954999999999998
   216   1      9.0249999999999986      34.295000000000002      54.149999999999999
   217   1      9.0249999999999986      32.490000000000002      59.564999999999998
   218   1      9.0249999999999986      34.295000000000002      57.759999999999998
   219   1      9.0249999999999986      34.295000000000002      61.370000000000005
   220   1      9.0249999999999986      36.100000000000001      30.685000000000002
   221   1      7.2199999999999989      37.905000000000001      34.295000000000002
   222   1      9.0249999999999986      36.100000000000001      34.295000000000002
   223   1      9.0249999999999986      37.905000000000001      32.490000000000002
   224   1      7.2199999999999989      36.100000000000001      36.100000000000001
   225   1      7.2199999999999989      37.905000000000001      37.905000000000001
   226   1      9.0249999999999986      36.100000000000001      37.905000000000001
   227   1      9.0249999999999986      37.905000000000001      36.100000000000001
   228   1      7.2199999999999989      36.100000000000001      39.710000000000001
   229   1      7.2199999999999989      37.905000000000001      41.515000000000001
   230   1      9.0249999999999986      36.100000000000001      41.515000000000001
   231   1      9.0249999999999986      37.905000000000001      39.710000000000001
   232   1      7.2199999999999989      36.100000000000001                   43.32
   233   1      7.2199999999999989      37.905000000000001                  45.125
   234   1      9.0249999999999986      36.100000000000001                  45.125
   235   1      9.0249999999999986      37.905000000000001                   43.32
   236   1      7.2199999999999989      36.100000000000001                   46.93
   237   1      7.2199999999999989      37.905000000000001      48.734999999999999
   238   1      9.0249999999999986      36.100000000000001      48.734999999999999
   239   1      9.0249999999999986      37.905000000000001                   46.93
   240   1      7.2199999999999989      36.100000000000001      50.540000000000006
   241   1      7.2199999999999989      37.905000000000001      52.344999999999992
   242   1      9.0249999999999986      36.100000000000001      52.344999999999992
   243   1      9.0249999999999986      37.905000000000001      50.540000000000006
   244   1      7.2199999999999989      36.100000000000001      54.149999999999999
   245   1      7.2199999999999989      37.905000000000001      55.954999999999998
   246   1      9.0249999999999986      36.100000000000001      55.954999999999998
   247   1      9.0249999999999986      37.905000000000001      54.149999999999999
   248   1      7.2199999999999989      36.100000000000001      57.759999999999998
   249   1      7.2199999999999989      37.905000000000001      59.564999999999998
   250   1      9.0249999999999986      36.100000000000001      59.564999999999998
   251   1      9.0249999999999986      37.905000000000001      57.759999999999998
   252   1      9.0249999999999986      36.100000000000001      63.175000000000011
   253   1      9.0249999999999986      37.905000000000001      61.370000000000005
   254   1      9.0249999999999986      39.710000000000001      30.685000000000002
   255   1      9.0249999999999986      41.515000000000001      28.879999999999999
   256   1      7.2199999999999989      39.710000000000001      32.490000000000002
   257   1      7.2199999999999989      41.515000000000001      34.295000000000002
   258   1      9.0249999999999986      39.710000000000001      34.295000000000002
   259   1      9.0249999999999986      41.515000000000001      32.490000000000002
   260   1      7.2199999999999989      39.710000000000001      36.100000000000001
   261   1      7.2199999999999989      41.515000000000001      37.905000000000001
   262   1      9.0249999999999986      39.710000000000001      37.905000000000001
   263   1      9.0249999999999986      41.515000000000001      36.100000000000001
   264   1      7.2199999999999989      39.710000000000001      39.710000000000001
   265   1      7.2199999999999989      41.515000000000001      41.515000000000001
   266   1      9.0249999999999986      39.710000000000001      41.515000000000001
   267   1      9.0249999999999986      41.515000000000001      39.710000000000001
   268   1      7.2199999999999989      39.710000000000001                   43.32
   269   1      7.2199999999999989      41.515000000000001                  45.125
   270   1      9.0249999999999986      39.710000000000001                  45.125
   271   1      9.0249999999999986      41.515000000000001                   43.32
   272   1      7.2199999999999989      39.710000000000001                   46.93
   273   1      7.2199999999999989      41.515000000000001      48.734999999999999
   274   1      9.0249999999999986      39.710000000000001      48.734999999999999
   275   1      9.0249999999999986      41.515000000000001                   46.93
   276   1      7.2199999999999989      39.710000000000001      50.540000000000006
   277   1      7.2199999999999989      41.515000000000001      52.344999999999992
   278   1      9.0249999999999986      39.710000000000001      52.344999999999992
   279   1      9.0249999999999986      41.515000000000001      50.540000000000006
   280   1      7.2199999999999989      39.710000000000001      54.149999999999999
   281   1      7.2199999999999989      41.515000000000001      55.954999999999998
   282   1      9.0249999999999986      39.710000000000001      55.954999999999998
   283   1      9.0249999999999986      41.515000000000001      54.149999999999999
   284   1      7.2199999999999989      39.710000000000001      57.759999999999998
   285   1      7.2199999999999989      41.515000000000001      59.564999999999998
   286   1      9.0249999999999986      39.710000000000001      59.564999999999998
   287   1      9.0249999999999986      41.515000000000001      57.759999999999998
   288   1      7.2199999999999989      39.710000000000001      61.370000000000005
   289   1      9.0249999999999986      39.710000000000001      63.175000000000011
   290   1      9.0249999999999986      41.515000000000001      61.370000000000005
   291   1      9.0249999999999986      41.515000000000001      64.980000000000004
   292   1      9.0249999999999986                   43.32      27.074999999999999
   293   1      7.2199999999999989                  45.125      30.685000000000002
   294   1      9.0249999999999986                   43.32      30.685000000000002
   295   1      9.0249999999999986                  45.125      28.879999999999999
   296   1      7.2199999999999989                   43.32      32.490000000000002
   297   1      7.2199999999999989                  45.125      34.295000000000002
   298   1      9.0249999999999986                   43.32      34.295000000000002
   299   1      9.0249999999999986                  45.125      32.490000000000002
   300   1      7.2199999999999989                   43.32      36.100000000000001
   301   1      7.2199999999999989                  45.125      37.905000000000001
   302   1      9.0249999999999986                   43.32      37.905000000000001
   303   1      9.0249999999999986                  45.125      36.100000000000001
   304   1      7.2199999999999989                   43.32      39.710000000000001
   305   1      7.2199999999999989                  45.125      41.515000000000001
   306   1      9.0249999999999986                   43.32      41.515000000000001
   307   1      9.0249999999999986                  45.125      39.710000000000001
   308   1      7.2199999999999989                   43.32                   43.32
   309   1      7.2199999999999989                  45.125                  45.125
   310   1      9.0249999999999986                   43.32                  45.125
   311   1      9.0249999999999986                  45.125                   43.32
   312   1      7.2199999999999989                   43.32                   46.93
   313   1      7.2199999999999989                  45.125      48.734999999999999
   314   1      9.0249999999999986                   43.32      48.734999999999999
   315   1      9.0249999999999986                  45.125                   46.93
   316   1      7.2199999999999989                   43.32      50.540000000000006
   317   1      7.2199999999999989                  45.125      52.344999999999992
   318   1      9.0249999999999986                   43.32      52.344999999999992
   319   1      9.0249999999999986                  45.125      50.540000000000006
   320   1      7.2199999999999989                   43.32      54.149999999999999
   321   1      7.2199999999999989                  45.125      55.954999999999998
   322   1      9.0249999999999986                   43.32      55.954999999999998
   323   1      9.0249999999999986                  45.125      54.149999999999999
   324   1      7.2199999999999989                   43.32      57.759999999999998
   325   1      7.2199999999999989                  45.125      59.564999999999998
   326   1      9.0249999999999986                   43.32      59.564999999999998
   327   1      9.0249999999999986                  45.125      57.759999999999998
   328   1      7.2199999999999989                   43.32      61.370000000000005
   329   1      7.2199999999999989                  45.125      63.175000000000011
   330   1      9.0249999999999986                   43.32      63.175000000000011
   331   1      9.0249999999999986                  45.125      61.370000000000005
   332   1      9.0249999999999986                   43.32      66.785000000000011
   333   1      9.0249999999999986                  45.125      64.980000000000004
   334   1      9.0249999999999986                   46.93      27.074999999999999
   335   1      7.2199999999999989                   46.93      28.879999999999999
   336   1      7.2199999999999989      48.734999999999999      30.685000000000002
   337   1      9.0249999999999986                   46.93      30.685000000000002
   338   1      9.0249999999999986      48.734999999999999      28.879999999999999
   339   1      7.2199999999999989                   46.93      32.490000000000002
   340   1      7.2199999999999989      48.734999999999999      34.295000000000002
   341   1      9.0249999999999986                   46.93      34.295000000000002
   342   1      9.0249999999999986      48.734999999999999      32.490000000000002
   343   1      7.2199999999999989                   46.93      36.100000000000001
   344   1      7.2199999999999989      48.734999999999999      37.905000000000001
   345   1      9.0249999999999986                   46.93      37.905000000000001
   346   1      9.0249999999999986      48.734999999999999      36.100000000000001
   347   1      7.2199999999999989                   46.93      39.710000000000001
   348   1      7.2199999999999989      48.734999999999999      41.515000000000001
   349   1      9.0249999999999986                   46.93      41.515000000000001
   350   1      9.0249999999999986      48.734999999999999      39.710000000000001
   351   1      7.2199999999999989                   46.93                   43.32
   352   1      7.2199999999999989      48.734999999999999                  45.125
   353   1      9.0249999999999986                   46.93                  45.125
   354   1      9.0249999999999986      48.734999999999999                   43.32
   355   1      7.2199999999999989                   46.93                   46.93
   356   1      7.2199999999999989      48.734999999999999      48.734999999999999
   357   1      9.0249999999999986                   46.93      48.734999999999999
   358   1      9.0249999999999986      48.734999999999999                   46.93