model_files/Pt/Pt_3000/Pt_431/data.Pt_431_fcc_3073 (written by ASE) 

3073 	 atoms 
1  atom types
0.0                      50  xlo xhi
0.0                      50  ylo yhi
0.0                      50  zlo zhi


Atoms 

     1   1  7.1054273576010019e-15      23.520000000000007      25.480000000000004
     2   1  7.1054273576010019e-15      25.480000000000004      23.520000000000007
     3   1  7.1054273576010019e-15      25.480000000000004      27.440000000000005
     4   1  7.1054273576010019e-15      27.440000000000005      25.480000000000004
     5   1      3.9200000000000053      19.600000000000009      21.560000000000006
     6   1      3.9200000000000053      19.600000000000009      25.480000000000004
     7   1      3.9200000000000053      19.600000000000009      29.400000000000006
     8   1      3.9200000000000053      21.560000000000006      19.600000000000009
     9   1       1.960000000000008      23.520000000000007      23.520000000000007
    10   1      3.9200000000000053      21.560000000000006      23.520000000000007
    11   1      3.9200000000000053      23.520000000000007      21.560000000000006
    12   1       1.960000000000008      21.560000000000006      25.480000000000004
    13   1       1.960000000000008      23.520000000000007      27.440000000000005
    14   1      3.9200000000000053      21.560000000000006      27.440000000000005
    15   1      3.9200000000000053      23.520000000000007      25.480000000000004
    16   1      3.9200000000000053      21.560000000000006      31.360000000000003
    17   1      3.9200000000000053      23.520000000000007      29.400000000000006
    18   1      3.9200000000000053      25.480000000000004      19.600000000000009
    19   1       1.960000000000008      25.480000000000004      21.560000000000006
    20   1       1.960000000000008      27.440000000000005      23.520000000000007
    21   1      3.9200000000000053      25.480000000000004      23.520000000000007
    22   1      3.9200000000000053      27.440000000000005      21.560000000000006
    23   1       1.960000000000008      25.480000000000004      25.480000000000004
    24   1       1.960000000000008      27.440000000000005      27.440000000000005
    25   1      3.9200000000000053      25.480000000000004      27.440000000000005
    26   1      3.9200000000000053      27.440000000000005      25.480000000000004
    27   1       1.960000000000008      25.480000000000004      29.400000000000006
    28   1      3.9200000000000053      25.480000000000004      31.360000000000003
    29   1      3.9200000000000053      27.440000000000005      29.400000000000006
    30   1      3.9200000000000053      29.400000000000006      19.600000000000009
    31   1      3.9200000000000053      29.400000000000006      23.520000000000007
    32   1      3.9200000000000053      31.360000000000003      21.560000000000006
    33   1       1.960000000000008      29.400000000000006      25.480000000000004
    34   1      3.9200000000000053      29.400000000000006      27.440000000000005
    35   1      3.9200000000000053      31.360000000000003      25.480000000000004
    36   1      3.9200000000000053      29.400000000000006      31.360000000000003
    37   1      3.9200000000000053      31.360000000000003      29.400000000000006
    38   1       7.840000000000007      15.680000000000009      17.640000000000008
    39   1       7.840000000000007      13.720000000000008      23.520000000000007
    40   1       7.840000000000007      15.680000000000009      21.560000000000006
    41   1       7.840000000000007      13.720000000000008      27.440000000000005
    42   1       7.840000000000007      15.680000000000009      25.480000000000004
    43   1       7.840000000000007      15.680000000000009      29.400000000000006
    44   1       7.840000000000007      15.680000000000009      33.320000000000007
    45   1       7.840000000000007      17.640000000000008      15.680000000000009
    46   1      5.8800000000000061      19.600000000000009      19.600000000000009
    47   1       7.840000000000007      17.640000000000008      19.600000000000009
    48   1       7.840000000000007      19.600000000000009      17.640000000000008
    49   1      5.8800000000000061      17.640000000000008      21.560000000000006
    50   1      5.8800000000000061      19.600000000000009      23.520000000000007
    51   1       7.840000000000007      17.640000000000008      23.520000000000007
    52   1       7.840000000000007      19.600000000000009      21.560000000000006
    53   1      5.8800000000000061      17.640000000000008      25.480000000000004
    54   1      5.8800000000000061      19.600000000000009      27.440000000000005
    55   1       7.840000000000007      17.640000000000008      27.440000000000005
    56   1       7.840000000000007      19.600000000000009      25.480000000000004
    57   1      5.8800000000000061      17.640000000000008      29.400000000000006
    58   1      5.8800000000000061      19.600000000000009      31.360000000000003
    59   1       7.840000000000007      17.640000000000008      31.360000000000003
    60   1       7.840000000000007      19.600000000000009      29.400000000000006
    61   1       7.840000000000007      17.640000000000008      35.280000000000008
    62   1       7.840000000000007      19.600000000000009      33.320000000000007
    63   1       7.840000000000007      21.560000000000006      15.680000000000009
    64   1       7.840000000000007      23.520000000000007      13.720000000000008
    65   1      5.8800000000000061      21.560000000000006      17.640000000000008
    66   1      5.8800000000000061      23.520000000000007      19.600000000000009
    67   1       7.840000000000007      21.560000000000006      19.600000000000009
    68   1       7.840000000000007      23.520000000000007      17.640000000000008
    69   1      5.8800000000000061      21.560000000000006      21.560000000000006
    70   1      5.8800000000000061      23.520000000000007      23.520000000000007
    71   1       7.840000000000007      21.560000000000006      23.520000000000007
    72   1       7.840000000000007      23.520000000000007      21.560000000000006
    73   1      5.8800000000000061      21.560000000000006      25.480000000000004
    74   1      5.8800000000000061      23.520000000000007      27.440000000000005
    75   1       7.840000000000007      21.560000000000006      27.440000000000005
    76   1       7.840000000000007      23.520000000000007      25.480000000000004
    77   1      5.8800000000000061      21.560000000000006      29.400000000000006
    78   1      5.8800000000000061      23.520000000000007      31.360000000000003
    79   1       7.840000000000007      21.560000000000006      31.360000000000003
    80   1       7.840000000000007      23.520000000000007      29.400000000000006
    81   1      5.8800000000000061      21.560000000000006      33.320000000000007
    82   1       7.840000000000007      21.560000000000006      35.280000000000008
    83   1       7.840000000000007      23.520000000000007      33.320000000000007
    84   1       7.840000000000007      23.520000000000007      37.240000000000009
    85   1       7.840000000000007      25.480000000000004      15.680000000000009
    86   1       7.840000000000007      27.440000000000005      13.720000000000008
    87   1      5.8800000000000061      25.480000000000004      17.640000000000008
    88   1      5.8800000000000061      27.440000000000005      19.600000000000009
    89   1       7.840000000000007      25.480000000000004      19.600000000000009
    90   1       7.840000000000007      27.440000000000005      17.640000000000008
    91   1      5.8800000000000061      25.480000000000004      21.560000000000006
    92   1      5.8800000000000061      27.440000000000005      23.520000000000007
    93   1       7.840000000000007      25.480000000000004      23.520000000000007
    94   1       7.840000000000007      27.440000000000005      21.560000000000006
    95   1      5.8800000000000061      25.480000000000004      25.480000000000004
    96   1      5.8800000000000061      27.440000000000005      27.440000000000005
    97   1       7.840000000000007      25.480000000000004      27.440000000000005
    98   1       7.840000000000007      27.440000000000005      25.480000000000004
    99   1      5.8800000000000061      25.480000000000004      29.400000000000006
   100   1      5.8800000000000061      27.440000000000005      31.360000000000003
   101   1       7.840000000000007      25.480000000000004      31.360000000000003
   102   1       7.840000000000007      27.440000000000005      29.400000000000006
   103   1      5.8800000000000061      25.480000000000004      33.320000000000007
   104   1       7.840000000000007      25.480000000000004      35.280000000000008
   105   1       7.840000000000007      27.440000000000005      33.320000000000007
   106   1       7.840000000000007      27.440000000000005      37.240000000000009
   107   1       7.840000000000007      29.400000000000006      15.680000000000009
   108   1      5.8800000000000061      29.400000000000006      17.640000000000008
   109   1      5.8800000000000061      31.360000000000003      19.600000000000009
   110   1       7.840000000000007      29.400000000000006      19.600000000000009
   111   1       7.840000000000007      31.360000000000003      17.640000000000008
   112   1      5.8800000000000061      29.400000000000006      21.560000000000006
   113   1      5.8800000000000061      31.360000000000003      23.520000000000007
   114   1       7.840000000000007      29.400000000000006      23.520000000000007
   115   1       7.840000000000007      31.360000000000003      21.560000000000006
   116   1      5.8800000000000061      29.400000000000006      25.480000000000004
   117   1      5.8800000000000061      31.360000000000003      27.440000000000005
   118   1       7.840000000000007      29.400000000000006      27.440000000000005
   119   1       7.840000000000007      31.360000000000003      25.480000000000004
   120   1      5.8800000000000061      29.400000000000006      29.400000000000006
   121   1      5.8800000000000061      31.360000000000003      31.360000000000003
   122   1       7.840000000000007      29.400000000000006      31.360000000000003
   123   1       7.840000000000007      31.360000000000003      29.400000000000006
   124   1      5.8800000000000061      29.400000000000006      33.320000000000007
   125   1       7.840000000000007      29.400000000000006      35.280000000000008
   126   1       7.840000000000007      31.360000000000003      33.320000000000007
   127   1       7.840000000000007      33.320000000000007      15.680000000000009
   128   1       7.840000000000007      33.320000000000007      19.600000000000009
   129   1       7.840000000000007      35.280000000000008      17.640000000000008
   130   1      5.8800000000000061      33.320000000000007      21.560000000000006
   131   1       7.840000000000007      33.320000000000007      23.520000000000007
   132   1       7.840000000000007      35.280000000000008      21.560000000000006
   133   1      5.8800000000000061      33.320000000000007      25.480000000000004
   134   1       7.840000000000007      33.320000000000007      27.440000000000005
   135   1       7.840000000000007      35.280000000000008      25.480000000000004
   136   1      5.8800000000000061      33.320000000000007      29.400000000000006
   137   1       7.840000000000007      33.320000000000007      31.360000000000003
   138   1       7.840000000000007      35.280000000000008      29.400000000000006
   139   1       7.840000000000007      33.320000000000007      35.280000000000008
   140   1       7.840000000000007      35.280000000000008      33.320000000000007
   141   1       7.840000000000007      37.240000000000009      23.520000000000007
   142   1       7.840000000000007      37.240000000000009      27.440000000000005
   143   1      11.760000000000005      11.760000000000005      13.720000000000008
   144   1      11.760000000000005      11.760000000000005      17.640000000000008
   145   1       9.800000000000006      11.760000000000005      23.520000000000007
   146   1      11.760000000000005       9.800000000000006      23.520000000000007
   147   1      11.760000000000005      11.760000000000005      21.560000000000006
   148   1       9.800000000000006      11.760000000000005      27.440000000000005
   149   1      11.760000000000005       9.800000000000006      27.440000000000005
   150   1      11.760000000000005      11.760000000000005      25.480000000000004
   151   1      11.760000000000005      11.760000000000005      29.400000000000006
   152   1      11.760000000000005      11.760000000000005      33.320000000000007
   153   1      11.760000000000005      11.760000000000005      37.240000000000009
   154   1      11.760000000000005      13.720000000000008      11.760000000000005
   155   1       9.800000000000006      15.680000000000009      15.680000000000009
   156   1      11.760000000000005      13.720000000000008      15.680000000000009
   157   1      11.760000000000005      15.680000000000009      13.720000000000008
   158   1       9.800000000000006      13.720000000000008      17.640000000000008
   159   1       9.800000000000006      15.680000000000009      19.600000000000009
   160   1      11.760000000000005      13.720000000000008      19.600000000000009
   161   1      11.760000000000005      15.680000000000009      17.640000000000008
   162   1       9.800000000000006      13.720000000000008      21.560000000000006
   163   1       9.800000000000006      15.680000000000009      23.520000000000007
   164   1      11.760000000000005      13.720000000000008      23.520000000000007
   165   1      11.760000000000005      15.680000000000009      21.560000000000006
   166   1       9.800000000000006      13.720000000000008      25.480000000000004
   167   1       9.800000000000006      15.680000000000009      27.440000000000005
   168   1      11.760000000000005      13.720000000000008      27.440000000000005
   169   1      11.760000000000005      15.680000000000009      25.480000000000004
   170   1       9.800000000000006      13.720000000000008      29.400000000000006
   171   1       9.800000000000006      15.680000000000009      31.360000000000003
   172   1      11.760000000000005      13.720000000000008      31.360000000000003
   173   1      11.760000000000005      15.680000000000009      29.400000000000006
   174   1       9.800000000000006      13.720000000000008      33.320000000000007
   175   1       9.800000000000006      15.680000000000009      35.280000000000008
   176   1      11.760000000000005      13.720000000000008      35.280000000000008
   177   1      11.760000000000005      15.680000000000009      33.320000000000007
   178   1      11.760000000000005      13.720000000000008       39.20000000000001
   179   1      11.760000000000005      15.680000000000009      37.240000000000009
   180   1      11.760000000000005      17.640000000000008      11.760000000000005
   181   1       9.800000000000006      17.640000000000008      13.720000000000008
   182   1       9.800000000000006      19.600000000000009      15.680000000000009
   183   1      11.760000000000005      17.640000000000008      15.680000000000009
   184   1      11.760000000000005      19.600000000000009      13.720000000000008
   185   1       9.800000000000006      17.640000000000008      17.640000000000008
   186   1       9.800000000000006      19.600000000000009      19.600000000000009
   187   1      11.760000000000005      17.640000000000008      19.600000000000009
   188   1      11.760000000000005      19.600000000000009      17.640000000000008
   189   1       9.800000000000006      17.640000000000008      21.560000000000006
   190   1       9.800000000000006      19.600000000000009      23.520000000000007
   191   1      11.760000000000005      17.640000000000008      23.520000000000007
   192   1      11.760000000000005      19.600000000000009      21.560000000000006
   193   1       9.800000000000006      17.640000000000008      25.480000000000004
   194   1       9.800000000000006      19.600000000000009      27.440000000000005
   195   1      11.760000000000005      17.640000000000008      27.440000000000005
   196   1      11.760000000000005      19.600000000000009      25.480000000000004
   197   1       9.800000000000006      17.640000000000008      29.400000000000006
   198   1       9.800000000000006      19.600000000000009      31.360000000000003
   199   1      11.760000000000005      17.640000000000008      31.360000000000003
   200   1      11.760000000000005      19.600000000000009      29.400000000000006
   201   1       9.800000000000006      17.640000000000008      33.320000000000007
   202   1       9.800000000000006      19.600000000000009      35.280000000000008
   203   1      11.760000000000005      17.640000000000008      35.280000000000008
   204   1      11.760000000000005      19.600000000000009      33.320000000000007
   205   1       9.800000000000006      17.640000000000008      37.240000000000009
   206   1      11.760000000000005      17.640000000000008       39.20000000000001
   207   1      11.760000000000005      19.600000000000009      37.240000000000009
   208   1       9.800000000000006      23.520000000000007      11.760000000000005
   209   1      11.760000000000005      21.560000000000006      11.760000000000005
   210   1      11.760000000000005      23.520000000000007       9.800000000000006
   211   1       9.800000000000006      21.560000000000006      13.720000000000008
   212   1       9.800000000000006      23.520000000000007      15.680000000000009
   213   1      11.760000000000005      21.560000000000006      15.680000000000009
   214   1      11.760000000000005      23.520000000000007      13.720000000000008
   215   1       9.800000000000006      21.560000000000006      17.640000000000008
   216   1       9.800000000000006      23.520000000000007      19.600000000000009
   217   1      11.760000000000005      21.560000000000006      19.600000000000009
   218   1      11.760000000000005      23.520000000000007      17.640000000000008
   219   1       9.800000000000006      21.560000000000006      21.560000000000006
   220   1       9.800000000000006      23.520000000000007      23.520000000000007
   221   1      11.760000000000005      21.560000000000006      23.520000000000007
   222   1      11.760000000000005      23.520000000000007      21.560000000000006
   223   1       9.800000000000006      21.560000000000006      25.480000000000004
   224   1       9.800000000000006      23.520000000000007      27.440000000000005
   225   1      11.760000000000005      21.560000000000006      27.440000000000005
   226   1      11.760000000000005      23.520000000000007      25.480000000000004
   227   1       9.800000000000006      21.560000000000006      29.400000000000006
   228   1       9.800000000000006      23.520000000000007      31.360000000000003
   229   1      11.760000000000005      21.560000000000006      31.360000000000003
   230   1      11.760000000000005      23.520000000000007      29.400000000000006
   231   1       9.800000000000006      21.560000000000006      33.320000000000007
   232   1       9.800000000000006      23.520000000000007      35.280000000000008
   233   1      11.760000000000005      21.560000000000006      35.280000000000008
   234   1      11.760000000000005      23.520000000000007      33.320000000000007
   235   1       9.800000000000006      21.560000000000006      37.240000000000009
   236   1       9.800000000000006      23.520000000000007       39.20000000000001
   237   1      11.760000000000005      21.560000000000006       39.20000000000001
   238   1      11.760000000000005      23.520000000000007      37.240000000000009
   239   1      11.760000000000005      23.520000000000007      41.160000000000004
   240   1       9.800000000000006      27.440000000000005      11.760000000000005
   241   1      11.760000000000005      25.480000000000004      11.760000000000005
   242   1      11.760000000000005      27.440000000000005       9.800000000000006
   243   1       9.800000000000006      25.480000000000004      13.720000000000008
   244   1       9.800000000000006      27.440000000000005      15.680000000000009
   245   1      11.760000000000005      25.480000000000004      15.680000000000009
   246   1      11.760000000000005      27.440000000000005      13.720000000000008
   247   1       9.800000000000006      25.480000000000004      17.640000000000008
   248   1       9.800000000000006      27.440000000000005      19.600000000000009
   249   1      11.760000000000005      25.480000000000004      19.600000000000009
   250   1      11.760000000000005      27.440000000000005      17.640000000000008
   251   1       9.800000000000006      25.480000000000004      21.560000000000006
   252   1       9.800000000000006      27.440000000000005      23.520000000000007
   253   1      11.760000000000005      25.480000000000004      23.520000000000007
   254   1      11.760000000000005      27.440000000000005      21.560000000000006
   255   1       9.800000000000006      25.480000000000004      25.480000000000004
   256   1       9.800000000000006      27.440000000000005      27.440000000000005
   257   1      11.760000000000005      25.480000000000004      27.440000000000005
   258   1      11.760000000000005      27.440000000000005      25.480000000000004
   259   1       9.800000000000006      25.480000000000004      29.400000000000006
   260   1       9.800000000000006      27.440000000000005      31.360000000000003
   261   1      11.760000000000005      25.480000000000004      31.360000000000003
   262   1      11.760000000000005      27.440000000000005      29.400000000000006
   263   1       9.800000000000006      25.480000000000004      33.320000000000007
   264   1       9.800000000000006      27.440000000000005      35.280000000000008
   265   1      11.760000000000005      25.480000000000004      35.280000000000008
   266   1      11.760000000000005      27.440000000000005      33.320000000000007
   267   1       9.800000000000006      25.480000000000004      37.240000000000009
   268   1       9.800000000000006      27.440000000000005       39.20000000000001
   269   1      11.760000000000005      25.480000000000004       39.20000000000001
   270   1      11.760000000000005      27.440000000000005      37.240000000000009
   271   1      11.760000000000005      27.440000000000005      41.160000000000004
   272   1      11.760000000000005      29.400000000000006      11.760000000000005
   273   1       9.800000000000006      29.400000000000006      13.720000000000008
   274   1       9.800000000000006      31.360000000000003      15.680000000000009
   275   1      11.760000000000005      29.400000000000006      15.680000000000009
   276   1      11.760000000000005      31.360000000000003      13.720000000000008
   277   1       9.800000000000006      29.400000000000006      17.640000000000008
   278   1       9.800000000000006      31.360000000000003      19.600000000000009
   279   1      11.760000000000005      29.400000000000006      19.600000000000009
   280   1      11.760000000000005      31.360000000000003      17.640000000000008
   281   1       9.800000000000006      29.400000000000006      21.560000000000006
   282   1       9.800000000000006      31.360000000000003      23.520000000000007
   283   1      11.760000000000005      29.400000000000006      23.520000000000007
   284   1      11.760000000000005      31.360000000000003      21.560000000000006
   285   1       9.800000000000006      29.400000000000006      25.480000000000004
   286   1       9.800000000000006      31.360000000000003      27.440000000000005
   287   1      11.760000000000005      29.400000000000006      27.440000000000005
   288   1      11.760000000000005      31.360000000000003      25.480000000000004
   289   1       9.800000000000006      29.400000000000006      29.400000000000006
   290   1       9.800000000000006      31.360000000000003      31.360000000000003
   291   1      11.760000000000005      29.400000000000006      31.360000000000003
   292   1      11.760000000000005      31.360000000000003      29.400000000000006
   293   1       9.800000000000006      29.400000000000006      33.320000000000007
   294   1       9.800000000000006      31.360000000000003      35.280000000000008
   295   1      11.760000000000005      29.400000000000006      35.280000000000008
   296   1      11.760000000000005      31.360000000000003      33.320000000000007
   297   1       9.800000000000006      29.400000000000006      37.240000000000009
   298   1      11.760000000000005      29.400000000000006       39.20000000000001
   299   1      11.760000000000005      31.360000000000003      37.240000000000009
   300   1      11.760000000000005      33.320000000000007      11.760000000000005
   301   1       9.800000000000006      33.320000000000007      13.720000000000008
   302   1       9.800000000000006      35.280000000000008      15.680000000000009
   303   1      11.760000000000005      33.320000000000007      15.680000000000009
   304   1      11.760000000000005      35.280000000000008      13.720000000000008
   305   1       9.800000000000006      33.320000000000007      17.640000000000008
   306   1       9.800000000000006      35.280000000000008      19.600000000000009
   307   1      11.760000000000005      33.320000000000007      19.600000000000009
   308   1      11.760000000000005      35.280000000000008      17.640000000000008
   309   1       9.800000000000006      33.320000000000007      21.560000000000006
   310   1       9.800000000000006      35.280000000000008      23.520000000000007
   311   1      11.760000000000005      33.320000000000007      23.520000000000007
   312   1      11.760000000000005      35.280000000000008      21.560000000000006
   313   1       9.800000000000006      33.320000000000007      25.480000000000004
   314   1       9.800000000000006      35.280000000000008      27.440000000000005
   315   1      11.760000000000005      33.320000000000007      27.440000000000005
   316   1      11.760000000000005      35.280000000000008      25.480000000000004
   317   1       9.800000000000006      33.320000000000007      29.400000000000006
   318   1       9.800000000000006      35.280000000000008      31.360000000000003
   319   1      11.760000000000005      33.320000000000007      31.360000000000003
   320   1      11.760000000000005      35.280000000000008      29.400000000000006
   321   1       9.800000000000006      33.320000000000007      33.320000000000007
   322   1       9.800000000000006      35.280000000000008      35.280000000000008
   323   1      11.760000000000005      33.320000000000007      35.280000000000008
   324   1      11.760000000000005      35.280000000000008      33.320000000000007
   325   1       9.800000000000006      33.320000000000007      37.240000000000009
   326   1      11.760000000000005      33.320000000000007       39.20000000000001
   327   1      11.760000000000005      35.280000000000008      37.240000000000009
   328   1      11.760000000000005      37.240000000000009      11.760000000000005
   329   1      11.760000000000005      37.240000000000009      15.680000000000009
   330   1      11.760000000000005       39.20000000000001      13.720000000000008
   331   1       9.800000000000006      37.240000000000009      17.640000000000008
   332   1      11.760000000000005      37.240000000000009      19.600000000000009
   333   1      11.760000000000005       39.20000000000001      17.640000000000008
   334   1       9.800000000000006      37.240000000000009      21.560000000000006
   335   1       9.800000000000006       39.20000000000001      23.520000000000007
   336   1      11.760000000000005      37.240000000000009      23.520000000000007
   337   1      11.760000000000005       39.20000000000001      21.560000000000006
   338   1       9.800000000000006      37.240000000000009      25.480000000000004
   339   1       9.800000000000006       39.20000000000001      27.440000000000005
   340   1      11.760000000000005      37.240000000000009      27.440000000000005
   341   1      11.760000000000005       39.20000000000001      25.480000000000004
   342   1       9.800000000000006      37.240000000000009      29.400000000000006
   343   1      11.760000000000005      37.240000000000009      31.360000000000003
   344   1      11.760000000000005       39.20000000000001      29.400000000000006
   345   1       9.800000000000006      37.240000000000009      33.320000000000007
   346   1      11.760000000000005      37.240000000000009      35.280000000000008
   347   1      11.760000000000005       39.20000000000001      33.320000000000007
   348   1      11.760000000000005      37.240000000000009       39.20000000000001
   349   1      11.760000000000005       39.20000000000001      37.240000000000009
   350   1      11.760000000000005      41.160000000000004      23.520000000000007
   351   1      11.760000000000005      41.160000000000004      27.440000000000005
   352   1      15.680000000000009       7.840000000000007      17.640000000000008
   353   1      13.720000000000008       7.840000000000007      23.520000000000007
   354   1      15.680000000000009       7.840000000000007      21.560000000000006
   355   1      13.720000000000008       7.840000000000007      27.440000000000005
   356   1      15.680000000000009       7.840000000000007      25.480000000000004
   357   1      15.680000000000009       7.840000000000007      29.400000000000006
   358   1      15.680000000000009       7.840000000000007      33.320000000000007