model_files/PtCo/PtCo_30000/PtCo_311/PtCo_311_fcc_30453_temp.data (written by ASE) 

30453 	 atoms 
2  atom types
0.0                      93  xlo xhi
0.0                      93  ylo yhi
0.0                      93  zlo zhi


Atoms 

     1   1  1.4210854715202004e-14      43.800000000000011      45.625000000000014
     2   1  1.4210854715202004e-14      45.625000000000014      43.800000000000011
     3   1  1.4210854715202004e-14      45.625000000000014      47.450000000000017
     4   1  1.4210854715202004e-14      47.450000000000017      45.625000000000014
     5   1      3.6500000000000128      32.850000000000023      45.625000000000014
     6   1      3.6500000000000128      34.675000000000018      43.800000000000011
     7   1      3.6500000000000128      36.500000000000021      41.975000000000009
     8   1      3.6500000000000128      34.675000000000018      47.450000000000017
     9   1      3.6500000000000128      36.500000000000021      45.625000000000014
    10   1      3.6500000000000128      36.500000000000021      49.275000000000013
    11   1      3.6500000000000128       38.32500000000001      40.150000000000013
    12   1      3.6500000000000128      40.150000000000013       38.32500000000001
    13   1      1.8250000000000102      40.150000000000013      43.800000000000011
    14   1      3.6500000000000128       38.32500000000001      43.800000000000011
    15   1      3.6500000000000128      40.150000000000013      41.975000000000009
    16   1      1.8250000000000102       38.32500000000001      45.625000000000014
    17   1      1.8250000000000102      40.150000000000013      47.450000000000017
    18   1      3.6500000000000128       38.32500000000001      47.450000000000017
    19   1      3.6500000000000128      40.150000000000013      45.625000000000014
    20   1      3.6500000000000128       38.32500000000001      51.100000000000016
    21   1      3.6500000000000128      40.150000000000013      49.275000000000013
    22   1      3.6500000000000128      40.150000000000013      52.925000000000011
    23   1      3.6500000000000128      41.975000000000009      36.500000000000021
    24   1      3.6500000000000128      43.800000000000011      34.675000000000018
    25   1      1.8250000000000102      43.800000000000011      40.150000000000013
    26   1      3.6500000000000128      41.975000000000009      40.150000000000013
    27   1      3.6500000000000128      43.800000000000011       38.32500000000001
    28   1      1.8250000000000102      41.975000000000009      41.975000000000009
    29   1      1.8250000000000102      43.800000000000011      43.800000000000011
    30   1      3.6500000000000128      41.975000000000009      43.800000000000011
    31   1      3.6500000000000128      43.800000000000011      41.975000000000009
    32   1      1.8250000000000102      41.975000000000009      45.625000000000014
    33   1      1.8250000000000102      43.800000000000011      47.450000000000017
    34   1      3.6500000000000128      41.975000000000009      47.450000000000017
    35   1      3.6500000000000128      43.800000000000011      45.625000000000014
    36   1      1.8250000000000102      41.975000000000009      49.275000000000013
    37   1      1.8250000000000102      43.800000000000011      51.100000000000016
    38   1      3.6500000000000128      41.975000000000009      51.100000000000016
    39   1      3.6500000000000128      43.800000000000011      49.275000000000013
    40   1      3.6500000000000128      41.975000000000009      54.750000000000021
    41   1      3.6500000000000128      43.800000000000011      52.925000000000011
    42   1      3.6500000000000128      43.800000000000011      56.575000000000017
    43   1      3.6500000000000128      45.625000000000014      32.850000000000023
    44   1      3.6500000000000128      45.625000000000014      36.500000000000021
    45   1      3.6500000000000128      47.450000000000017      34.675000000000018
    46   1      1.8250000000000102      45.625000000000014       38.32500000000001
    47   1      1.8250000000000102      47.450000000000017      40.150000000000013
    48   1      3.6500000000000128      45.625000000000014      40.150000000000013
    49   1      3.6500000000000128      47.450000000000017       38.32500000000001
    50   1      1.8250000000000102      45.625000000000014      41.975000000000009
    51   1      1.8250000000000102      47.450000000000017      43.800000000000011
    52   1      3.6500000000000128      45.625000000000014      43.800000000000011
    53   1      3.6500000000000128      47.450000000000017      41.975000000000009
    54   1      1.8250000000000102      45.625000000000014      45.625000000000014
    55   1      1.8250000000000102      47.450000000000017      47.450000000000017
    56   1      3.6500000000000128      45.625000000000014      47.450000000000017
    57   1      3.6500000000000128      47.450000000000017      45.625000000000014
    58   1      1.8250000000000102      45.625000000000014      49.275000000000013
    59   1      1.8250000000000102      47.450000000000017      51.100000000000016
    60   1      3.6500000000000128      45.625000000000014      51.100000000000016
    61   1      3.6500000000000128      47.450000000000017      49.275000000000013
    62   1      1.8250000000000102      45.625000000000014      52.925000000000011
    63   1      3.6500000000000128      45.625000000000014      54.750000000000021
    64   1      3.6500000000000128      47.450000000000017      52.925000000000011
    65   1      3.6500000000000128      45.625000000000014       58.40000000000002
    66   1      3.6500000000000128      47.450000000000017      56.575000000000017
    67   1      3.6500000000000128      49.275000000000013      36.500000000000021
    68   1      3.6500000000000128      49.275000000000013      40.150000000000013
    69   1      3.6500000000000128      51.100000000000016       38.32500000000001
    70   1      1.8250000000000102      49.275000000000013      41.975000000000009
    71   1      1.8250000000000102      51.100000000000016      43.800000000000011
    72   1      3.6500000000000128      49.275000000000013      43.800000000000011
    73   1      3.6500000000000128      51.100000000000016      41.975000000000009
    74   1      1.8250000000000102      49.275000000000013      45.625000000000014
    75   1      1.8250000000000102      51.100000000000016      47.450000000000017
    76   1      3.6500000000000128      49.275000000000013      47.450000000000017
    77   1      3.6500000000000128      51.100000000000016      45.625000000000014
    78   1      1.8250000000000102      49.275000000000013      49.275000000000013
    79   1      3.6500000000000128      49.275000000000013      51.100000000000016
    80   1      3.6500000000000128      51.100000000000016      49.275000000000013
    81   1      3.6500000000000128      49.275000000000013      54.750000000000021
    82   1      3.6500000000000128      51.100000000000016      52.925000000000011
    83   1      3.6500000000000128      52.925000000000011      40.150000000000013
    84   1      3.6500000000000128      52.925000000000011      43.800000000000011
    85   1      3.6500000000000128      54.750000000000021      41.975000000000009
    86   1      1.8250000000000102      52.925000000000011      45.625000000000014
    87   1      3.6500000000000128      52.925000000000011      47.450000000000017
    88   1      3.6500000000000128      54.750000000000021      45.625000000000014
    89   1      3.6500000000000128      52.925000000000011      51.100000000000016
    90   1      3.6500000000000128      54.750000000000021      49.275000000000013
    91   1      3.6500000000000128      56.575000000000017      43.800000000000011
    92   1      3.6500000000000128      56.575000000000017      47.450000000000017
    93   1      3.6500000000000128       58.40000000000002      45.625000000000014
    94   1      7.3000000000000114      21.900000000000013      45.625000000000014
    95   1      7.3000000000000114      23.725000000000012      43.800000000000011
    96   1      7.3000000000000114      25.550000000000015      41.975000000000009
    97   1      7.3000000000000114      23.725000000000012      47.450000000000017
    98   1      7.3000000000000114      25.550000000000015      45.625000000000014
    99   1      7.3000000000000114      25.550000000000015      49.275000000000013
   100   1      7.3000000000000114      27.375000000000011      40.150000000000013
   101   1      7.3000000000000114      29.200000000000014       38.32500000000001
   102   1      5.4750000000000085      29.200000000000014      43.800000000000011
   103   1      7.3000000000000114      27.375000000000011      43.800000000000011
   104   1      7.3000000000000114      29.200000000000014      41.975000000000009
   105   1      5.4750000000000085      27.375000000000011      45.625000000000014
   106   1      5.4750000000000085      29.200000000000014      47.450000000000017
   107   1      7.3000000000000114      27.375000000000011      47.450000000000017
   108   1      7.3000000000000114      29.200000000000014      45.625000000000014
   109   1      7.3000000000000114      27.375000000000011      51.100000000000016
   110   1      7.3000000000000114      29.200000000000014      49.275000000000013
   111   1      7.3000000000000114      29.200000000000014      52.925000000000011
   112   1      7.3000000000000114      31.025000000000016      36.500000000000021
   113   1      7.3000000000000114      32.850000000000023      34.675000000000018
   114   1      5.4750000000000085      32.850000000000023      40.150000000000013
   115   1      7.3000000000000114      31.025000000000016      40.150000000000013
   116   1      7.3000000000000114      32.850000000000023       38.32500000000001
   117   1      5.4750000000000085      31.025000000000016      41.975000000000009
   118   1      5.4750000000000085      32.850000000000023      43.800000000000011
   119   1      7.3000000000000114      31.025000000000016      43.800000000000011
   120   1      7.3000000000000114      32.850000000000023      41.975000000000009
   121   1      5.4750000000000085      31.025000000000016      45.625000000000014
   122   1      5.4750000000000085      32.850000000000023      47.450000000000017
   123   1      7.3000000000000114      31.025000000000016      47.450000000000017
   124   1      7.3000000000000114      32.850000000000023      45.625000000000014
   125   1      5.4750000000000085      31.025000000000016      49.275000000000013
   126   1      5.4750000000000085      32.850000000000023      51.100000000000016
   127   1      7.3000000000000114      31.025000000000016      51.100000000000016
   128   1      7.3000000000000114      32.850000000000023      49.275000000000013
   129   1      7.3000000000000114      31.025000000000016      54.750000000000021
   130   1      7.3000000000000114      32.850000000000023      52.925000000000011
   131   1      7.3000000000000114      32.850000000000023      56.575000000000017
   132   1      7.3000000000000114      34.675000000000018      32.850000000000023
   133   1      7.3000000000000114      36.500000000000021      31.025000000000016
   134   1      5.4750000000000085      36.500000000000021      36.500000000000021
   135   1      7.3000000000000114      34.675000000000018      36.500000000000021
   136   1      7.3000000000000114      36.500000000000021      34.675000000000018
   137   1      5.4750000000000085      34.675000000000018       38.32500000000001
   138   1      5.4750000000000085      36.500000000000021      40.150000000000013
   139   1      7.3000000000000114      34.675000000000018      40.150000000000013
   140   1      7.3000000000000114      36.500000000000021       38.32500000000001
   141   1      5.4750000000000085      34.675000000000018      41.975000000000009
   142   1      5.4750000000000085      36.500000000000021      43.800000000000011
   143   1      7.3000000000000114      34.675000000000018      43.800000000000011
   144   1      7.3000000000000114      36.500000000000021      41.975000000000009
   145   1      5.4750000000000085      34.675000000000018      45.625000000000014
   146   1      5.4750000000000085      36.500000000000021      47.450000000000017
   147   1      7.3000000000000114      34.675000000000018      47.450000000000017
   148   1      7.3000000000000114      36.500000000000021      45.625000000000014
   149   1      5.4750000000000085      34.675000000000018      49.275000000000013
   150   1      5.4750000000000085      36.500000000000021      51.100000000000016
   151   1      7.3000000000000114      34.675000000000018      51.100000000000016
   152   1      7.3000000000000114      36.500000000000021      49.275000000000013
   153   1      5.4750000000000085      34.675000000000018      52.925000000000011
   154   1      5.4750000000000085      36.500000000000021      54.750000000000021
   155   1      7.3000000000000114      34.675000000000018      54.750000000000021
   156   1      7.3000000000000114      36.500000000000021      52.925000000000011
   157   1      7.3000000000000114      34.675000000000018       58.40000000000002
   158   1      7.3000000000000114      36.500000000000021      56.575000000000017
   159   1      7.3000000000000114      36.500000000000021      60.225000000000009
   160   1      7.3000000000000114       38.32500000000001      29.200000000000014
   161   1      7.3000000000000114      40.150000000000013      27.375000000000011
   162   1      5.4750000000000085      40.150000000000013      32.850000000000023
   163   1      7.3000000000000114       38.32500000000001      32.850000000000023
   164   1      7.3000000000000114      40.150000000000013      31.025000000000016
   165   1      5.4750000000000085       38.32500000000001      34.675000000000018
   166   1      5.4750000000000085      40.150000000000013      36.500000000000021
   167   1      7.3000000000000114       38.32500000000001      36.500000000000021
   168   1      7.3000000000000114      40.150000000000013      34.675000000000018
   169   1      5.4750000000000085       38.32500000000001       38.32500000000001
   170   1      5.4750000000000085      40.150000000000013      40.150000000000013
   171   1      7.3000000000000114       38.32500000000001      40.150000000000013
   172   1      7.3000000000000114      40.150000000000013       38.32500000000001
   173   1      5.4750000000000085       38.32500000000001      41.975000000000009
   174   1      5.4750000000000085      40.150000000000013      43.800000000000011
   175   1      7.3000000000000114       38.32500000000001      43.800000000000011
   176   1      7.3000000000000114      40.150000000000013      41.975000000000009
   177   1      5.4750000000000085       38.32500000000001      45.625000000000014
   178   1      5.4750000000000085      40.150000000000013      47.450000000000017
   179   1      7.3000000000000114       38.32500000000001      47.450000000000017
   180   1      7.3000000000000114      40.150000000000013      45.625000000000014
   181   1      5.4750000000000085       38.32500000000001      49.275000000000013
   182   1      5.4750000000000085      40.150000000000013      51.100000000000016
   183   1      7.3000000000000114       38.32500000000001      51.100000000000016
   184   1      7.3000000000000114      40.150000000000013      49.275000000000013
   185   1      5.4750000000000085       38.32500000000001      52.925000000000011
   186   1      5.4750000000000085      40.150000000000013      54.750000000000021
   187   1      7.3000000000000114       38.32500000000001      54.750000000000021
   188   1      7.3000000000000114      40.150000000000013      52.925000000000011
   189   1      5.4750000000000085       38.32500000000001      56.575000000000017
   190   1      5.4750000000000085      40.150000000000013       58.40000000000002
   191   1      7.3000000000000114       38.32500000000001       58.40000000000002
   192   1      7.3000000000000114      40.150000000000013      56.575000000000017
   193   1      7.3000000000000114       38.32500000000001      62.050000000000011
   194   1      7.3000000000000114      40.150000000000013      60.225000000000009
   195   1      7.3000000000000114      40.150000000000013      63.875000000000014
   196   1      7.3000000000000114      41.975000000000009      25.550000000000015
   197   1      7.3000000000000114      43.800000000000011      23.725000000000012
   198   1      5.4750000000000085      43.800000000000011      29.200000000000014
   199   1      7.3000000000000114      41.975000000000009      29.200000000000014
   200   1      7.3000000000000114      43.800000000000011      27.375000000000011
   201   1      5.4750000000000085      41.975000000000009      31.025000000000016
   202   1      5.4750000000000085      43.800000000000011      32.850000000000023
   203   1      7.3000000000000114      41.975000000000009      32.850000000000023
   204   1      7.3000000000000114      43.800000000000011      31.025000000000016
   205   1      5.4750000000000085      41.975000000000009      34.675000000000018
   206   1      5.4750000000000085      43.800000000000011      36.500000000000021
   207   1      7.3000000000000114      41.975000000000009      36.500000000000021
   208   1      7.3000000000000114      43.800000000000011      34.675000000000018
   209   1      5.4750000000000085      41.975000000000009       38.32500000000001
   210   1      5.4750000000000085      43.800000000000011      40.150000000000013
   211   1      7.3000000000000114      41.975000000000009      40.150000000000013
   212   1      7.3000000000000114      43.800000000000011       38.32500000000001
   213   1      5.4750000000000085      41.975000000000009      41.975000000000009
   214   1      5.4750000000000085      43.800000000000011      43.800000000000011
   215   1      7.3000000000000114      41.975000000000009      43.800000000000011
   216   1      7.3000000000000114      43.800000000000011      41.975000000000009
   217   1      5.4750000000000085      41.975000000000009      45.625000000000014
   218   1      5.4750000000000085      43.800000000000011      47.450000000000017
   219   1      7.3000000000000114      41.975000000000009      47.450000000000017
   220   1      7.3000000000000114      43.800000000000011      45.625000000000014
   221   1      5.4750000000000085      41.975000000000009      49.275000000000013
   222   1      5.4750000000000085      43.800000000000011      51.100000000000016
   223   1      7.3000000000000114      41.975000000000009      51.100000000000016
   224   1      7.3000000000000114      43.800000000000011      49.275000000000013
   225   1      5.4750000000000085      41.975000000000009      52.925000000000011
   226   1      5.4750000000000085      43.800000000000011      54.750000000000021
   227   1      7.3000000000000114      41.975000000000009      54.750000000000021
   228   1      7.3000000000000114      43.800000000000011      52.925000000000011
   229   1      5.4750000000000085      41.975000000000009      56.575000000000017
   230   1      5.4750000000000085      43.800000000000011       58.40000000000002
   231   1      7.3000000000000114      41.975000000000009       58.40000000000002
   232   1      7.3000000000000114      43.800000000000011      56.575000000000017
   233   1      5.4750000000000085      41.975000000000009      60.225000000000009
   234   1      5.4750000000000085      43.800000000000011      62.050000000000011
   235   1      7.3000000000000114      41.975000000000009      62.050000000000011
   236   1      7.3000000000000114      43.800000000000011      60.225000000000009
   237   1      7.3000000000000114      41.975000000000009      65.700000000000017
   238   1      7.3000000000000114      43.800000000000011      63.875000000000014
   239   1      7.3000000000000114      43.800000000000011      67.525000000000006
   240   1      7.3000000000000114      45.625000000000014      21.900000000000013
   241   1      7.3000000000000114      45.625000000000014      25.550000000000015
   242   1      7.3000000000000114      47.450000000000017      23.725000000000012
   243   1      5.4750000000000085      45.625000000000014      27.375000000000011
   244   1      5.4750000000000085      47.450000000000017      29.200000000000014
   245   1      7.3000000000000114      45.625000000000014      29.200000000000014
   246   1      7.3000000000000114      47.450000000000017      27.375000000000011
   247   1      5.4750000000000085      45.625000000000014      31.025000000000016
   248   1      5.4750000000000085      47.450000000000017      32.850000000000023
   249   1      7.3000000000000114      45.625000000000014      32.850000000000023
   250   1      7.3000000000000114      47.450000000000017      31.025000000000016
   251   1      5.4750000000000085      45.625000000000014      34.675000000000018
   252   1      5.4750000000000085      47.450000000000017      36.500000000000021
   253   1      7.3000000000000114      45.625000000000014      36.500000000000021
   254   1      7.3000000000000114      47.450000000000017      34.675000000000018
   255   1      5.4750000000000085      45.625000000000014       38.32500000000001
   256   1      5.4750000000000085      47.450000000000017      40.150000000000013
   257   1      7.3000000000000114      45.625000000000014      40.150000000000013
   258   1      7.3000000000000114      47.450000000000017       38.32500000000001
   259   1      5.4750000000000085      45.625000000000014      41.975000000000009
   260   1      5.4750000000000085      47.450000000000017      43.800000000000011
   261   1      7.3000000000000114      45.625000000000014      43.800000000000011
   262   1      7.3000000000000114      47.450000000000017      41.975000000000009
   263   1      5.4750000000000085      45.625000000000014      45.625000000000014
   264   1      5.4750000000000085      47.450000000000017      47.450000000000017
   265   1      7.3000000000000114      45.625000000000014      47.450000000000017
   266   1      7.3000000000000114      47.450000000000017      45.625000000000014
   267   1      5.4750000000000085      45.625000000000014      49.275000000000013
   268   1      5.4750000000000085      47.450000000000017      51.100000000000016
   269   1      7.3000000000000114      45.625000000000014      51.100000000000016
   270   1      7.3000000000000114      47.450000000000017      49.275000000000013
   271   1      5.4750000000000085      45.625000000000014      52.925000000000011
   272   1      5.4750000000000085      47.450000000000017      54.750000000000021
   273   1      7.3000000000000114      45.625000000000014      54.750000000000021
   274   1      7.3000000000000114      47.450000000000017      52.925000000000011
   275   1      5.4750000000000085      45.625000000000014      56.575000000000017
   276   1      5.4750000000000085      47.450000000000017       58.40000000000002
   277   1      7.3000000000000114      45.625000000000014       58.40000000000002
   278   1      7.3000000000000114      47.450000000000017      56.575000000000017
   279   1      5.4750000000000085      45.625000000000014      60.225000000000009
   280   1      5.4750000000000085      47.450000000000017      62.050000000000011
   281   1      7.3000000000000114      45.625000000000014      62.050000000000011
   282   1      7.3000000000000114      47.450000000000017      60.225000000000009
   283   1      5.4750000000000085      45.625000000000014      63.875000000000014
   284   1      7.3000000000000114      45.625000000000014      65.700000000000017
   285   1      7.3000000000000114      47.450000000000017      63.875000000000014
   286   1      7.3000000000000114      45.625000000000014      69.350000000000009
   287   1      7.3000000000000114      47.450000000000017      67.525000000000006
   288   1      7.3000000000000114      49.275000000000013      25.550000000000015
   289   1      7.3000000000000114      49.275000000000013      29.200000000000014
   290   1      7.3000000000000114      51.100000000000016      27.375000000000011
   291   1      5.4750000000000085      49.275000000000013      31.025000000000016
   292   1      5.4750000000000085      51.100000000000016      32.850000000000023
   293   1      7.3000000000000114      49.275000000000013      32.850000000000023
   294   1      7.3000000000000114      51.100000000000016      31.025000000000016
   295   1      5.4750000000000085      49.275000000000013      34.675000000000018
   296   1      5.4750000000000085      51.100000000000016      36.500000000000021
   297   1      7.3000000000000114      49.275000000000013      36.500000000000021
   298   1      7.3000000000000114      51.100000000000016      34.675000000000018
   299   1      5.4750000000000085      49.275000000000013       38.32500000000001
   300   1      5.4750000000000085      51.100000000000016      40.150000000000013
   301   1      7.3000000000000114      49.275000000000013      40.150000000000013
   302   1      7.3000000000000114      51.100000000000016       38.32500000000001
   303   1      5.4750000000000085      49.275000000000013      41.975000000000009
   304   1      5.4750000000000085      51.100000000000016      43.800000000000011
   305   1      7.3000000000000114      49.275000000000013      43.800000000000011
   306   1      7.3000000000000114      51.100000000000016      41.975000000000009
   307   1      5.4750000000000085      49.275000000000013      45.625000000000014
   308   1      5.4750000000000085      51.100000000000016      47.450000000000017
   309   1      7.3000000000000114      49.275000000000013      47.450000000000017
   310   1      7.3000000000000114      51.100000000000016      45.625000000000014
   311   1      5.4750000000000085      49.275000000000013      49.275000000000013
   312   1      5.4750000000000085      51.100000000000016      51.100000000000016
   313   1      7.3000000000000114      49.275000000000013      51.100000000000016
   314   1      7.3000000000000114      51.100000000000016      49.275000000000013
   315   1      5.4750000000000085      49.275000000000013      52.925000000000011
   316   1      5.4750000000000085      51.100000000000016      54.750000000000021
   317   1      7.3000000000000114      49.275000000000013      54.750000000000021
   318   1      7.3000000000000114      51.100000000000016      52.925000000000011
   319   1      5.4750000000000085      49.275000000000013      56.575000000000017
   320   1      5.4750000000000085      51.100000000000016       58.40000000000002
   321   1      7.3000000000000114      49.275000000000013       58.40000000000002
   322   1      7.3000000000000114      51.100000000000016      56.575000000000017
   323   1      5.4750000000000085      49.275000000000013      60.225000000000009
   324   1      7.3000000000000114      49.275000000000013      62.050000000000011
   325   1      7.3000000000000114      51.100000000000016      60.225000000000009
   326   1      7.3000000000000114      49.275000000000013      65.700000000000017
   327   1      7.3000000000000114      51.100000000000016      63.875000000000014
   328   1      7.3000000000000114      52.925000000000011      29.200000000000014
   329   1      7.3000000000000114      52.925000000000011      32.850000000000023
   330   1      7.3000000000000114      54.750000000000021      31.025000000000016
   331   1      5.4750000000000085      52.925000000000011      34.675000000000018
   332   1      5.4750000000000085      54.750000000000021      36.500000000000021
   333   1      7.3000000000000114      52.925000000000011      36.500000000000021
   334   1      7.3000000000000114      54.750000000000021      34.675000000000018
   335   1      5.4750000000000085      52.925000000000011       38.32500000000001
   336   1      5.4750000000000085      54.750000000000021      40.150000000000013
   337   1      7.3000000000000114      52.925000000000011      40.150000000000013
   338   1      7.3000000000000114      54.750000000000021       38.32500000000001
   339   1      5.4750000000000085      52.925000000000011      41.975000000000009
   340   1      5.4750000000000085      54.750000000000021      43.800000000000011
   341   1      7.3000000000000114      52.925000000000011      43.800000000000011
   342   1      7.3000000000000114      54.750000000000021      41.975000000000009
   343   1      5.4750000000000085      52.925000000000011      45.625000000000014
   344   1      5.4750000000000085      54.750000000000021      47.450000000000017
   345   1      7.3000000000000114      52.925000000000011      47.450000000000017
   346   1      7.3000000000000114      54.750000000000021      45.625000000000014
   347   1      5.4750000000000085      52.925000000000011      49.275000000000013
   348   1      5.4750000000000085      54.750000000000021      51.100000000000016
   349   1      7.3000000000000114      52.925000000000011      51.100000000000016
   350   1      7.3000000000000114      54.750000000000021      49.275000000000013
   351   1      5.4750000000000085      52.925000000000011      52.925000000000011
   352   1      5.4750000000000085      54.750000000000021      54.750000000000021
   353   1      7.3000000000000114      52.925000000000011      54.750000000000021
   354   1      7.3000000000000114      54.750000000000021      52.925000000000011
   355   1      5.4750000000000085      52.925000000000011      56.575000000000017
   356   1      7.3000000000000114      52.925000000000011       58.40000000000002
   357   1      7.3000000000000114      54.750000000000021      56.575000000000017
   358   1      7.3000000000000114      52.925000000000011      62.050000000000011