model_files/PtCu/PtCu_30000/PtCu_531/PtCu_531_fcc_29859_temp.data (written by ASE) 

29859 	 atoms 
2  atom types
0.0                     105  xlo xhi
0.0                     105  ylo yhi
0.0                     105  zlo zhi


Atoms 

     1   1                       0      50.050000000000004      51.975000000000009
     2   1                       0      51.975000000000009      50.050000000000004
     3   1                       0      51.975000000000009      53.900000000000006
     4   1                       0      53.900000000000006      51.975000000000009
     5   1      3.8500000000000014      44.275000000000006      50.050000000000004
     6   1      3.8500000000000014      46.200000000000003      48.125000000000007
     7   1      3.8500000000000014      44.275000000000006      53.900000000000006
     8   1      3.8500000000000014      46.200000000000003      51.975000000000009
     9   1      3.8500000000000014      46.200000000000003       55.82500000000001
    10   1      3.8500000000000014      48.125000000000007      46.200000000000003
    11   1      3.8500000000000014      50.050000000000004      44.275000000000006
    12   1      1.9250000000000045      48.125000000000007      48.125000000000007
    13   1      1.9250000000000045      50.050000000000004      50.050000000000004
    14   1      3.8500000000000014      48.125000000000007      50.050000000000004
    15   1      3.8500000000000014      50.050000000000004      48.125000000000007
    16   1      1.9250000000000045      48.125000000000007      51.975000000000009
    17   1      1.9250000000000045      50.050000000000004      53.900000000000006
    18   1      3.8500000000000014      48.125000000000007      53.900000000000006
    19   1      3.8500000000000014      50.050000000000004      51.975000000000009
    20   1      1.9250000000000045      48.125000000000007       55.82500000000001
    21   1      3.8500000000000014      48.125000000000007      57.750000000000007
    22   1      3.8500000000000014      50.050000000000004       55.82500000000001
    23   1      3.8500000000000014      50.050000000000004      59.675000000000011
    24   1      3.8500000000000014      51.975000000000009      46.200000000000003
    25   1      3.8500000000000014      53.900000000000006      44.275000000000006
    26   1      1.9250000000000045      51.975000000000009      48.125000000000007
    27   1      1.9250000000000045      53.900000000000006      50.050000000000004
    28   1      3.8500000000000014      51.975000000000009      50.050000000000004
    29   1      3.8500000000000014      53.900000000000006      48.125000000000007
    30   1      1.9250000000000045      51.975000000000009      51.975000000000009
    31   1      1.9250000000000045      53.900000000000006      53.900000000000006
    32   1      3.8500000000000014      51.975000000000009      53.900000000000006
    33   1      3.8500000000000014      53.900000000000006      51.975000000000009
    34   1      1.9250000000000045      51.975000000000009       55.82500000000001
    35   1      3.8500000000000014      51.975000000000009      57.750000000000007
    36   1      3.8500000000000014      53.900000000000006       55.82500000000001
    37   1      3.8500000000000014      53.900000000000006      59.675000000000011
    38   1      3.8500000000000014       55.82500000000001      46.200000000000003
    39   1      1.9250000000000045       55.82500000000001      48.125000000000007
    40   1      3.8500000000000014       55.82500000000001      50.050000000000004
    41   1      3.8500000000000014      57.750000000000007      48.125000000000007
    42   1      1.9250000000000045       55.82500000000001      51.975000000000009
    43   1      3.8500000000000014       55.82500000000001      53.900000000000006
    44   1      3.8500000000000014      57.750000000000007      51.975000000000009
    45   1      1.9250000000000045       55.82500000000001       55.82500000000001
    46   1      3.8500000000000014       55.82500000000001      57.750000000000007
    47   1      3.8500000000000014      57.750000000000007       55.82500000000001
    48   1      3.8500000000000014      59.675000000000011      50.050000000000004
    49   1      3.8500000000000014      59.675000000000011      53.900000000000006
    50   1      7.7000000000000028                    38.5      48.125000000000007
    51   1      7.7000000000000028                    38.5      51.975000000000009
    52   1      7.7000000000000028                    38.5       55.82500000000001
    53   1      7.7000000000000028      40.425000000000004      42.350000000000001
    54   1      7.7000000000000028      42.350000000000001      40.425000000000004
    55   1      5.7750000000000057      42.350000000000001      46.200000000000003
    56   1      7.7000000000000028      40.425000000000004      46.200000000000003
    57   1      7.7000000000000028      42.350000000000001      44.275000000000006
    58   1      5.7750000000000057      42.350000000000001      50.050000000000004
    59   1      7.7000000000000028      40.425000000000004      50.050000000000004
    60   1      7.7000000000000028      42.350000000000001      48.125000000000007
    61   1      5.7750000000000057      40.425000000000004      51.975000000000009
    62   1      5.7750000000000057      42.350000000000001      53.900000000000006
    63   1      7.7000000000000028      40.425000000000004      53.900000000000006
    64   1      7.7000000000000028      42.350000000000001      51.975000000000009
    65   1      5.7750000000000057      42.350000000000001      57.750000000000007
    66   1      7.7000000000000028      40.425000000000004      57.750000000000007
    67   1      7.7000000000000028      42.350000000000001       55.82500000000001
    68   1      7.7000000000000028      40.425000000000004      61.600000000000009
    69   1      7.7000000000000028      42.350000000000001      59.675000000000011
    70   1      7.7000000000000028      42.350000000000001      63.525000000000013
    71   1      5.7750000000000057      46.200000000000003      42.350000000000001
    72   1      7.7000000000000028      44.275000000000006      42.350000000000001
    73   1      7.7000000000000028      46.200000000000003      40.425000000000004
    74   1      5.7750000000000057      44.275000000000006      44.275000000000006
    75   1      5.7750000000000057      46.200000000000003      46.200000000000003
    76   1      7.7000000000000028      44.275000000000006      46.200000000000003
    77   1      7.7000000000000028      46.200000000000003      44.275000000000006
    78   1      5.7750000000000057      44.275000000000006      48.125000000000007
    79   1      5.7750000000000057      46.200000000000003      50.050000000000004
    80   1      7.7000000000000028      44.275000000000006      50.050000000000004
    81   1      7.7000000000000028      46.200000000000003      48.125000000000007
    82   1      5.7750000000000057      44.275000000000006      51.975000000000009
    83   1      5.7750000000000057      46.200000000000003      53.900000000000006
    84   1      7.7000000000000028      44.275000000000006      53.900000000000006
    85   1      7.7000000000000028      46.200000000000003      51.975000000000009
    86   1      5.7750000000000057      44.275000000000006       55.82500000000001
    87   1      5.7750000000000057      46.200000000000003      57.750000000000007
    88   1      7.7000000000000028      44.275000000000006      57.750000000000007
    89   1      7.7000000000000028      46.200000000000003       55.82500000000001
    90   1      5.7750000000000057      44.275000000000006      59.675000000000011
    91   1      5.7750000000000057      46.200000000000003      61.600000000000009
    92   1      7.7000000000000028      44.275000000000006      61.600000000000009
    93   1      7.7000000000000028      46.200000000000003      59.675000000000011
    94   1      7.7000000000000028      46.200000000000003      63.525000000000013
    95   1      7.7000000000000028      48.125000000000007                    38.5
    96   1      5.7750000000000057      50.050000000000004      42.350000000000001
    97   1      7.7000000000000028      48.125000000000007      42.350000000000001
    98   1      7.7000000000000028      50.050000000000004      40.425000000000004
    99   1      5.7750000000000057      48.125000000000007      44.275000000000006
   100   1      5.7750000000000057      50.050000000000004      46.200000000000003
   101   1      7.7000000000000028      48.125000000000007      46.200000000000003
   102   1      7.7000000000000028      50.050000000000004      44.275000000000006
   103   1      5.7750000000000057      48.125000000000007      48.125000000000007
   104   1      5.7750000000000057      50.050000000000004      50.050000000000004
   105   1      7.7000000000000028      48.125000000000007      50.050000000000004
   106   1      7.7000000000000028      50.050000000000004      48.125000000000007
   107   1      5.7750000000000057      48.125000000000007      51.975000000000009
   108   1      5.7750000000000057      50.050000000000004      53.900000000000006
   109   1      7.7000000000000028      48.125000000000007      53.900000000000006
   110   1      7.7000000000000028      50.050000000000004      51.975000000000009
   111   1      5.7750000000000057      48.125000000000007       55.82500000000001
   112   1      5.7750000000000057      50.050000000000004      57.750000000000007
   113   1      7.7000000000000028      48.125000000000007      57.750000000000007
   114   1      7.7000000000000028      50.050000000000004       55.82500000000001
   115   1      5.7750000000000057      48.125000000000007      59.675000000000011
   116   1      5.7750000000000057      50.050000000000004      61.600000000000009
   117   1      7.7000000000000028      48.125000000000007      61.600000000000009
   118   1      7.7000000000000028      50.050000000000004      59.675000000000011
   119   1      7.7000000000000028      48.125000000000007      65.450000000000003
   120   1      7.7000000000000028      50.050000000000004      63.525000000000013
   121   1      7.7000000000000028      51.975000000000009                    38.5
   122   1      5.7750000000000057      51.975000000000009      40.425000000000004
   123   1      5.7750000000000057      53.900000000000006      42.350000000000001
   124   1      7.7000000000000028      51.975000000000009      42.350000000000001
   125   1      7.7000000000000028      53.900000000000006      40.425000000000004
   126   1      5.7750000000000057      51.975000000000009      44.275000000000006
   127   1      5.7750000000000057      53.900000000000006      46.200000000000003
   128   1      7.7000000000000028      51.975000000000009      46.200000000000003
   129   1      7.7000000000000028      53.900000000000006      44.275000000000006
   130   1      5.7750000000000057      51.975000000000009      48.125000000000007
   131   1      5.7750000000000057      53.900000000000006      50.050000000000004
   132   1      7.7000000000000028      51.975000000000009      50.050000000000004
   133   1      7.7000000000000028      53.900000000000006      48.125000000000007
   134   1      5.7750000000000057      51.975000000000009      51.975000000000009
   135   1      5.7750000000000057      53.900000000000006      53.900000000000006
   136   1      7.7000000000000028      51.975000000000009      53.900000000000006
   137   1      7.7000000000000028      53.900000000000006      51.975000000000009
   138   1      5.7750000000000057      51.975000000000009       55.82500000000001
   139   1      5.7750000000000057      53.900000000000006      57.750000000000007
   140   1      7.7000000000000028      51.975000000000009      57.750000000000007
   141   1      7.7000000000000028      53.900000000000006       55.82500000000001
   142   1      5.7750000000000057      51.975000000000009      59.675000000000011
   143   1      5.7750000000000057      53.900000000000006      61.600000000000009
   144   1      7.7000000000000028      51.975000000000009      61.600000000000009
   145   1      7.7000000000000028      53.900000000000006      59.675000000000011
   146   1      5.7750000000000057      51.975000000000009      63.525000000000013
   147   1      7.7000000000000028      51.975000000000009      65.450000000000003
   148   1      7.7000000000000028      53.900000000000006      63.525000000000013
   149   1      7.7000000000000028       55.82500000000001                    38.5
   150   1      5.7750000000000057      57.750000000000007      42.350000000000001
   151   1      7.7000000000000028       55.82500000000001      42.350000000000001
   152   1      7.7000000000000028      57.750000000000007      40.425000000000004
   153   1      5.7750000000000057       55.82500000000001      44.275000000000006
   154   1      5.7750000000000057      57.750000000000007      46.200000000000003
   155   1      7.7000000000000028       55.82500000000001      46.200000000000003
   156   1      7.7000000000000028      57.750000000000007      44.275000000000006
   157   1      5.7750000000000057       55.82500000000001      48.125000000000007
   158   1      5.7750000000000057      57.750000000000007      50.050000000000004
   159   1      7.7000000000000028       55.82500000000001      50.050000000000004
   160   1      7.7000000000000028      57.750000000000007      48.125000000000007
   161   1      5.7750000000000057       55.82500000000001      51.975000000000009
   162   1      5.7750000000000057      57.750000000000007      53.900000000000006
   163   1      7.7000000000000028       55.82500000000001      53.900000000000006
   164   1      7.7000000000000028      57.750000000000007      51.975000000000009
   165   1      5.7750000000000057       55.82500000000001       55.82500000000001
   166   1      5.7750000000000057      57.750000000000007      57.750000000000007
   167   1      7.7000000000000028       55.82500000000001      57.750000000000007
   168   1      7.7000000000000028      57.750000000000007       55.82500000000001
   169   1      5.7750000000000057       55.82500000000001      59.675000000000011
   170   1      5.7750000000000057      57.750000000000007      61.600000000000009
   171   1      7.7000000000000028       55.82500000000001      61.600000000000009
   172   1      7.7000000000000028      57.750000000000007      59.675000000000011
   173   1      7.7000000000000028       55.82500000000001      65.450000000000003
   174   1      7.7000000000000028      57.750000000000007      63.525000000000013
   175   1      7.7000000000000028      59.675000000000011      42.350000000000001
   176   1      7.7000000000000028      61.600000000000009      40.425000000000004
   177   1      5.7750000000000057      59.675000000000011      44.275000000000006
   178   1      5.7750000000000057      61.600000000000009      46.200000000000003
   179   1      7.7000000000000028      59.675000000000011      46.200000000000003
   180   1      7.7000000000000028      61.600000000000009      44.275000000000006
   181   1      5.7750000000000057      59.675000000000011      48.125000000000007
   182   1      5.7750000000000057      61.600000000000009      50.050000000000004
   183   1      7.7000000000000028      59.675000000000011      50.050000000000004
   184   1      7.7000000000000028      61.600000000000009      48.125000000000007
   185   1      5.7750000000000057      59.675000000000011      51.975000000000009
   186   1      5.7750000000000057      61.600000000000009      53.900000000000006
   187   1      7.7000000000000028      59.675000000000011      53.900000000000006
   188   1      7.7000000000000028      61.600000000000009      51.975000000000009
   189   1      5.7750000000000057      59.675000000000011       55.82500000000001
   190   1      5.7750000000000057      61.600000000000009      57.750000000000007
   191   1      7.7000000000000028      59.675000000000011      57.750000000000007
   192   1      7.7000000000000028      61.600000000000009       55.82500000000001
   193   1      5.7750000000000057      59.675000000000011      59.675000000000011
   194   1      7.7000000000000028      59.675000000000011      61.600000000000009
   195   1      7.7000000000000028      61.600000000000009      59.675000000000011
   196   1      7.7000000000000028      61.600000000000009      63.525000000000013
   197   1      7.7000000000000028      63.525000000000013      42.350000000000001
   198   1      7.7000000000000028      63.525000000000013      46.200000000000003
   199   1      7.7000000000000028      63.525000000000013      50.050000000000004
   200   1      7.7000000000000028      65.450000000000003      48.125000000000007
   201   1      5.7750000000000057      63.525000000000013      51.975000000000009
   202   1      7.7000000000000028      63.525000000000013      53.900000000000006
   203   1      7.7000000000000028      65.450000000000003      51.975000000000009
   204   1      7.7000000000000028      63.525000000000013      57.750000000000007
   205   1      7.7000000000000028      65.450000000000003       55.82500000000001
   206   1      7.7000000000000028      63.525000000000013      61.600000000000009
   207   1      11.550000000000006      30.800000000000004      51.975000000000009
   208   1      11.550000000000006      34.649999999999999      40.425000000000004
   209   1      11.550000000000006      32.725000000000001      46.200000000000003
   210   1      11.550000000000006      34.649999999999999      44.275000000000006
   211   1      9.6250000000000089      34.649999999999999      50.050000000000004
   212   1      11.550000000000006      32.725000000000001      50.050000000000004
   213   1      11.550000000000006      34.649999999999999      48.125000000000007
   214   1      9.6250000000000089      34.649999999999999      53.900000000000006
   215   1      11.550000000000006      32.725000000000001      53.900000000000006
   216   1      11.550000000000006      34.649999999999999      51.975000000000009
   217   1      11.550000000000006      32.725000000000001      57.750000000000007
   218   1      11.550000000000006      34.649999999999999       55.82500000000001
   219   1      11.550000000000006      34.649999999999999      59.675000000000011
   220   1      11.550000000000006      34.649999999999999      63.525000000000013
   221   1      9.6250000000000089                    38.5                    38.5
   222   1      11.550000000000006      36.575000000000003                    38.5
   223   1      11.550000000000006                    38.5      36.575000000000003
   224   1      9.6250000000000089                    38.5      42.350000000000001
   225   1      11.550000000000006      36.575000000000003      42.350000000000001
   226   1      11.550000000000006                    38.5      40.425000000000004
   227   1      9.6250000000000089      36.575000000000003      44.275000000000006
   228   1      9.6250000000000089                    38.5      46.200000000000003
   229   1      11.550000000000006      36.575000000000003      46.200000000000003
   230   1      11.550000000000006                    38.5      44.275000000000006
   231   1      9.6250000000000089      36.575000000000003      48.125000000000007
   232   1      9.6250000000000089                    38.5      50.050000000000004
   233   1      11.550000000000006      36.575000000000003      50.050000000000004
   234   1      11.550000000000006                    38.5      48.125000000000007
   235   1      9.6250000000000089      36.575000000000003      51.975000000000009
   236   1      9.6250000000000089                    38.5      53.900000000000006
   237   1      11.550000000000006      36.575000000000003      53.900000000000006
   238   1      11.550000000000006                    38.5      51.975000000000009
   239   1      9.6250000000000089      36.575000000000003       55.82500000000001
   240   1      9.6250000000000089                    38.5      57.750000000000007
   241   1      11.550000000000006      36.575000000000003      57.750000000000007
   242   1      11.550000000000006                    38.5       55.82500000000001
   243   1      9.6250000000000089      36.575000000000003      59.675000000000011
   244   1      9.6250000000000089                    38.5      61.600000000000009
   245   1      11.550000000000006      36.575000000000003      61.600000000000009
   246   1      11.550000000000006                    38.5      59.675000000000011
   247   1      9.6250000000000089                    38.5      65.450000000000003
   248   1      11.550000000000006      36.575000000000003      65.450000000000003
   249   1      11.550000000000006                    38.5      63.525000000000013
   250   1      11.550000000000006                    38.5                  67.375
   251   1      11.550000000000006      40.425000000000004      34.649999999999999
   252   1      9.6250000000000089      42.350000000000001                    38.5
   253   1      11.550000000000006      40.425000000000004                    38.5
   254   1      11.550000000000006      42.350000000000001      36.575000000000003
   255   1      9.6250000000000089      40.425000000000004      40.425000000000004
   256   1      9.6250000000000089      42.350000000000001      42.350000000000001
   257   1      11.550000000000006      40.425000000000004      42.350000000000001
   258   1      11.550000000000006      42.350000000000001      40.425000000000004
   259   1      9.6250000000000089      40.425000000000004      44.275000000000006
   260   1      9.6250000000000089      42.350000000000001      46.200000000000003
   261   1      11.550000000000006      40.425000000000004      46.200000000000003
   262   1      11.550000000000006      42.350000000000001      44.275000000000006
   263   1      9.6250000000000089      40.425000000000004      48.125000000000007
   264   1      9.6250000000000089      42.350000000000001      50.050000000000004
   265   1      11.550000000000006      40.425000000000004      50.050000000000004
   266   1      11.550000000000006      42.350000000000001      48.125000000000007
   267   1      9.6250000000000089      40.425000000000004      51.975000000000009
   268   1      9.6250000000000089      42.350000000000001      53.900000000000006
   269   1      11.550000000000006      40.425000000000004      53.900000000000006
   270   1      11.550000000000006      42.350000000000001      51.975000000000009
   271   1      9.6250000000000089      40.425000000000004       55.82500000000001
   272   1      9.6250000000000089      42.350000000000001      57.750000000000007
   273   1      11.550000000000006      40.425000000000004      57.750000000000007
   274   1      11.550000000000006      42.350000000000001       55.82500000000001
   275   1      9.6250000000000089      40.425000000000004      59.675000000000011
   276   1      9.6250000000000089      42.350000000000001      61.600000000000009
   277   1      11.550000000000006      40.425000000000004      61.600000000000009
   278   1      11.550000000000006      42.350000000000001      59.675000000000011
   279   1      9.6250000000000089      40.425000000000004      63.525000000000013
   280   1      9.6250000000000089      42.350000000000001      65.450000000000003
   281   1      11.550000000000006      40.425000000000004      65.450000000000003
   282   1      11.550000000000006      42.350000000000001      63.525000000000013
   283   1      11.550000000000006      40.425000000000004      69.299999999999997
   284   1      11.550000000000006      42.350000000000001                  67.375
   285   1      11.550000000000006      44.275000000000006      34.649999999999999
   286   1      11.550000000000006      46.200000000000003      32.725000000000001
   287   1      9.6250000000000089      44.275000000000006      36.575000000000003
   288   1      9.6250000000000089      46.200000000000003                    38.5
   289   1      11.550000000000006      44.275000000000006                    38.5
   290   1      11.550000000000006      46.200000000000003      36.575000000000003
   291   1      9.6250000000000089      44.275000000000006      40.425000000000004
   292   1      9.6250000000000089      46.200000000000003      42.350000000000001
   293   1      11.550000000000006      44.275000000000006      42.350000000000001
   294   1      11.550000000000006      46.200000000000003      40.425000000000004
   295   1      9.6250000000000089      44.275000000000006      44.275000000000006
   296   1      9.6250000000000089      46.200000000000003      46.200000000000003
   297   1      11.550000000000006      44.275000000000006      46.200000000000003
   298   1      11.550000000000006      46.200000000000003      44.275000000000006
   299   1      9.6250000000000089      44.275000000000006      48.125000000000007
   300   1      9.6250000000000089      46.200000000000003      50.050000000000004
   301   1      11.550000000000006      44.275000000000006      50.050000000000004
   302   1      11.550000000000006      46.200000000000003      48.125000000000007
   303   1      9.6250000000000089      44.275000000000006      51.975000000000009
   304   1      9.6250000000000089      46.200000000000003      53.900000000000006
   305   1      11.550000000000006      44.275000000000006      53.900000000000006
   306   1      11.550000000000006      46.200000000000003      51.975000000000009
   307   1      9.6250000000000089      44.275000000000006       55.82500000000001
   308   1      9.6250000000000089      46.200000000000003      57.750000000000007
   309   1      11.550000000000006      44.275000000000006      57.750000000000007
   310   1      11.550000000000006      46.200000000000003       55.82500000000001
   311   1      9.6250000000000089      44.275000000000006      59.675000000000011
   312   1      9.6250000000000089      46.200000000000003      61.600000000000009
   313   1      11.550000000000006      44.275000000000006      61.600000000000009
   314   1      11.550000000000006      46.200000000000003      59.675000000000011
   315   1      9.6250000000000089      44.275000000000006      63.525000000000013
   316   1      9.6250000000000089      46.200000000000003      65.450000000000003
   317   1      11.550000000000006      44.275000000000006      65.450000000000003
   318   1      11.550000000000006      46.200000000000003      63.525000000000013
   319   1      9.6250000000000089      44.275000000000006                  67.375
   320   1      11.550000000000006      44.275000000000006      69.299999999999997
   321   1      11.550000000000006      46.200000000000003                  67.375
   322   1      11.550000000000006      46.200000000000003      71.225000000000009
   323   1      9.6250000000000089      50.050000000000004      34.649999999999999
   324   1      11.550000000000006      48.125000000000007      34.649999999999999
   325   1      11.550000000000006      50.050000000000004      32.725000000000001
   326   1      9.6250000000000089      48.125000000000007      36.575000000000003
   327   1      9.6250000000000089      50.050000000000004                    38.5
   328   1      11.550000000000006      48.125000000000007                    38.5
   329   1      11.550000000000006      50.050000000000004      36.575000000000003
   330   1      9.6250000000000089      48.125000000000007      40.425000000000004
   331   1      9.6250000000000089      50.050000000000004      42.350000000000001
   332   1      11.550000000000006      48.125000000000007      42.350000000000001
   333   1      11.550000000000006      50.050000000000004      40.425000000000004
   334   1      9.6250000000000089      48.125000000000007      44.275000000000006
   335   1      9.6250000000000089      50.050000000000004      46.200000000000003
   336   1      11.550000000000006      48.125000000000007      46.200000000000003
   337   1      11.550000000000006      50.050000000000004      44.275000000000006
   338   1      9.6250000000000089      48.125000000000007      48.125000000000007
   339   1      9.6250000000000089      50.050000000000004      50.050000000000004
   340   1      11.550000000000006      48.125000000000007      50.050000000000004
   341   1      11.550000000000006      50.050000000000004      48.125000000000007
   342   1      9.6250000000000089      48.125000000000007      51.975000000000009
   343   1      9.6250000000000089      50.050000000000004      53.900000000000006
   344   1      11.550000000000006      48.125000000000007      53.900000000000006
   345   1      11.550000000000006      50.050000000000004      51.975000000000009
   346   1      9.6250000000000089      48.125000000000007       55.82500000000001
   347   1      9.6250000000000089      50.050000000000004      57.750000000000007
   348   1      11.550000000000006      48.125000000000007      57.750000000000007
   349   1      11.550000000000006      50.050000000000004       55.82500000000001
   350   1      9.6250000000000089      48.125000000000007      59.675000000000011
   351   1      9.6250000000000089      50.050000000000004      61.600000000000009
   352   1      11.550000000000006      48.125000000000007      61.600000000000009
   353   1      11.550000000000006      50.050000000000004      59.675000000000011
   354   1      9.6250000000000089      48.125000000000007      63.525000000000013
   355   1      9.6250000000000089      50.050000000000004      65.450000000000003
   356   1      11.550000000000006      48.125000000000007      65.450000000000003
   357   1      11.550000000000006      50.050000000000004      63.525000000000013
   358   1      9.6250000000000089      48.125000000000007                  67.375