model_files/Pd/Pd_30000/Pd_433/data.Pd_433_fcc_30337 (written by ASE) 

30337 	 atoms 
1  atom types
0.0                     124  xlo xhi
0.0                     124  ylo yhi
0.0                     124  zlo zhi


Atoms 

     1   1      1.9450000000000143      60.295000000000016      62.240000000000002
     2   1      1.9450000000000143      62.240000000000002      60.295000000000016
     3   1  1.4210854715202004e-14      62.240000000000002      62.240000000000002
     4   1      1.9450000000000143      62.240000000000002      64.185000000000002
     5   1      1.9450000000000143      64.185000000000002      62.240000000000002
     6   1      5.8350000000000151      56.405000000000015      62.240000000000002
     7   1      3.8900000000000148      60.295000000000016      60.295000000000016
     8   1      5.8350000000000151      58.350000000000016      60.295000000000016
     9   1      5.8350000000000151      60.295000000000016      58.350000000000016
    10   1      3.8900000000000148      58.350000000000016      62.240000000000002
    11   1      3.8900000000000148      60.295000000000016      64.185000000000002
    12   1      5.8350000000000151      58.350000000000016      64.185000000000002
    13   1      5.8350000000000151      60.295000000000016      62.240000000000002
    14   1      5.8350000000000151      60.295000000000016      66.129999999999995
    15   1      5.8350000000000151      62.240000000000002      56.405000000000015
    16   1      3.8900000000000148      62.240000000000002      58.350000000000016
    17   1      3.8900000000000148      64.185000000000002      60.295000000000016
    18   1      5.8350000000000151      62.240000000000002      60.295000000000016
    19   1      5.8350000000000151      64.185000000000002      58.350000000000016
    20   1      3.8900000000000148      62.240000000000002      62.240000000000002
    21   1      3.8900000000000148      64.185000000000002      64.185000000000002
    22   1      5.8350000000000151      62.240000000000002      64.185000000000002
    23   1      5.8350000000000151      64.185000000000002      62.240000000000002
    24   1      3.8900000000000148      62.240000000000002      66.129999999999995
    25   1      5.8350000000000151      62.240000000000002      68.074999999999989
    26   1      5.8350000000000151      64.185000000000002      66.129999999999995
    27   1      5.8350000000000151      66.129999999999995      60.295000000000016
    28   1      3.8900000000000148      66.129999999999995      62.240000000000002
    29   1      5.8350000000000151      66.129999999999995      64.185000000000002
    30   1      5.8350000000000151      68.074999999999989      62.240000000000002
    31   1      9.7250000000000156      52.515000000000015      62.240000000000002
    32   1      7.7800000000000153      56.405000000000015      60.295000000000016
    33   1      9.7250000000000156      54.460000000000015      60.295000000000016
    34   1      9.7250000000000156      56.405000000000015      58.350000000000016
    35   1      7.7800000000000153      54.460000000000015      62.240000000000002
    36   1      7.7800000000000153      56.405000000000015      64.185000000000002
    37   1      9.7250000000000156      54.460000000000015      64.185000000000002
    38   1      9.7250000000000156      56.405000000000015      62.240000000000002
    39   1      9.7250000000000156      56.405000000000015      66.129999999999995
    40   1      7.7800000000000153      60.295000000000016      56.405000000000015
    41   1      9.7250000000000156      58.350000000000016      56.405000000000015
    42   1      9.7250000000000156      60.295000000000016      54.460000000000015
    43   1      7.7800000000000153      58.350000000000016      58.350000000000016
    44   1      7.7800000000000153      60.295000000000016      60.295000000000016
    45   1      9.7250000000000156      58.350000000000016      60.295000000000016
    46   1      9.7250000000000156      60.295000000000016      58.350000000000016
    47   1      7.7800000000000153      58.350000000000016      62.240000000000002
    48   1      7.7800000000000153      60.295000000000016      64.185000000000002
    49   1      9.7250000000000156      58.350000000000016      64.185000000000002
    50   1      9.7250000000000156      60.295000000000016      62.240000000000002
    51   1      7.7800000000000153      58.350000000000016      66.129999999999995
    52   1      7.7800000000000153      60.295000000000016      68.074999999999989
    53   1      9.7250000000000156      58.350000000000016      68.074999999999989
    54   1      9.7250000000000156      60.295000000000016      66.129999999999995
    55   1      9.7250000000000156      60.295000000000016      70.019999999999996
    56   1      9.7250000000000156      62.240000000000002      52.515000000000015
    57   1      7.7800000000000153      62.240000000000002      54.460000000000015
    58   1      7.7800000000000153      64.185000000000002      56.405000000000015
    59   1      9.7250000000000156      62.240000000000002      56.405000000000015
    60   1      9.7250000000000156      64.185000000000002      54.460000000000015
    61   1      7.7800000000000153      62.240000000000002      58.350000000000016
    62   1      7.7800000000000153      64.185000000000002      60.295000000000016
    63   1      9.7250000000000156      62.240000000000002      60.295000000000016
    64   1      9.7250000000000156      64.185000000000002      58.350000000000016
    65   1      7.7800000000000153      62.240000000000002      62.240000000000002
    66   1      7.7800000000000153      64.185000000000002      64.185000000000002
    67   1      9.7250000000000156      62.240000000000002      64.185000000000002
    68   1      9.7250000000000156      64.185000000000002      62.240000000000002
    69   1      7.7800000000000153      62.240000000000002      66.129999999999995
    70   1      7.7800000000000153      64.185000000000002      68.074999999999989
    71   1      9.7250000000000156      62.240000000000002      68.074999999999989
    72   1      9.7250000000000156      64.185000000000002      66.129999999999995
    73   1      7.7800000000000153      62.240000000000002      70.019999999999996
    74   1      9.7250000000000156      62.240000000000002      71.964999999999989
    75   1      9.7250000000000156      64.185000000000002      70.019999999999996
    76   1      9.7250000000000156      66.129999999999995      56.405000000000015
    77   1      7.7800000000000153      66.129999999999995      58.350000000000016
    78   1      7.7800000000000153      68.074999999999989      60.295000000000016
    79   1      9.7250000000000156      66.129999999999995      60.295000000000016
    80   1      9.7250000000000156      68.074999999999989      58.350000000000016
    81   1      7.7800000000000153      66.129999999999995      62.240000000000002
    82   1      7.7800000000000153      68.074999999999989      64.185000000000002
    83   1      9.7250000000000156      66.129999999999995      64.185000000000002
    84   1      9.7250000000000156      68.074999999999989      62.240000000000002
    85   1      7.7800000000000153      66.129999999999995      66.129999999999995
    86   1      9.7250000000000156      66.129999999999995      68.074999999999989
    87   1      9.7250000000000156      68.074999999999989      66.129999999999995
    88   1      9.7250000000000156      70.019999999999996      60.295000000000016
    89   1      7.7800000000000153      70.019999999999996      62.240000000000002
    90   1      9.7250000000000156      70.019999999999996      64.185000000000002
    91   1      9.7250000000000156      71.964999999999989      62.240000000000002
    92   1      13.615000000000009      44.735000000000014      62.240000000000002
    93   1      11.670000000000016      48.625000000000014      60.295000000000016
    94   1      13.615000000000009      46.680000000000014      60.295000000000016
    95   1      13.615000000000009      48.625000000000014      58.350000000000016
    96   1      11.670000000000016      46.680000000000014      62.240000000000002
    97   1      11.670000000000016      48.625000000000014      64.185000000000002
    98   1      13.615000000000009      46.680000000000014      64.185000000000002
    99   1      13.615000000000009      48.625000000000014      62.240000000000002
   100   1      13.615000000000009      48.625000000000014      66.129999999999995
   101   1      11.670000000000016      52.515000000000015      56.405000000000015
   102   1      13.615000000000009      50.570000000000014      56.405000000000015
   103   1      13.615000000000009      52.515000000000015      54.460000000000015
   104   1      11.670000000000016      50.570000000000014      58.350000000000016
   105   1      11.670000000000016      52.515000000000015      60.295000000000016
   106   1      13.615000000000009      50.570000000000014      60.295000000000016
   107   1      13.615000000000009      52.515000000000015      58.350000000000016
   108   1      11.670000000000016      50.570000000000014      62.240000000000002
   109   1      11.670000000000016      52.515000000000015      64.185000000000002
   110   1      13.615000000000009      50.570000000000014      64.185000000000002
   111   1      13.615000000000009      52.515000000000015      62.240000000000002
   112   1      11.670000000000016      50.570000000000014      66.129999999999995
   113   1      11.670000000000016      52.515000000000015      68.074999999999989
   114   1      13.615000000000009      50.570000000000014      68.074999999999989
   115   1      13.615000000000009      52.515000000000015      66.129999999999995
   116   1      13.615000000000009      52.515000000000015      70.019999999999996
   117   1      11.670000000000016      56.405000000000015      52.515000000000015
   118   1      13.615000000000009      54.460000000000015      52.515000000000015
   119   1      13.615000000000009      56.405000000000015      50.570000000000014
   120   1      11.670000000000016      54.460000000000015      54.460000000000015
   121   1      11.670000000000016      56.405000000000015      56.405000000000015
   122   1      13.615000000000009      54.460000000000015      56.405000000000015
   123   1      13.615000000000009      56.405000000000015      54.460000000000015
   124   1      11.670000000000016      54.460000000000015      58.350000000000016
   125   1      11.670000000000016      56.405000000000015      60.295000000000016
   126   1      13.615000000000009      54.460000000000015      60.295000000000016
   127   1      13.615000000000009      56.405000000000015      58.350000000000016
   128   1      11.670000000000016      54.460000000000015      62.240000000000002
   129   1      11.670000000000016      56.405000000000015      64.185000000000002
   130   1      13.615000000000009      54.460000000000015      64.185000000000002
   131   1      13.615000000000009      56.405000000000015      62.240000000000002
   132   1      11.670000000000016      54.460000000000015      66.129999999999995
   133   1      11.670000000000016      56.405000000000015      68.074999999999989
   134   1      13.615000000000009      54.460000000000015      68.074999999999989
   135   1      13.615000000000009      56.405000000000015      66.129999999999995
   136   1      11.670000000000016      54.460000000000015      70.019999999999996
   137   1      11.670000000000016      56.405000000000015      71.964999999999989
   138   1      13.615000000000009      54.460000000000015      71.964999999999989
   139   1      13.615000000000009      56.405000000000015      70.019999999999996
   140   1      13.615000000000009      56.405000000000015      73.909999999999997
   141   1      11.670000000000016      60.295000000000016      48.625000000000014
   142   1      13.615000000000009      58.350000000000016      48.625000000000014
   143   1      13.615000000000009      60.295000000000016      46.680000000000014
   144   1      11.670000000000016      58.350000000000016      50.570000000000014
   145   1      11.670000000000016      60.295000000000016      52.515000000000015
   146   1      13.615000000000009      58.350000000000016      52.515000000000015
   147   1      13.615000000000009      60.295000000000016      50.570000000000014
   148   1      11.670000000000016      58.350000000000016      54.460000000000015
   149   1      11.670000000000016      60.295000000000016      56.405000000000015
   150   1      13.615000000000009      58.350000000000016      56.405000000000015
   151   1      13.615000000000009      60.295000000000016      54.460000000000015
   152   1      11.670000000000016      58.350000000000016      58.350000000000016
   153   1      11.670000000000016      60.295000000000016      60.295000000000016
   154   1      13.615000000000009      58.350000000000016      60.295000000000016
   155   1      13.615000000000009      60.295000000000016      58.350000000000016
   156   1      11.670000000000016      58.350000000000016      62.240000000000002
   157   1      11.670000000000016      60.295000000000016      64.185000000000002
   158   1      13.615000000000009      58.350000000000016      64.185000000000002
   159   1      13.615000000000009      60.295000000000016      62.240000000000002
   160   1      11.670000000000016      58.350000000000016      66.129999999999995
   161   1      11.670000000000016      60.295000000000016      68.074999999999989
   162   1      13.615000000000009      58.350000000000016      68.074999999999989
   163   1      13.615000000000009      60.295000000000016      66.129999999999995
   164   1      11.670000000000016      58.350000000000016      70.019999999999996
   165   1      11.670000000000016      60.295000000000016      71.964999999999989
   166   1      13.615000000000009      58.350000000000016      71.964999999999989
   167   1      13.615000000000009      60.295000000000016      70.019999999999996
   168   1      11.670000000000016      58.350000000000016      73.909999999999997
   169   1      11.670000000000016      60.295000000000016       75.85499999999999
   170   1      13.615000000000009      58.350000000000016       75.85499999999999
   171   1      13.615000000000009      60.295000000000016      73.909999999999997
   172   1      13.615000000000009      60.295000000000016      77.799999999999997
   173   1      13.615000000000009      62.240000000000002      44.735000000000014
   174   1      11.670000000000016      62.240000000000002      46.680000000000014
   175   1      11.670000000000016      64.185000000000002      48.625000000000014
   176   1      13.615000000000009      62.240000000000002      48.625000000000014
   177   1      13.615000000000009      64.185000000000002      46.680000000000014
   178   1      11.670000000000016      62.240000000000002      50.570000000000014
   179   1      11.670000000000016      64.185000000000002      52.515000000000015
   180   1      13.615000000000009      62.240000000000002      52.515000000000015
   181   1      13.615000000000009      64.185000000000002      50.570000000000014
   182   1      11.670000000000016      62.240000000000002      54.460000000000015
   183   1      11.670000000000016      64.185000000000002      56.405000000000015
   184   1      13.615000000000009      62.240000000000002      56.405000000000015
   185   1      13.615000000000009      64.185000000000002      54.460000000000015
   186   1      11.670000000000016      62.240000000000002      58.350000000000016
   187   1      11.670000000000016      64.185000000000002      60.295000000000016
   188   1      13.615000000000009      62.240000000000002      60.295000000000016
   189   1      13.615000000000009      64.185000000000002      58.350000000000016
   190   1      11.670000000000016      62.240000000000002      62.240000000000002
   191   1      11.670000000000016      64.185000000000002      64.185000000000002
   192   1      13.615000000000009      62.240000000000002      64.185000000000002
   193   1      13.615000000000009      64.185000000000002      62.240000000000002
   194   1      11.670000000000016      62.240000000000002      66.129999999999995
   195   1      11.670000000000016      64.185000000000002      68.074999999999989
   196   1      13.615000000000009      62.240000000000002      68.074999999999989
   197   1      13.615000000000009      64.185000000000002      66.129999999999995
   198   1      11.670000000000016      62.240000000000002      70.019999999999996
   199   1      11.670000000000016      64.185000000000002      71.964999999999989
   200   1      13.615000000000009      62.240000000000002      71.964999999999989
   201   1      13.615000000000009      64.185000000000002      70.019999999999996
   202   1      11.670000000000016      62.240000000000002      73.909999999999997
   203   1      11.670000000000016      64.185000000000002       75.85499999999999
   204   1      13.615000000000009      62.240000000000002       75.85499999999999
   205   1      13.615000000000009      64.185000000000002      73.909999999999997
   206   1      11.670000000000016      62.240000000000002      77.799999999999997
   207   1      13.615000000000009      62.240000000000002       79.74499999999999
   208   1      13.615000000000009      64.185000000000002      77.799999999999997
   209   1      13.615000000000009      66.129999999999995      48.625000000000014
   210   1      11.670000000000016      66.129999999999995      50.570000000000014
   211   1      11.670000000000016      68.074999999999989      52.515000000000015
   212   1      13.615000000000009      66.129999999999995      52.515000000000015
   213   1      13.615000000000009      68.074999999999989      50.570000000000014
   214   1      11.670000000000016      66.129999999999995      54.460000000000015
   215   1      11.670000000000016      68.074999999999989      56.405000000000015
   216   1      13.615000000000009      66.129999999999995      56.405000000000015
   217   1      13.615000000000009      68.074999999999989      54.460000000000015
   218   1      11.670000000000016      66.129999999999995      58.350000000000016
   219   1      11.670000000000016      68.074999999999989      60.295000000000016
   220   1      13.615000000000009      66.129999999999995      60.295000000000016
   221   1      13.615000000000009      68.074999999999989      58.350000000000016
   222   1      11.670000000000016      66.129999999999995      62.240000000000002
   223   1      11.670000000000016      68.074999999999989      64.185000000000002
   224   1      13.615000000000009      66.129999999999995      64.185000000000002
   225   1      13.615000000000009      68.074999999999989      62.240000000000002
   226   1      11.670000000000016      66.129999999999995      66.129999999999995
   227   1      11.670000000000016      68.074999999999989      68.074999999999989
   228   1      13.615000000000009      66.129999999999995      68.074999999999989
   229   1      13.615000000000009      68.074999999999989      66.129999999999995
   230   1      11.670000000000016      66.129999999999995      70.019999999999996
   231   1      11.670000000000016      68.074999999999989      71.964999999999989
   232   1      13.615000000000009      66.129999999999995      71.964999999999989
   233   1      13.615000000000009      68.074999999999989      70.019999999999996
   234   1      11.670000000000016      66.129999999999995      73.909999999999997
   235   1      13.615000000000009      66.129999999999995       75.85499999999999
   236   1      13.615000000000009      68.074999999999989      73.909999999999997
   237   1      13.615000000000009      70.019999999999996      52.515000000000015
   238   1      11.670000000000016      70.019999999999996      54.460000000000015
   239   1      11.670000000000016      71.964999999999989      56.405000000000015
   240   1      13.615000000000009      70.019999999999996      56.405000000000015
   241   1      13.615000000000009      71.964999999999989      54.460000000000015
   242   1      11.670000000000016      70.019999999999996      58.350000000000016
   243   1      11.670000000000016      71.964999999999989      60.295000000000016
   244   1      13.615000000000009      70.019999999999996      60.295000000000016
   245   1      13.615000000000009      71.964999999999989      58.350000000000016
   246   1      11.670000000000016      70.019999999999996      62.240000000000002
   247   1      11.670000000000016      71.964999999999989      64.185000000000002
   248   1      13.615000000000009      70.019999999999996      64.185000000000002
   249   1      13.615000000000009      71.964999999999989      62.240000000000002
   250   1      11.670000000000016      70.019999999999996      66.129999999999995
   251   1      11.670000000000016      71.964999999999989      68.074999999999989
   252   1      13.615000000000009      70.019999999999996      68.074999999999989
   253   1      13.615000000000009      71.964999999999989      66.129999999999995
   254   1      11.670000000000016      70.019999999999996      70.019999999999996
   255   1      13.615000000000009      70.019999999999996      71.964999999999989
   256   1      13.615000000000009      71.964999999999989      70.019999999999996
   257   1      13.615000000000009      73.909999999999997      56.405000000000015
   258   1      11.670000000000016      73.909999999999997      58.350000000000016
   259   1      11.670000000000016       75.85499999999999      60.295000000000016
   260   1      13.615000000000009      73.909999999999997      60.295000000000016
   261   1      13.615000000000009       75.85499999999999      58.350000000000016
   262   1      11.670000000000016      73.909999999999997      62.240000000000002
   263   1      11.670000000000016       75.85499999999999      64.185000000000002
   264   1      13.615000000000009      73.909999999999997      64.185000000000002
   265   1      13.615000000000009       75.85499999999999      62.240000000000002
   266   1      11.670000000000016      73.909999999999997      66.129999999999995
   267   1      13.615000000000009      73.909999999999997      68.074999999999989
   268   1      13.615000000000009       75.85499999999999      66.129999999999995
   269   1      13.615000000000009      77.799999999999997      60.295000000000016
   270   1      11.670000000000016      77.799999999999997      62.240000000000002
   271   1      13.615000000000009      77.799999999999997      64.185000000000002
   272   1      13.615000000000009       79.74499999999999      62.240000000000002
   273   1       17.50500000000001      40.845000000000013      62.240000000000002
   274   1      15.560000000000018      44.735000000000014      60.295000000000016
   275   1       17.50500000000001      42.790000000000013      60.295000000000016
   276   1       17.50500000000001      44.735000000000014      58.350000000000016
   277   1      15.560000000000018      42.790000000000013      62.240000000000002
   278   1      15.560000000000018      44.735000000000014      64.185000000000002
   279   1       17.50500000000001      42.790000000000013      64.185000000000002
   280   1       17.50500000000001      44.735000000000014      62.240000000000002
   281   1       17.50500000000001      44.735000000000014      66.129999999999995
   282   1      15.560000000000018      48.625000000000014      56.405000000000015
   283   1       17.50500000000001      46.680000000000014      56.405000000000015
   284   1       17.50500000000001      48.625000000000014      54.460000000000015
   285   1      15.560000000000018      46.680000000000014      58.350000000000016
   286   1      15.560000000000018      48.625000000000014      60.295000000000016
   287   1       17.50500000000001      46.680000000000014      60.295000000000016
   288   1       17.50500000000001      48.625000000000014      58.350000000000016
   289   1      15.560000000000018      46.680000000000014      62.240000000000002
   290   1      15.560000000000018      48.625000000000014      64.185000000000002
   291   1       17.50500000000001      46.680000000000014      64.185000000000002
   292   1       17.50500000000001      48.625000000000014      62.240000000000002
   293   1      15.560000000000018      46.680000000000014      66.129999999999995
   294   1      15.560000000000018      48.625000000000014      68.074999999999989
   295   1       17.50500000000001      46.680000000000014      68.074999999999989
   296   1       17.50500000000001      48.625000000000014      66.129999999999995
   297   1       17.50500000000001      48.625000000000014      70.019999999999996
   298   1      15.560000000000018      52.515000000000015      52.515000000000015
   299   1       17.50500000000001      50.570000000000014      52.515000000000015
   300   1       17.50500000000001      52.515000000000015      50.570000000000014
   301   1      15.560000000000018      50.570000000000014      54.460000000000015
   302   1      15.560000000000018      52.515000000000015      56.405000000000015
   303   1       17.50500000000001      50.570000000000014      56.405000000000015
   304   1       17.50500000000001      52.515000000000015      54.460000000000015
   305   1      15.560000000000018      50.570000000000014      58.350000000000016
   306   1      15.560000000000018      52.515000000000015      60.295000000000016
   307   1       17.50500000000001      50.570000000000014      60.295000000000016
   308   1       17.50500000000001      52.515000000000015      58.350000000000016
   309   1      15.560000000000018      50.570000000000014      62.240000000000002
   310   1      15.560000000000018      52.515000000000015      64.185000000000002
   311   1       17.50500000000001      50.570000000000014      64.185000000000002
   312   1       17.50500000000001      52.515000000000015      62.240000000000002
   313   1      15.560000000000018      50.570000000000014      66.129999999999995
   314   1      15.560000000000018      52.515000000000015      68.074999999999989
   315   1       17.50500000000001      50.570000000000014      68.074999999999989
   316   1       17.50500000000001      52.515000000000015      66.129999999999995
   317   1      15.560000000000018      50.570000000000014      70.019999999999996
   318   1      15.560000000000018      52.515000000000015      71.964999999999989
   319   1       17.50500000000001      50.570000000000014      71.964999999999989
   320   1       17.50500000000001      52.515000000000015      70.019999999999996
   321   1       17.50500000000001      52.515000000000015      73.909999999999997
   322   1      15.560000000000018      56.405000000000015      48.625000000000014
   323   1       17.50500000000001      54.460000000000015      48.625000000000014
   324   1       17.50500000000001      56.405000000000015      46.680000000000014
   325   1      15.560000000000018      54.460000000000015      50.570000000000014
   326   1      15.560000000000018      56.405000000000015      52.515000000000015
   327   1       17.50500000000001      54.460000000000015      52.515000000000015
   328   1       17.50500000000001      56.405000000000015      50.570000000000014
   329   1      15.560000000000018      54.460000000000015      54.460000000000015
   330   1      15.560000000000018      56.405000000000015      56.405000000000015
   331   1       17.50500000000001      54.460000000000015      56.405000000000015
   332   1       17.50500000000001      56.405000000000015      54.460000000000015
   333   1      15.560000000000018      54.460000000000015      58.350000000000016
   334   1      15.560000000000018      56.405000000000015      60.295000000000016
   335   1       17.50500000000001      54.460000000000015      60.295000000000016
   336   1       17.50500000000001      56.405000000000015      58.350000000000016
   337   1      15.560000000000018      54.460000000000015      62.240000000000002
   338   1      15.560000000000018      56.405000000000015      64.185000000000002
   339   1       17.50500000000001      54.460000000000015      64.185000000000002
   340   1       17.50500000000001      56.405000000000015      62.240000000000002
   341   1      15.560000000000018      54.460000000000015      66.129999999999995
   342   1      15.560000000000018      56.405000000000015      68.074999999999989
   343   1       17.50500000000001      54.460000000000015      68.074999999999989
   344   1       17.50500000000001      56.405000000000015      66.129999999999995
   345   1      15.560000000000018      54.460000000000015      70.019999999999996
   346   1      15.560000000000018      56.405000000000015      71.964999999999989
   347   1       17.50500000000001      54.460000000000015      71.964999999999989
   348   1       17.50500000000001      56.405000000000015      70.019999999999996
   349   1      15.560000000000018      54.460000000000015      73.909999999999997
   350   1      15.560000000000018      56.405000000000015       75.85499999999999
   351   1       17.50500000000001      54.460000000000015       75.85499999999999
   352   1       17.50500000000001      56.405000000000015      73.909999999999997
   353   1       17.50500000000001      56.405000000000015      77.799999999999997
   354   1      15.560000000000018      60.295000000000016      44.735000000000014
   355   1       17.50500000000001      58.350000000000016      44.735000000000014
   356   1       17.50500000000001      60.295000000000016      42.790000000000013
   357   1      15.560000000000018      58.350000000000016      46.680000000000014
   358   1      15.560000000000018      60.295000000000016      48.625000000000014