model_files/PtCo/PtCo_30000/PtCo_110/PtCo_110_fcc_31263_temp.data (written by ASE) 

31263 	 atoms 
2  atom types
0.0                     111  xlo xhi
0.0                     111  ylo yhi
0.0                     111  zlo zhi


Atoms 

     1   1      110.99999999999999      52.924999999999997      52.924999999999997
     2   1      1.8249999999999955      51.099999999999994      52.924999999999997
     3   1      1.8249999999999955      52.924999999999997      51.099999999999994
     4   1      110.99999999999999      52.924999999999997      56.574999999999996
     5   1      1.8249999999999955      51.099999999999994      56.574999999999996
     6   1      1.8249999999999955      52.924999999999997      54.749999999999993
     7   1      1.8249999999999955      52.924999999999997      58.399999999999991
     8   1      110.99999999999999      56.574999999999996      52.924999999999997
     9   1      1.8249999999999955      54.749999999999993      52.924999999999997
    10   1      1.8249999999999955      56.574999999999996      51.099999999999994
    11   1      110.99999999999999      54.749999999999993      54.749999999999993
    12   1      110.99999999999999      56.574999999999996      56.574999999999996
    13   1      1.8249999999999955      54.749999999999993      56.574999999999996
    14   1      1.8249999999999955      56.574999999999996      54.749999999999993
    15   1      1.8249999999999955      56.574999999999996      58.399999999999991
    16   1      1.8249999999999955      58.399999999999991      52.924999999999997
    17   1      1.8249999999999955      58.399999999999991      56.574999999999996
    18   1       3.649999999999991      49.274999999999999      49.274999999999999
    19   1      5.4749999999999943      47.449999999999996      49.274999999999999
    20   1      5.4749999999999943      49.274999999999999      47.449999999999996
    21   1       3.649999999999991      49.274999999999999      52.924999999999997
    22   1      5.4749999999999943      47.449999999999996      52.924999999999997
    23   1      5.4749999999999943      49.274999999999999      51.099999999999994
    24   1       3.649999999999991      49.274999999999999      56.574999999999996
    25   1      5.4749999999999943      47.449999999999996      56.574999999999996
    26   1      5.4749999999999943      49.274999999999999      54.749999999999993
    27   1       3.649999999999991      49.274999999999999      60.224999999999994
    28   1      5.4749999999999943      47.449999999999996      60.224999999999994
    29   1      5.4749999999999943      49.274999999999999      58.399999999999991
    30   1      5.4749999999999943      49.274999999999999      62.049999999999997
    31   1       3.649999999999991      52.924999999999997      49.274999999999999
    32   1      5.4749999999999943      51.099999999999994      49.274999999999999
    33   1      5.4749999999999943      52.924999999999997      47.449999999999996
    34   1       3.649999999999991      51.099999999999994      51.099999999999994
    35   1       3.649999999999991      52.924999999999997      52.924999999999997
    36   1      5.4749999999999943      51.099999999999994      52.924999999999997
    37   1      5.4749999999999943      52.924999999999997      51.099999999999994
    38   1       3.649999999999991      51.099999999999994      54.749999999999993
    39   1       3.649999999999991      52.924999999999997      56.574999999999996
    40   1      5.4749999999999943      51.099999999999994      56.574999999999996
    41   1      5.4749999999999943      52.924999999999997      54.749999999999993
    42   1       3.649999999999991      51.099999999999994      58.399999999999991
    43   1       3.649999999999991      52.924999999999997      60.224999999999994
    44   1      5.4749999999999943      51.099999999999994      60.224999999999994
    45   1      5.4749999999999943      52.924999999999997      58.399999999999991
    46   1      5.4749999999999943      52.924999999999997      62.049999999999997
    47   1       3.649999999999991      56.574999999999996      49.274999999999999
    48   1      5.4749999999999943      54.749999999999993      49.274999999999999
    49   1      5.4749999999999943      56.574999999999996      47.449999999999996
    50   1       3.649999999999991      54.749999999999993      51.099999999999994
    51   1       3.649999999999991      56.574999999999996      52.924999999999997
    52   1      5.4749999999999943      54.749999999999993      52.924999999999997
    53   1      5.4749999999999943      56.574999999999996      51.099999999999994
    54   1       3.649999999999991      54.749999999999993      54.749999999999993
    55   1       3.649999999999991      56.574999999999996      56.574999999999996
    56   1      5.4749999999999943      54.749999999999993      56.574999999999996
    57   1      5.4749999999999943      56.574999999999996      54.749999999999993
    58   1       3.649999999999991      54.749999999999993      58.399999999999991
    59   1       3.649999999999991      56.574999999999996      60.224999999999994
    60   1      5.4749999999999943      54.749999999999993      60.224999999999994
    61   1      5.4749999999999943      56.574999999999996      58.399999999999991
    62   1      5.4749999999999943      56.574999999999996      62.049999999999997
    63   1       3.649999999999991      60.224999999999994      49.274999999999999
    64   1      5.4749999999999943      58.399999999999991      49.274999999999999
    65   1      5.4749999999999943      60.224999999999994      47.449999999999996
    66   1       3.649999999999991      58.399999999999991      51.099999999999994
    67   1       3.649999999999991      60.224999999999994      52.924999999999997
    68   1      5.4749999999999943      58.399999999999991      52.924999999999997
    69   1      5.4749999999999943      60.224999999999994      51.099999999999994
    70   1       3.649999999999991      58.399999999999991      54.749999999999993
    71   1       3.649999999999991      60.224999999999994      56.574999999999996
    72   1      5.4749999999999943      58.399999999999991      56.574999999999996
    73   1      5.4749999999999943      60.224999999999994      54.749999999999993
    74   1       3.649999999999991      58.399999999999991      58.399999999999991
    75   1       3.649999999999991      60.224999999999994      60.224999999999994
    76   1      5.4749999999999943      58.399999999999991      60.224999999999994
    77   1      5.4749999999999943      60.224999999999994      58.399999999999991
    78   1      5.4749999999999943      60.224999999999994      62.049999999999997
    79   1      5.4749999999999943      62.049999999999997      49.274999999999999
    80   1      5.4749999999999943      62.049999999999997      52.924999999999997
    81   1      5.4749999999999943      62.049999999999997      56.574999999999996
    82   1      5.4749999999999943      62.049999999999997      60.224999999999994
    83   1      7.2999999999999901      45.624999999999993      45.624999999999993
    84   1      9.1249999999999929       43.79999999999999      45.624999999999993
    85   1      9.1249999999999929      45.624999999999993       43.79999999999999
    86   1      7.2999999999999901      45.624999999999993      49.274999999999999
    87   1      9.1249999999999929       43.79999999999999      49.274999999999999
    88   1      9.1249999999999929      45.624999999999993      47.449999999999996
    89   1      7.2999999999999901      45.624999999999993      52.924999999999997
    90   1      9.1249999999999929       43.79999999999999      52.924999999999997
    91   1      9.1249999999999929      45.624999999999993      51.099999999999994
    92   1      7.2999999999999901      45.624999999999993      56.574999999999996
    93   1      9.1249999999999929       43.79999999999999      56.574999999999996
    94   1      9.1249999999999929      45.624999999999993      54.749999999999993
    95   1      7.2999999999999901      45.624999999999993      60.224999999999994
    96   1      9.1249999999999929       43.79999999999999      60.224999999999994
    97   1      9.1249999999999929      45.624999999999993      58.399999999999991
    98   1      7.2999999999999901      45.624999999999993      63.874999999999993
    99   1      9.1249999999999929       43.79999999999999      63.874999999999993
   100   1      9.1249999999999929      45.624999999999993      62.049999999999997
   101   1      9.1249999999999929      45.624999999999993      65.699999999999989
   102   1      7.2999999999999901      49.274999999999999      45.624999999999993
   103   1      9.1249999999999929      47.449999999999996      45.624999999999993
   104   1      9.1249999999999929      49.274999999999999       43.79999999999999
   105   1      7.2999999999999901      47.449999999999996      47.449999999999996
   106   1      7.2999999999999901      49.274999999999999      49.274999999999999
   107   1      9.1249999999999929      47.449999999999996      49.274999999999999
   108   1      9.1249999999999929      49.274999999999999      47.449999999999996
   109   1      7.2999999999999901      47.449999999999996      51.099999999999994
   110   1      7.2999999999999901      49.274999999999999      52.924999999999997
   111   1      9.1249999999999929      47.449999999999996      52.924999999999997
   112   1      9.1249999999999929      49.274999999999999      51.099999999999994
   113   1      7.2999999999999901      47.449999999999996      54.749999999999993
   114   1      7.2999999999999901      49.274999999999999      56.574999999999996
   115   1      9.1249999999999929      47.449999999999996      56.574999999999996
   116   1      9.1249999999999929      49.274999999999999      54.749999999999993
   117   1      7.2999999999999901      47.449999999999996      58.399999999999991
   118   1      7.2999999999999901      49.274999999999999      60.224999999999994
   119   1      9.1249999999999929      47.449999999999996      60.224999999999994
   120   1      9.1249999999999929      49.274999999999999      58.399999999999991
   121   1      7.2999999999999901      47.449999999999996      62.049999999999997
   122   1      7.2999999999999901      49.274999999999999      63.874999999999993
   123   1      9.1249999999999929      47.449999999999996      63.874999999999993
   124   1      9.1249999999999929      49.274999999999999      62.049999999999997
   125   1      9.1249999999999929      49.274999999999999      65.699999999999989
   126   1      7.2999999999999901      52.924999999999997      45.624999999999993
   127   1      9.1249999999999929      51.099999999999994      45.624999999999993
   128   1      9.1249999999999929      52.924999999999997       43.79999999999999
   129   1      7.2999999999999901      51.099999999999994      47.449999999999996
   130   1      7.2999999999999901      52.924999999999997      49.274999999999999
   131   1      9.1249999999999929      51.099999999999994      49.274999999999999
   132   1      9.1249999999999929      52.924999999999997      47.449999999999996
   133   1      7.2999999999999901      51.099999999999994      51.099999999999994
   134   1      7.2999999999999901      52.924999999999997      52.924999999999997
   135   1      9.1249999999999929      51.099999999999994      52.924999999999997
   136   1      9.1249999999999929      52.924999999999997      51.099999999999994
   137   1      7.2999999999999901      51.099999999999994      54.749999999999993
   138   1      7.2999999999999901      52.924999999999997      56.574999999999996
   139   1      9.1249999999999929      51.099999999999994      56.574999999999996
   140   1      9.1249999999999929      52.924999999999997      54.749999999999993
   141   1      7.2999999999999901      51.099999999999994      58.399999999999991
   142   1      7.2999999999999901      52.924999999999997      60.224999999999994
   143   1      9.1249999999999929      51.099999999999994      60.224999999999994
   144   1      9.1249999999999929      52.924999999999997      58.399999999999991
   145   1      7.2999999999999901      51.099999999999994      62.049999999999997
   146   1      7.2999999999999901      52.924999999999997      63.874999999999993
   147   1      9.1249999999999929      51.099999999999994      63.874999999999993
   148   1      9.1249999999999929      52.924999999999997      62.049999999999997
   149   1      9.1249999999999929      52.924999999999997      65.699999999999989
   150   1      7.2999999999999901      56.574999999999996      45.624999999999993
   151   1      9.1249999999999929      54.749999999999993      45.624999999999993
   152   1      9.1249999999999929      56.574999999999996       43.79999999999999
   153   1      7.2999999999999901      54.749999999999993      47.449999999999996
   154   1      7.2999999999999901      56.574999999999996      49.274999999999999
   155   1      9.1249999999999929      54.749999999999993      49.274999999999999
   156   1      9.1249999999999929      56.574999999999996      47.449999999999996
   157   1      7.2999999999999901      54.749999999999993      51.099999999999994
   158   1      7.2999999999999901      56.574999999999996      52.924999999999997
   159   1      9.1249999999999929      54.749999999999993      52.924999999999997
   160   1      9.1249999999999929      56.574999999999996      51.099999999999994
   161   1      7.2999999999999901      54.749999999999993      54.749999999999993
   162   1      7.2999999999999901      56.574999999999996      56.574999999999996
   163   1      9.1249999999999929      54.749999999999993      56.574999999999996
   164   1      9.1249999999999929      56.574999999999996      54.749999999999993
   165   1      7.2999999999999901      54.749999999999993      58.399999999999991
   166   1      7.2999999999999901      56.574999999999996      60.224999999999994
   167   1      9.1249999999999929      54.749999999999993      60.224999999999994
   168   1      9.1249999999999929      56.574999999999996      58.399999999999991
   169   1      7.2999999999999901      54.749999999999993      62.049999999999997
   170   1      7.2999999999999901      56.574999999999996      63.874999999999993
   171   1      9.1249999999999929      54.749999999999993      63.874999999999993
   172   1      9.1249999999999929      56.574999999999996      62.049999999999997
   173   1      9.1249999999999929      56.574999999999996      65.699999999999989
   174   1      7.2999999999999901      60.224999999999994      45.624999999999993
   175   1      9.1249999999999929      58.399999999999991      45.624999999999993
   176   1      9.1249999999999929      60.224999999999994       43.79999999999999
   177   1      7.2999999999999901      58.399999999999991      47.449999999999996
   178   1      7.2999999999999901      60.224999999999994      49.274999999999999
   179   1      9.1249999999999929      58.399999999999991      49.274999999999999
   180   1      9.1249999999999929      60.224999999999994      47.449999999999996
   181   1      7.2999999999999901      58.399999999999991      51.099999999999994
   182   1      7.2999999999999901      60.224999999999994      52.924999999999997
   183   1      9.1249999999999929      58.399999999999991      52.924999999999997
   184   1      9.1249999999999929      60.224999999999994      51.099999999999994
   185   1      7.2999999999999901      58.399999999999991      54.749999999999993
   186   1      7.2999999999999901      60.224999999999994      56.574999999999996
   187   1      9.1249999999999929      58.399999999999991      56.574999999999996
   188   1      9.1249999999999929      60.224999999999994      54.749999999999993
   189   1      7.2999999999999901      58.399999999999991      58.399999999999991
   190   1      7.2999999999999901      60.224999999999994      60.224999999999994
   191   1      9.1249999999999929      58.399999999999991      60.224999999999994
   192   1      9.1249999999999929      60.224999999999994      58.399999999999991
   193   1      7.2999999999999901      58.399999999999991      62.049999999999997
   194   1      7.2999999999999901      60.224999999999994      63.874999999999993
   195   1      9.1249999999999929      58.399999999999991      63.874999999999993
   196   1      9.1249999999999929      60.224999999999994      62.049999999999997
   197   1      9.1249999999999929      60.224999999999994      65.699999999999989
   198   1      7.2999999999999901      63.874999999999993      45.624999999999993
   199   1      9.1249999999999929      62.049999999999997      45.624999999999993
   200   1      9.1249999999999929      63.874999999999993       43.79999999999999
   201   1      7.2999999999999901      62.049999999999997      47.449999999999996
   202   1      7.2999999999999901      63.874999999999993      49.274999999999999
   203   1      9.1249999999999929      62.049999999999997      49.274999999999999
   204   1      9.1249999999999929      63.874999999999993      47.449999999999996
   205   1      7.2999999999999901      62.049999999999997      51.099999999999994
   206   1      7.2999999999999901      63.874999999999993      52.924999999999997
   207   1      9.1249999999999929      62.049999999999997      52.924999999999997
   208   1      9.1249999999999929      63.874999999999993      51.099999999999994
   209   1      7.2999999999999901      62.049999999999997      54.749999999999993
   210   1      7.2999999999999901      63.874999999999993      56.574999999999996
   211   1      9.1249999999999929      62.049999999999997      56.574999999999996
   212   1      9.1249999999999929      63.874999999999993      54.749999999999993
   213   1      7.2999999999999901      62.049999999999997      58.399999999999991
   214   1      7.2999999999999901      63.874999999999993      60.224999999999994
   215   1      9.1249999999999929      62.049999999999997      60.224999999999994
   216   1      9.1249999999999929      63.874999999999993      58.399999999999991
   217   1      7.2999999999999901      62.049999999999997      62.049999999999997
   218   1      7.2999999999999901      63.874999999999993      63.874999999999993
   219   1      9.1249999999999929      62.049999999999997      63.874999999999993
   220   1      9.1249999999999929      63.874999999999993      62.049999999999997
   221   1      9.1249999999999929      63.874999999999993      65.699999999999989
   222   1      9.1249999999999929      65.699999999999989      45.624999999999993
   223   1      9.1249999999999929      65.699999999999989      49.274999999999999
   224   1      9.1249999999999929      65.699999999999989      52.924999999999997
   225   1      9.1249999999999929      65.699999999999989      56.574999999999996
   226   1      9.1249999999999929      65.699999999999989      60.224999999999994
   227   1      9.1249999999999929      65.699999999999989      63.874999999999993
   228   1      10.949999999999996      41.974999999999994      41.974999999999994
   229   1      12.774999999999999      40.149999999999991      41.974999999999994
   230   1      12.774999999999999      41.974999999999994      40.149999999999991
   231   1      10.949999999999996      41.974999999999994      45.624999999999993
   232   1      12.774999999999999      40.149999999999991      45.624999999999993
   233   1      12.774999999999999      41.974999999999994       43.79999999999999
   234   1      10.949999999999996      41.974999999999994      49.274999999999999
   235   1      12.774999999999999      40.149999999999991      49.274999999999999
   236   1      12.774999999999999      41.974999999999994      47.449999999999996
   237   1      10.949999999999996      41.974999999999994      52.924999999999997
   238   1      12.774999999999999      40.149999999999991      52.924999999999997
   239   1      12.774999999999999      41.974999999999994      51.099999999999994
   240   1      10.949999999999996      41.974999999999994      56.574999999999996
   241   1      12.774999999999999      40.149999999999991      56.574999999999996
   242   1      12.774999999999999      41.974999999999994      54.749999999999993
   243   1      10.949999999999996      41.974999999999994      60.224999999999994
   244   1      12.774999999999999      40.149999999999991      60.224999999999994
   245   1      12.774999999999999      41.974999999999994      58.399999999999991
   246   1      10.949999999999996      41.974999999999994      63.874999999999993
   247   1      12.774999999999999      40.149999999999991      63.874999999999993
   248   1      12.774999999999999      41.974999999999994      62.049999999999997
   249   1      10.949999999999996      41.974999999999994      67.524999999999991
   250   1      12.774999999999999      40.149999999999991      67.524999999999991
   251   1      12.774999999999999      41.974999999999994      65.699999999999989
   252   1      12.774999999999999      41.974999999999994      69.349999999999994
   253   1      10.949999999999996      45.624999999999993      41.974999999999994
   254   1      12.774999999999999       43.79999999999999      41.974999999999994
   255   1      12.774999999999999      45.624999999999993      40.149999999999991
   256   1      10.949999999999996       43.79999999999999       43.79999999999999
   257   1      10.949999999999996      45.624999999999993      45.624999999999993
   258   1      12.774999999999999       43.79999999999999      45.624999999999993
   259   1      12.774999999999999      45.624999999999993       43.79999999999999
   260   1      10.949999999999996       43.79999999999999      47.449999999999996
   261   1      10.949999999999996      45.624999999999993      49.274999999999999
   262   1      12.774999999999999       43.79999999999999      49.274999999999999
   263   1      12.774999999999999      45.624999999999993      47.449999999999996
   264   1      10.949999999999996       43.79999999999999      51.099999999999994
   265   1      10.949999999999996      45.624999999999993      52.924999999999997
   266   1      12.774999999999999       43.79999999999999      52.924999999999997
   267   1      12.774999999999999      45.624999999999993      51.099999999999994
   268   1      10.949999999999996       43.79999999999999      54.749999999999993
   269   1      10.949999999999996      45.624999999999993      56.574999999999996
   270   1      12.774999999999999       43.79999999999999      56.574999999999996
   271   1      12.774999999999999      45.624999999999993      54.749999999999993
   272   1      10.949999999999996       43.79999999999999      58.399999999999991
   273   1      10.949999999999996      45.624999999999993      60.224999999999994
   274   1      12.774999999999999       43.79999999999999      60.224999999999994
   275   1      12.774999999999999      45.624999999999993      58.399999999999991
   276   1      10.949999999999996       43.79999999999999      62.049999999999997
   277   1      10.949999999999996      45.624999999999993      63.874999999999993
   278   1      12.774999999999999       43.79999999999999      63.874999999999993
   279   1      12.774999999999999      45.624999999999993      62.049999999999997
   280   1      10.949999999999996       43.79999999999999      65.699999999999989
   281   1      10.949999999999996      45.624999999999993      67.524999999999991
   282   1      12.774999999999999       43.79999999999999      67.524999999999991
   283   1      12.774999999999999      45.624999999999993      65.699999999999989
   284   1      12.774999999999999      45.624999999999993      69.349999999999994
   285   1      10.949999999999996      49.274999999999999      41.974999999999994
   286   1      12.774999999999999      47.449999999999996      41.974999999999994
   287   1      12.774999999999999      49.274999999999999      40.149999999999991
   288   1      10.949999999999996      47.449999999999996       43.79999999999999
   289   1      10.949999999999996      49.274999999999999      45.624999999999993
   290   1      12.774999999999999      47.449999999999996      45.624999999999993
   291   1      12.774999999999999      49.274999999999999       43.79999999999999
   292   1      10.949999999999996      47.449999999999996      47.449999999999996
   293   1      10.949999999999996      49.274999999999999      49.274999999999999
   294   1      12.774999999999999      47.449999999999996      49.274999999999999
   295   1      12.774999999999999      49.274999999999999      47.449999999999996
   296   1      10.949999999999996      47.449999999999996      51.099999999999994
   297   1      10.949999999999996      49.274999999999999      52.924999999999997
   298   1      12.774999999999999      47.449999999999996      52.924999999999997
   299   1      12.774999999999999      49.274999999999999      51.099999999999994
   300   1      10.949999999999996      47.449999999999996      54.749999999999993
   301   1      10.949999999999996      49.274999999999999      56.574999999999996
   302   1      12.774999999999999      47.449999999999996      56.574999999999996
   303   1      12.774999999999999      49.274999999999999      54.749999999999993
   304   1      10.949999999999996      47.449999999999996      58.399999999999991
   305   1      10.949999999999996      49.274999999999999      60.224999999999994
   306   1      12.774999999999999      47.449999999999996      60.224999999999994
   307   1      12.774999999999999      49.274999999999999      58.399999999999991
   308   1      10.949999999999996      47.449999999999996      62.049999999999997
   309   1      10.949999999999996      49.274999999999999      63.874999999999993
   310   1      12.774999999999999      47.449999999999996      63.874999999999993
   311   1      12.774999999999999      49.274999999999999      62.049999999999997
   312   1      10.949999999999996      47.449999999999996      65.699999999999989
   313   1      10.949999999999996      49.274999999999999      67.524999999999991
   314   1      12.774999999999999      47.449999999999996      67.524999999999991
   315   1      12.774999999999999      49.274999999999999      65.699999999999989
   316   1      12.774999999999999      49.274999999999999      69.349999999999994
   317   1      10.949999999999996      52.924999999999997      41.974999999999994
   318   1      12.774999999999999      51.099999999999994      41.974999999999994
   319   1      12.774999999999999      52.924999999999997      40.149999999999991
   320   1      10.949999999999996      51.099999999999994       43.79999999999999
   321   1      10.949999999999996      52.924999999999997      45.624999999999993
   322   1      12.774999999999999      51.099999999999994      45.624999999999993
   323   1      12.774999999999999      52.924999999999997       43.79999999999999
   324   1      10.949999999999996      51.099999999999994      47.449999999999996
   325   1      10.949999999999996      52.924999999999997      49.274999999999999
   326   1      12.774999999999999      51.099999999999994      49.274999999999999
   327   1      12.774999999999999      52.924999999999997      47.449999999999996
   328   1      10.949999999999996      51.099999999999994      51.099999999999994
   329   1      10.949999999999996      52.924999999999997      52.924999999999997
   330   1      12.774999999999999      51.099999999999994      52.924999999999997
   331   1      12.774999999999999      52.924999999999997      51.099999999999994
   332   1      10.949999999999996      51.099999999999994      54.749999999999993
   333   1      10.949999999999996      52.924999999999997      56.574999999999996
   334   1      12.774999999999999      51.099999999999994      56.574999999999996
   335   1      12.774999999999999      52.924999999999997      54.749999999999993
   336   1      10.949999999999996      51.099999999999994      58.399999999999991
   337   1      10.949999999999996      52.924999999999997      60.224999999999994
   338   1      12.774999999999999      51.099999999999994      60.224999999999994
   339   1      12.774999999999999      52.924999999999997      58.399999999999991
   340   1      10.949999999999996      51.099999999999994      62.049999999999997
   341   1      10.949999999999996      52.924999999999997      63.874999999999993
   342   1      12.774999999999999      51.099999999999994      63.874999999999993
   343   1      12.774999999999999      52.924999999999997      62.049999999999997
   344   1      10.949999999999996      51.099999999999994      65.699999999999989
   345   1      10.949999999999996      52.924999999999997      67.524999999999991
   346   1      12.774999999999999      51.099999999999994      67.524999999999991
   347   1      12.774999999999999      52.924999999999997      65.699999999999989
   348   1      12.774999999999999      52.924999999999997      69.349999999999994
   349   1      10.949999999999996      56.574999999999996      41.974999999999994
   350   1      12.774999999999999      54.749999999999993      41.974999999999994
   351   1      12.774999999999999      56.574999999999996      40.149999999999991
   352   1      10.949999999999996      54.749999999999993       43.79999999999999
   353   1      10.949999999999996      56.574999999999996      45.624999999999993
   354   1      12.774999999999999      54.749999999999993      45.624999999999993
   355   1      12.774999999999999      56.574999999999996       43.79999999999999
   356   1      10.949999999999996      54.749999999999993      47.449999999999996
   357   1      10.949999999999996      56.574999999999996      49.274999999999999
   358   1      12.774999999999999      54.749999999999993      49.274999999999999