model_files/PdCo/PdCo_30000/PdCo_221/PdCo_221_fcc_29329_temp.data (written by ASE) 

29329 	 atoms 
2  atom types
0.0                     121  xlo xhi
0.0                     121  ylo yhi
0.0                     121  zlo zhi


Atoms 

     1   1                   1.875      58.125000000000007                      60
     2   1                   1.875                      60      58.125000000000007
     3   1                       0                      60                      60
     4   1                   1.875                      60                  61.875
     5   1                   1.875                  61.875                      60
     6   1                   5.625      54.375000000000007                   56.25
     7   1                   5.625      54.375000000000007                      60
     8   1                   5.625      54.375000000000007      63.749999999999993
     9   1                   5.625                   56.25      54.375000000000007
    10   1                    3.75                   56.25                   56.25
    11   1                    3.75      58.125000000000007      58.125000000000007
    12   1                   5.625                   56.25      58.125000000000007
    13   1                   5.625      58.125000000000007                   56.25
    14   1                    3.75                   56.25                      60
    15   1                    3.75      58.125000000000007                  61.875
    16   1                   5.625                   56.25                  61.875
    17   1                   5.625      58.125000000000007                      60
    18   1                    3.75                   56.25      63.749999999999993
    19   1                   5.625                   56.25                  65.625
    20   1                   5.625      58.125000000000007      63.749999999999993
    21   1                   5.625                      60      54.375000000000007
    22   1                    3.75                      60                   56.25
    23   1                    3.75                  61.875      58.125000000000007
    24   1                   5.625                      60      58.125000000000007
    25   1                   5.625                  61.875                   56.25
    26   1                    3.75                      60                      60
    27   1                    3.75                  61.875                  61.875
    28   1                   5.625                      60                  61.875
    29   1                   5.625                  61.875                      60
    30   1                    3.75                      60      63.749999999999993
    31   1                   5.625                      60                  65.625
    32   1                   5.625                  61.875      63.749999999999993
    33   1                   5.625      63.749999999999993      54.375000000000007
    34   1                    3.75      63.749999999999993                   56.25
    35   1                   5.625      63.749999999999993      58.125000000000007
    36   1                   5.625                  65.625                   56.25
    37   1                    3.75      63.749999999999993                      60
    38   1                   5.625      63.749999999999993                  61.875
    39   1                   5.625                  65.625                      60
    40   1                    3.75      63.749999999999993      63.749999999999993
    41   1                   5.625      63.749999999999993                  65.625
    42   1                   5.625                  65.625      63.749999999999993
    43   1                   9.375                  50.625                   56.25
    44   1                   9.375                  50.625                      60
    45   1                   9.375                  50.625      63.749999999999993
    46   1                     7.5      54.375000000000007      54.375000000000007
    47   1                   9.375                    52.5      54.375000000000007
    48   1                   9.375      54.375000000000007                    52.5
    49   1                     7.5                    52.5                   56.25
    50   1                     7.5      54.375000000000007      58.125000000000007
    51   1                   9.375                    52.5      58.125000000000007
    52   1                   9.375      54.375000000000007                   56.25
    53   1                     7.5                    52.5                      60
    54   1                     7.5      54.375000000000007                  61.875
    55   1                   9.375                    52.5                  61.875
    56   1                   9.375      54.375000000000007                      60
    57   1                     7.5                    52.5      63.749999999999993
    58   1                     7.5      54.375000000000007                  65.625
    59   1                   9.375                    52.5                  65.625
    60   1                   9.375      54.375000000000007      63.749999999999993
    61   1                   9.375      54.375000000000007                    67.5
    62   1                   9.375                   56.25                  50.625
    63   1                     7.5                   56.25                    52.5
    64   1                     7.5      58.125000000000007      54.375000000000007
    65   1                   9.375                   56.25      54.375000000000007
    66   1                   9.375      58.125000000000007                    52.5
    67   1                     7.5                   56.25                   56.25
    68   1                     7.5      58.125000000000007      58.125000000000007
    69   1                   9.375                   56.25      58.125000000000007
    70   1                   9.375      58.125000000000007                   56.25
    71   1                     7.5                   56.25                      60
    72   1                     7.5      58.125000000000007                  61.875
    73   1                   9.375                   56.25                  61.875
    74   1                   9.375      58.125000000000007                      60
    75   1                     7.5                   56.25      63.749999999999993
    76   1                     7.5      58.125000000000007                  65.625
    77   1                   9.375                   56.25                  65.625
    78   1                   9.375      58.125000000000007      63.749999999999993
    79   1                     7.5                   56.25                    67.5
    80   1                   9.375                   56.25                  69.375
    81   1                   9.375      58.125000000000007                    67.5
    82   1                   9.375                      60                  50.625
    83   1                     7.5                      60                    52.5
    84   1                     7.5                  61.875      54.375000000000007
    85   1                   9.375                      60      54.375000000000007
    86   1                   9.375                  61.875                    52.5
    87   1                     7.5                      60                   56.25
    88   1                     7.5                  61.875      58.125000000000007
    89   1                   9.375                      60      58.125000000000007
    90   1                   9.375                  61.875                   56.25
    91   1                     7.5                      60                      60
    92   1                     7.5                  61.875                  61.875
    93   1                   9.375                      60                  61.875
    94   1                   9.375                  61.875                      60
    95   1                     7.5                      60      63.749999999999993
    96   1                     7.5                  61.875                  65.625
    97   1                   9.375                      60                  65.625
    98   1                   9.375                  61.875      63.749999999999993
    99   1                     7.5                      60                    67.5
   100   1                   9.375                      60                  69.375
   101   1                   9.375                  61.875                    67.5
   102   1                   9.375      63.749999999999993                  50.625
   103   1                     7.5      63.749999999999993                    52.5
   104   1                     7.5                  65.625      54.375000000000007
   105   1                   9.375      63.749999999999993      54.375000000000007
   106   1                   9.375                  65.625                    52.5
   107   1                     7.5      63.749999999999993                   56.25
   108   1                     7.5                  65.625      58.125000000000007
   109   1                   9.375      63.749999999999993      58.125000000000007
   110   1                   9.375                  65.625                   56.25
   111   1                     7.5      63.749999999999993                      60
   112   1                     7.5                  65.625                  61.875
   113   1                   9.375      63.749999999999993                  61.875
   114   1                   9.375                  65.625                      60
   115   1                     7.5      63.749999999999993      63.749999999999993
   116   1                     7.5                  65.625                  65.625
   117   1                   9.375      63.749999999999993                  65.625
   118   1                   9.375                  65.625      63.749999999999993
   119   1                     7.5      63.749999999999993                    67.5
   120   1                   9.375      63.749999999999993                  69.375
   121   1                   9.375                  65.625                    67.5
   122   1                   9.375                    67.5      54.375000000000007
   123   1                     7.5                    67.5                   56.25
   124   1                   9.375                    67.5      58.125000000000007
   125   1                   9.375                  69.375                   56.25
   126   1                     7.5                    67.5                      60
   127   1                   9.375                    67.5                  61.875
   128   1                   9.375                  69.375                      60
   129   1                     7.5                    67.5      63.749999999999993
   130   1                   9.375                    67.5                  65.625
   131   1                   9.375                  69.375      63.749999999999993
   132   1                  13.125                  46.875                   56.25
   133   1                  13.125                  46.875                      60
   134   1                  13.125                  46.875      63.749999999999993
   135   1                   11.25                  50.625      54.375000000000007
   136   1                  13.125                   48.75      54.375000000000007
   137   1                  13.125                  50.625                    52.5
   138   1                   11.25                   48.75                   56.25
   139   1                   11.25                  50.625      58.125000000000007
   140   1                  13.125                   48.75      58.125000000000007
   141   1                  13.125                  50.625                   56.25
   142   1                   11.25                   48.75                      60
   143   1                   11.25                  50.625                  61.875
   144   1                  13.125                   48.75                  61.875
   145   1                  13.125                  50.625                      60
   146   1                   11.25                   48.75      63.749999999999993
   147   1                   11.25                  50.625                  65.625
   148   1                  13.125                   48.75                  65.625
   149   1                  13.125                  50.625      63.749999999999993
   150   1                  13.125                  50.625                    67.5
   151   1                   11.25      54.375000000000007                  50.625
   152   1                  13.125                    52.5                  50.625
   153   1                  13.125      54.375000000000007                   48.75
   154   1                   11.25                    52.5                    52.5
   155   1                   11.25      54.375000000000007      54.375000000000007
   156   1                  13.125                    52.5      54.375000000000007
   157   1                  13.125      54.375000000000007                    52.5
   158   1                   11.25                    52.5                   56.25
   159   1                   11.25      54.375000000000007      58.125000000000007
   160   1                  13.125                    52.5      58.125000000000007
   161   1                  13.125      54.375000000000007                   56.25
   162   1                   11.25                    52.5                      60
   163   1                   11.25      54.375000000000007                  61.875
   164   1                  13.125                    52.5                  61.875
   165   1                  13.125      54.375000000000007                      60
   166   1                   11.25                    52.5      63.749999999999993
   167   1                   11.25      54.375000000000007                  65.625
   168   1                  13.125                    52.5                  65.625
   169   1                  13.125      54.375000000000007      63.749999999999993
   170   1                   11.25                    52.5                    67.5
   171   1                   11.25      54.375000000000007                  69.375
   172   1                  13.125                    52.5                  69.375
   173   1                  13.125      54.375000000000007                    67.5
   174   1                  13.125      54.375000000000007                   71.25
   175   1                  13.125                   56.25                  46.875
   176   1                   11.25                   56.25                   48.75
   177   1                   11.25      58.125000000000007                  50.625
   178   1                  13.125                   56.25                  50.625
   179   1                  13.125      58.125000000000007                   48.75
   180   1                   11.25                   56.25                    52.5
   181   1                   11.25      58.125000000000007      54.375000000000007
   182   1                  13.125                   56.25      54.375000000000007
   183   1                  13.125      58.125000000000007                    52.5
   184   1                   11.25                   56.25                   56.25
   185   1                   11.25      58.125000000000007      58.125000000000007
   186   1                  13.125                   56.25      58.125000000000007
   187   1                  13.125      58.125000000000007                   56.25
   188   1                   11.25                   56.25                      60
   189   1                   11.25      58.125000000000007                  61.875
   190   1                  13.125                   56.25                  61.875
   191   1                  13.125      58.125000000000007                      60
   192   1                   11.25                   56.25      63.749999999999993
   193   1                   11.25      58.125000000000007                  65.625
   194   1                  13.125                   56.25                  65.625
   195   1                  13.125      58.125000000000007      63.749999999999993
   196   1                   11.25                   56.25                    67.5
   197   1                   11.25      58.125000000000007                  69.375
   198   1                  13.125                   56.25                  69.375
   199   1                  13.125      58.125000000000007                    67.5
   200   1                   11.25                   56.25                   71.25
   201   1                  13.125                   56.25      73.125000000000014
   202   1                  13.125      58.125000000000007                   71.25
   203   1                  13.125                      60                  46.875
   204   1                   11.25                      60                   48.75
   205   1                   11.25                  61.875                  50.625
   206   1                  13.125                      60                  50.625
   207   1                  13.125                  61.875                   48.75
   208   1                   11.25                      60                    52.5
   209   1                   11.25                  61.875      54.375000000000007
   210   1                  13.125                      60      54.375000000000007
   211   1                  13.125                  61.875                    52.5
   212   1                   11.25                      60                   56.25
   213   1                   11.25                  61.875      58.125000000000007
   214   1                  13.125                      60      58.125000000000007
   215   1                  13.125                  61.875                   56.25
   216   1                   11.25                      60                      60
   217   1                   11.25                  61.875                  61.875
   218   1                  13.125                      60                  61.875
   219   1                  13.125                  61.875                      60
   220   1                   11.25                      60      63.749999999999993
   221   1                   11.25                  61.875                  65.625
   222   1                  13.125                      60                  65.625
   223   1                  13.125                  61.875      63.749999999999993
   224   1                   11.25                      60                    67.5
   225   1                   11.25                  61.875                  69.375
   226   1                  13.125                      60                  69.375
   227   1                  13.125                  61.875                    67.5
   228   1                   11.25                      60                   71.25
   229   1                  13.125                      60      73.125000000000014
   230   1                  13.125                  61.875                   71.25
   231   1                  13.125      63.749999999999993                  46.875
   232   1                   11.25      63.749999999999993                   48.75
   233   1                   11.25                  65.625                  50.625
   234   1                  13.125      63.749999999999993                  50.625
   235   1                  13.125                  65.625                   48.75
   236   1                   11.25      63.749999999999993                    52.5
   237   1                   11.25                  65.625      54.375000000000007
   238   1                  13.125      63.749999999999993      54.375000000000007
   239   1                  13.125                  65.625                    52.5
   240   1                   11.25      63.749999999999993                   56.25
   241   1                   11.25                  65.625      58.125000000000007
   242   1                  13.125      63.749999999999993      58.125000000000007
   243   1                  13.125                  65.625                   56.25
   244   1                   11.25      63.749999999999993                      60
   245   1                   11.25                  65.625                  61.875
   246   1                  13.125      63.749999999999993                  61.875
   247   1                  13.125                  65.625                      60
   248   1                   11.25      63.749999999999993      63.749999999999993
   249   1                   11.25                  65.625                  65.625
   250   1                  13.125      63.749999999999993                  65.625
   251   1                  13.125                  65.625      63.749999999999993
   252   1                   11.25      63.749999999999993                    67.5
   253   1                   11.25                  65.625                  69.375
   254   1                  13.125      63.749999999999993                  69.375
   255   1                  13.125                  65.625                    67.5
   256   1                   11.25      63.749999999999993                   71.25
   257   1                  13.125      63.749999999999993      73.125000000000014
   258   1                  13.125                  65.625                   71.25
   259   1                  13.125                    67.5                  50.625
   260   1                   11.25                    67.5                    52.5
   261   1                   11.25                  69.375      54.375000000000007
   262   1                  13.125                    67.5      54.375000000000007
   263   1                  13.125                  69.375                    52.5
   264   1                   11.25                    67.5                   56.25
   265   1                   11.25                  69.375      58.125000000000007
   266   1                  13.125                    67.5      58.125000000000007
   267   1                  13.125                  69.375                   56.25
   268   1                   11.25                    67.5                      60
   269   1                   11.25                  69.375                  61.875
   270   1                  13.125                    67.5                  61.875
   271   1                  13.125                  69.375                      60
   272   1                   11.25                    67.5      63.749999999999993
   273   1                   11.25                  69.375                  65.625
   274   1                  13.125                    67.5                  65.625
   275   1                  13.125                  69.375      63.749999999999993
   276   1                   11.25                    67.5                    67.5
   277   1                  13.125                    67.5                  69.375
   278   1                  13.125                  69.375                    67.5
   279   1                  13.125                   71.25      54.375000000000007
   280   1                   11.25                   71.25                   56.25
   281   1                  13.125                   71.25      58.125000000000007
   282   1                  13.125      73.125000000000014                   56.25
   283   1                   11.25                   71.25                      60
   284   1                  13.125                   71.25                  61.875
   285   1                  13.125      73.125000000000014                      60
   286   1                   11.25                   71.25      63.749999999999993
   287   1                  13.125                   71.25                  65.625
   288   1                  13.125      73.125000000000014      63.749999999999993
   289   1                  16.875                  43.125                   56.25
   290   1                  16.875                  43.125                      60
   291   1                  16.875                  43.125      63.749999999999993
   292   1                  16.875                  46.875                   48.75
   293   1                      15                  46.875      54.375000000000007
   294   1                  16.875                      45      54.375000000000007
   295   1                  16.875                  46.875                    52.5
   296   1                      15                      45                   56.25
   297   1                      15                  46.875      58.125000000000007
   298   1                  16.875                      45      58.125000000000007
   299   1                  16.875                  46.875                   56.25
   300   1                      15                      45                      60
   301   1                      15                  46.875                  61.875
   302   1                  16.875                      45                  61.875
   303   1                  16.875                  46.875                      60
   304   1                      15                      45      63.749999999999993
   305   1                      15                  46.875                  65.625
   306   1                  16.875                      45                  65.625
   307   1                  16.875                  46.875      63.749999999999993
   308   1                  16.875                  46.875                    67.5
   309   1                  16.875                  46.875                   71.25
   310   1                  16.875                   48.75                  46.875
   311   1                      15                   48.75                   48.75
   312   1                      15                  50.625                  50.625
   313   1                  16.875                   48.75                  50.625
   314   1                  16.875                  50.625                   48.75
   315   1                      15                   48.75                    52.5
   316   1                      15                  50.625      54.375000000000007
   317   1                  16.875                   48.75      54.375000000000007
   318   1                  16.875                  50.625                    52.5
   319   1                      15                   48.75                   56.25
   320   1                      15                  50.625      58.125000000000007
   321   1                  16.875                   48.75      58.125000000000007
   322   1                  16.875                  50.625                   56.25
   323   1                      15                   48.75                      60
   324   1                      15                  50.625                  61.875
   325   1                  16.875                   48.75                  61.875
   326   1                  16.875                  50.625                      60
   327   1                      15                   48.75      63.749999999999993
   328   1                      15                  50.625                  65.625
   329   1                  16.875                   48.75                  65.625
   330   1                  16.875                  50.625      63.749999999999993
   331   1                      15                   48.75                    67.5
   332   1                      15                  50.625                  69.375
   333   1                  16.875                   48.75                  69.375
   334   1                  16.875                  50.625                    67.5
   335   1                      15                   48.75                   71.25
   336   1                  16.875                   48.75      73.125000000000014
   337   1                  16.875                  50.625                   71.25
   338   1                      15      54.375000000000007                  46.875
   339   1                  16.875                    52.5                  46.875
   340   1                  16.875      54.375000000000007                      45
   341   1                      15                    52.5                   48.75
   342   1                      15      54.375000000000007                  50.625
   343   1                  16.875                    52.5                  50.625
   344   1                  16.875      54.375000000000007                   48.75
   345   1                      15                    52.5                    52.5
   346   1                      15      54.375000000000007      54.375000000000007
   347   1                  16.875                    52.5      54.375000000000007
   348   1                  16.875      54.375000000000007                    52.5
   349   1                      15                    52.5                   56.25
   350   1                      15      54.375000000000007      58.125000000000007
   351   1                  16.875                    52.5      58.125000000000007
   352   1                  16.875      54.375000000000007                   56.25
   353   1                      15                    52.5                      60
   354   1                      15      54.375000000000007                  61.875
   355   1                  16.875                    52.5                  61.875
   356   1                  16.875      54.375000000000007                      60
   357   1                      15                    52.5      63.749999999999993
   358   1                      15      54.375000000000007                  65.625