model_files/Pt/Pt_30000/Pt_331/data.Pt_331_fcc_30729 (written by ASE) 

30729 	 atoms 
1  atom types
0.0                     127  xlo xhi
0.0                     127  ylo yhi
0.0                     127  zlo zhi


Atoms 

     1   1      1.9599999999999866      60.759999999999977      62.719999999999985
     2   1      1.9599999999999866      62.719999999999985      60.759999999999977
     3   1      126.99999999999999      62.719999999999985      62.719999999999985
     4   1      1.9599999999999866      62.719999999999985      64.679999999999978
     5   1      1.9599999999999866      64.679999999999978      62.719999999999985
     6   1      5.8799999999999812      56.839999999999982      58.799999999999983
     7   1      5.8799999999999812      56.839999999999982      62.719999999999985
     8   1      5.8799999999999812      56.839999999999982      66.639999999999986
     9   1      5.8799999999999812      58.799999999999983      56.839999999999982
    10   1      3.9199999999999875      58.799999999999983      58.799999999999983
    11   1      3.9199999999999875      60.759999999999977      60.759999999999977
    12   1      5.8799999999999812      58.799999999999983      60.759999999999977
    13   1      5.8799999999999812      60.759999999999977      58.799999999999983
    14   1      3.9199999999999875      58.799999999999983      62.719999999999985
    15   1      3.9199999999999875      60.759999999999977      64.679999999999978
    16   1      5.8799999999999812      58.799999999999983      64.679999999999978
    17   1      5.8799999999999812      60.759999999999977      62.719999999999985
    18   1      3.9199999999999875      58.799999999999983      66.639999999999986
    19   1      5.8799999999999812      58.799999999999983       68.59999999999998
    20   1      5.8799999999999812      60.759999999999977      66.639999999999986
    21   1      5.8799999999999812      62.719999999999985      56.839999999999982
    22   1      3.9199999999999875      62.719999999999985      58.799999999999983
    23   1      3.9199999999999875      64.679999999999978      60.759999999999977
    24   1      5.8799999999999812      62.719999999999985      60.759999999999977
    25   1      5.8799999999999812      64.679999999999978      58.799999999999983
    26   1      3.9199999999999875      62.719999999999985      62.719999999999985
    27   1      3.9199999999999875      64.679999999999978      64.679999999999978
    28   1      5.8799999999999812      62.719999999999985      64.679999999999978
    29   1      5.8799999999999812      64.679999999999978      62.719999999999985
    30   1      3.9199999999999875      62.719999999999985      66.639999999999986
    31   1      5.8799999999999812      62.719999999999985       68.59999999999998
    32   1      5.8799999999999812      64.679999999999978      66.639999999999986
    33   1      5.8799999999999812      66.639999999999986      56.839999999999982
    34   1      3.9199999999999875      66.639999999999986      58.799999999999983
    35   1      5.8799999999999812      66.639999999999986      60.759999999999977
    36   1      5.8799999999999812       68.59999999999998      58.799999999999983
    37   1      3.9199999999999875      66.639999999999986      62.719999999999985
    38   1      5.8799999999999812      66.639999999999986      64.679999999999978
    39   1      5.8799999999999812       68.59999999999998      62.719999999999985
    40   1      3.9199999999999875      66.639999999999986      66.639999999999986
    41   1      5.8799999999999812      66.639999999999986       68.59999999999998
    42   1      5.8799999999999812       68.59999999999998      66.639999999999986
    43   1      9.7999999999999829       52.91999999999998      58.799999999999983
    44   1      9.7999999999999829       52.91999999999998      62.719999999999985
    45   1      9.7999999999999829       52.91999999999998      66.639999999999986
    46   1      7.8399999999999821      56.839999999999982      56.839999999999982
    47   1      9.7999999999999829      54.879999999999981      56.839999999999982
    48   1      9.7999999999999829      56.839999999999982      54.879999999999981
    49   1      7.8399999999999821      54.879999999999981      58.799999999999983
    50   1      7.8399999999999821      56.839999999999982      60.759999999999977
    51   1      9.7999999999999829      54.879999999999981      60.759999999999977
    52   1      9.7999999999999829      56.839999999999982      58.799999999999983
    53   1      7.8399999999999821      54.879999999999981      62.719999999999985
    54   1      7.8399999999999821      56.839999999999982      64.679999999999978
    55   1      9.7999999999999829      54.879999999999981      64.679999999999978
    56   1      9.7999999999999829      56.839999999999982      62.719999999999985
    57   1      7.8399999999999821      54.879999999999981      66.639999999999986
    58   1      7.8399999999999821      56.839999999999982       68.59999999999998
    59   1      9.7999999999999829      54.879999999999981       68.59999999999998
    60   1      9.7999999999999829      56.839999999999982      66.639999999999986
    61   1      9.7999999999999829      56.839999999999982      70.559999999999988
    62   1      9.7999999999999829      58.799999999999983       52.91999999999998
    63   1      7.8399999999999821      58.799999999999983      54.879999999999981
    64   1      7.8399999999999821      60.759999999999977      56.839999999999982
    65   1      9.7999999999999829      58.799999999999983      56.839999999999982
    66   1      9.7999999999999829      60.759999999999977      54.879999999999981
    67   1      7.8399999999999821      58.799999999999983      58.799999999999983
    68   1      7.8399999999999821      60.759999999999977      60.759999999999977
    69   1      9.7999999999999829      58.799999999999983      60.759999999999977
    70   1      9.7999999999999829      60.759999999999977      58.799999999999983
    71   1      7.8399999999999821      58.799999999999983      62.719999999999985
    72   1      7.8399999999999821      60.759999999999977      64.679999999999978
    73   1      9.7999999999999829      58.799999999999983      64.679999999999978
    74   1      9.7999999999999829      60.759999999999977      62.719999999999985
    75   1      7.8399999999999821      58.799999999999983      66.639999999999986
    76   1      7.8399999999999821      60.759999999999977       68.59999999999998
    77   1      9.7999999999999829      58.799999999999983       68.59999999999998
    78   1      9.7999999999999829      60.759999999999977      66.639999999999986
    79   1      7.8399999999999821      58.799999999999983      70.559999999999988
    80   1      9.7999999999999829      58.799999999999983      72.519999999999982
    81   1      9.7999999999999829      60.759999999999977      70.559999999999988
    82   1      9.7999999999999829      62.719999999999985       52.91999999999998
    83   1      7.8399999999999821      62.719999999999985      54.879999999999981
    84   1      7.8399999999999821      64.679999999999978      56.839999999999982
    85   1      9.7999999999999829      62.719999999999985      56.839999999999982
    86   1      9.7999999999999829      64.679999999999978      54.879999999999981
    87   1      7.8399999999999821      62.719999999999985      58.799999999999983
    88   1      7.8399999999999821      64.679999999999978      60.759999999999977
    89   1      9.7999999999999829      62.719999999999985      60.759999999999977
    90   1      9.7999999999999829      64.679999999999978      58.799999999999983
    91   1      7.8399999999999821      62.719999999999985      62.719999999999985
    92   1      7.8399999999999821      64.679999999999978      64.679999999999978
    93   1      9.7999999999999829      62.719999999999985      64.679999999999978
    94   1      9.7999999999999829      64.679999999999978      62.719999999999985
    95   1      7.8399999999999821      62.719999999999985      66.639999999999986
    96   1      7.8399999999999821      64.679999999999978       68.59999999999998
    97   1      9.7999999999999829      62.719999999999985       68.59999999999998
    98   1      9.7999999999999829      64.679999999999978      66.639999999999986
    99   1      7.8399999999999821      62.719999999999985      70.559999999999988
   100   1      9.7999999999999829      62.719999999999985      72.519999999999982
   101   1      9.7999999999999829      64.679999999999978      70.559999999999988
   102   1      9.7999999999999829      66.639999999999986       52.91999999999998
   103   1      7.8399999999999821      66.639999999999986      54.879999999999981
   104   1      7.8399999999999821       68.59999999999998      56.839999999999982
   105   1      9.7999999999999829      66.639999999999986      56.839999999999982
   106   1      9.7999999999999829       68.59999999999998      54.879999999999981
   107   1      7.8399999999999821      66.639999999999986      58.799999999999983
   108   1      7.8399999999999821       68.59999999999998      60.759999999999977
   109   1      9.7999999999999829      66.639999999999986      60.759999999999977
   110   1      9.7999999999999829       68.59999999999998      58.799999999999983
   111   1      7.8399999999999821      66.639999999999986      62.719999999999985
   112   1      7.8399999999999821       68.59999999999998      64.679999999999978
   113   1      9.7999999999999829      66.639999999999986      64.679999999999978
   114   1      9.7999999999999829       68.59999999999998      62.719999999999985
   115   1      7.8399999999999821      66.639999999999986      66.639999999999986
   116   1      7.8399999999999821       68.59999999999998       68.59999999999998
   117   1      9.7999999999999829      66.639999999999986       68.59999999999998
   118   1      9.7999999999999829       68.59999999999998      66.639999999999986
   119   1      7.8399999999999821      66.639999999999986      70.559999999999988
   120   1      9.7999999999999829      66.639999999999986      72.519999999999982
   121   1      9.7999999999999829       68.59999999999998      70.559999999999988
   122   1      9.7999999999999829      70.559999999999988      56.839999999999982
   123   1      7.8399999999999821      70.559999999999988      58.799999999999983
   124   1      9.7999999999999829      70.559999999999988      60.759999999999977
   125   1      9.7999999999999829      72.519999999999982      58.799999999999983
   126   1      7.8399999999999821      70.559999999999988      62.719999999999985
   127   1      9.7999999999999829      70.559999999999988      64.679999999999978
   128   1      9.7999999999999829      72.519999999999982      62.719999999999985
   129   1      7.8399999999999821      70.559999999999988      66.639999999999986
   130   1      9.7999999999999829      70.559999999999988       68.59999999999998
   131   1      9.7999999999999829      72.519999999999982      66.639999999999986
   132   1      13.719999999999985      48.999999999999986      58.799999999999983
   133   1      13.719999999999985      48.999999999999986      62.719999999999985
   134   1      13.719999999999985      48.999999999999986      66.639999999999986
   135   1      11.759999999999984       52.91999999999998       52.91999999999998
   136   1      13.719999999999985       50.95999999999998       52.91999999999998
   137   1      13.719999999999985       52.91999999999998       50.95999999999998
   138   1      11.759999999999984       52.91999999999998      56.839999999999982
   139   1      13.719999999999985       50.95999999999998      56.839999999999982
   140   1      13.719999999999985       52.91999999999998      54.879999999999981
   141   1      11.759999999999984       50.95999999999998      58.799999999999983
   142   1      11.759999999999984       52.91999999999998      60.759999999999977
   143   1      13.719999999999985       50.95999999999998      60.759999999999977
   144   1      13.719999999999985       52.91999999999998      58.799999999999983
   145   1      11.759999999999984       50.95999999999998      62.719999999999985
   146   1      11.759999999999984       52.91999999999998      64.679999999999978
   147   1      13.719999999999985       50.95999999999998      64.679999999999978
   148   1      13.719999999999985       52.91999999999998      62.719999999999985
   149   1      11.759999999999984       50.95999999999998      66.639999999999986
   150   1      11.759999999999984       52.91999999999998       68.59999999999998
   151   1      13.719999999999985       50.95999999999998       68.59999999999998
   152   1      13.719999999999985       52.91999999999998      66.639999999999986
   153   1      11.759999999999984       52.91999999999998      72.519999999999982
   154   1      13.719999999999985       50.95999999999998      72.519999999999982
   155   1      13.719999999999985       52.91999999999998      70.559999999999988
   156   1      13.719999999999985       52.91999999999998       74.47999999999999
   157   1      11.759999999999984      56.839999999999982       52.91999999999998
   158   1      13.719999999999985      54.879999999999981       52.91999999999998
   159   1      13.719999999999985      56.839999999999982       50.95999999999998
   160   1      11.759999999999984      54.879999999999981      54.879999999999981
   161   1      11.759999999999984      56.839999999999982      56.839999999999982
   162   1      13.719999999999985      54.879999999999981      56.839999999999982
   163   1      13.719999999999985      56.839999999999982      54.879999999999981
   164   1      11.759999999999984      54.879999999999981      58.799999999999983
   165   1      11.759999999999984      56.839999999999982      60.759999999999977
   166   1      13.719999999999985      54.879999999999981      60.759999999999977
   167   1      13.719999999999985      56.839999999999982      58.799999999999983
   168   1      11.759999999999984      54.879999999999981      62.719999999999985
   169   1      11.759999999999984      56.839999999999982      64.679999999999978
   170   1      13.719999999999985      54.879999999999981      64.679999999999978
   171   1      13.719999999999985      56.839999999999982      62.719999999999985
   172   1      11.759999999999984      54.879999999999981      66.639999999999986
   173   1      11.759999999999984      56.839999999999982       68.59999999999998
   174   1      13.719999999999985      54.879999999999981       68.59999999999998
   175   1      13.719999999999985      56.839999999999982      66.639999999999986
   176   1      11.759999999999984      54.879999999999981      70.559999999999988
   177   1      11.759999999999984      56.839999999999982      72.519999999999982
   178   1      13.719999999999985      54.879999999999981      72.519999999999982
   179   1      13.719999999999985      56.839999999999982      70.559999999999988
   180   1      13.719999999999985      56.839999999999982       74.47999999999999
   181   1      13.719999999999985      58.799999999999983      48.999999999999986
   182   1      11.759999999999984      58.799999999999983       50.95999999999998
   183   1      11.759999999999984      60.759999999999977       52.91999999999998
   184   1      13.719999999999985      58.799999999999983       52.91999999999998
   185   1      13.719999999999985      60.759999999999977       50.95999999999998
   186   1      11.759999999999984      58.799999999999983      54.879999999999981
   187   1      11.759999999999984      60.759999999999977      56.839999999999982
   188   1      13.719999999999985      58.799999999999983      56.839999999999982
   189   1      13.719999999999985      60.759999999999977      54.879999999999981
   190   1      11.759999999999984      58.799999999999983      58.799999999999983
   191   1      11.759999999999984      60.759999999999977      60.759999999999977
   192   1      13.719999999999985      58.799999999999983      60.759999999999977
   193   1      13.719999999999985      60.759999999999977      58.799999999999983
   194   1      11.759999999999984      58.799999999999983      62.719999999999985
   195   1      11.759999999999984      60.759999999999977      64.679999999999978
   196   1      13.719999999999985      58.799999999999983      64.679999999999978
   197   1      13.719999999999985      60.759999999999977      62.719999999999985
   198   1      11.759999999999984      58.799999999999983      66.639999999999986
   199   1      11.759999999999984      60.759999999999977       68.59999999999998
   200   1      13.719999999999985      58.799999999999983       68.59999999999998
   201   1      13.719999999999985      60.759999999999977      66.639999999999986
   202   1      11.759999999999984      58.799999999999983      70.559999999999988
   203   1      11.759999999999984      60.759999999999977      72.519999999999982
   204   1      13.719999999999985      58.799999999999983      72.519999999999982
   205   1      13.719999999999985      60.759999999999977      70.559999999999988
   206   1      11.759999999999984      58.799999999999983       74.47999999999999
   207   1      13.719999999999985      58.799999999999983      76.439999999999984
   208   1      13.719999999999985      60.759999999999977       74.47999999999999
   209   1      13.719999999999985      62.719999999999985      48.999999999999986
   210   1      11.759999999999984      62.719999999999985       50.95999999999998
   211   1      11.759999999999984      64.679999999999978       52.91999999999998
   212   1      13.719999999999985      62.719999999999985       52.91999999999998
   213   1      13.719999999999985      64.679999999999978       50.95999999999998
   214   1      11.759999999999984      62.719999999999985      54.879999999999981
   215   1      11.759999999999984      64.679999999999978      56.839999999999982
   216   1      13.719999999999985      62.719999999999985      56.839999999999982
   217   1      13.719999999999985      64.679999999999978      54.879999999999981
   218   1      11.759999999999984      62.719999999999985      58.799999999999983
   219   1      11.759999999999984      64.679999999999978      60.759999999999977
   220   1      13.719999999999985      62.719999999999985      60.759999999999977
   221   1      13.719999999999985      64.679999999999978      58.799999999999983
   222   1      11.759999999999984      62.719999999999985      62.719999999999985
   223   1      11.759999999999984      64.679999999999978      64.679999999999978
   224   1      13.719999999999985      62.719999999999985      64.679999999999978
   225   1      13.719999999999985      64.679999999999978      62.719999999999985
   226   1      11.759999999999984      62.719999999999985      66.639999999999986
   227   1      11.759999999999984      64.679999999999978       68.59999999999998
   228   1      13.719999999999985      62.719999999999985       68.59999999999998
   229   1      13.719999999999985      64.679999999999978      66.639999999999986
   230   1      11.759999999999984      62.719999999999985      70.559999999999988
   231   1      11.759999999999984      64.679999999999978      72.519999999999982
   232   1      13.719999999999985      62.719999999999985      72.519999999999982
   233   1      13.719999999999985      64.679999999999978      70.559999999999988
   234   1      11.759999999999984      62.719999999999985       74.47999999999999
   235   1      13.719999999999985      62.719999999999985      76.439999999999984
   236   1      13.719999999999985      64.679999999999978       74.47999999999999
   237   1      13.719999999999985      66.639999999999986      48.999999999999986
   238   1      11.759999999999984      66.639999999999986       50.95999999999998
   239   1      11.759999999999984       68.59999999999998       52.91999999999998
   240   1      13.719999999999985      66.639999999999986       52.91999999999998
   241   1      13.719999999999985       68.59999999999998       50.95999999999998
   242   1      11.759999999999984      66.639999999999986      54.879999999999981
   243   1      11.759999999999984       68.59999999999998      56.839999999999982
   244   1      13.719999999999985      66.639999999999986      56.839999999999982
   245   1      13.719999999999985       68.59999999999998      54.879999999999981
   246   1      11.759999999999984      66.639999999999986      58.799999999999983
   247   1      11.759999999999984       68.59999999999998      60.759999999999977
   248   1      13.719999999999985      66.639999999999986      60.759999999999977
   249   1      13.719999999999985       68.59999999999998      58.799999999999983
   250   1      11.759999999999984      66.639999999999986      62.719999999999985
   251   1      11.759999999999984       68.59999999999998      64.679999999999978
   252   1      13.719999999999985      66.639999999999986      64.679999999999978
   253   1      13.719999999999985       68.59999999999998      62.719999999999985
   254   1      11.759999999999984      66.639999999999986      66.639999999999986
   255   1      11.759999999999984       68.59999999999998       68.59999999999998
   256   1      13.719999999999985      66.639999999999986       68.59999999999998
   257   1      13.719999999999985       68.59999999999998      66.639999999999986
   258   1      11.759999999999984      66.639999999999986      70.559999999999988
   259   1      11.759999999999984       68.59999999999998      72.519999999999982
   260   1      13.719999999999985      66.639999999999986      72.519999999999982
   261   1      13.719999999999985       68.59999999999998      70.559999999999988
   262   1      11.759999999999984      66.639999999999986       74.47999999999999
   263   1      13.719999999999985      66.639999999999986      76.439999999999984
   264   1      13.719999999999985       68.59999999999998       74.47999999999999
   265   1      11.759999999999984      72.519999999999982       52.91999999999998
   266   1      13.719999999999985      70.559999999999988       52.91999999999998
   267   1      13.719999999999985      72.519999999999982       50.95999999999998
   268   1      11.759999999999984      70.559999999999988      54.879999999999981
   269   1      11.759999999999984      72.519999999999982      56.839999999999982
   270   1      13.719999999999985      70.559999999999988      56.839999999999982
   271   1      13.719999999999985      72.519999999999982      54.879999999999981
   272   1      11.759999999999984      70.559999999999988      58.799999999999983
   273   1      11.759999999999984      72.519999999999982      60.759999999999977
   274   1      13.719999999999985      70.559999999999988      60.759999999999977
   275   1      13.719999999999985      72.519999999999982      58.799999999999983
   276   1      11.759999999999984      70.559999999999988      62.719999999999985
   277   1      11.759999999999984      72.519999999999982      64.679999999999978
   278   1      13.719999999999985      70.559999999999988      64.679999999999978
   279   1      13.719999999999985      72.519999999999982      62.719999999999985
   280   1      11.759999999999984      70.559999999999988      66.639999999999986
   281   1      11.759999999999984      72.519999999999982       68.59999999999998
   282   1      13.719999999999985      70.559999999999988       68.59999999999998
   283   1      13.719999999999985      72.519999999999982      66.639999999999986
   284   1      11.759999999999984      70.559999999999988      70.559999999999988
   285   1      11.759999999999984      72.519999999999982      72.519999999999982
   286   1      13.719999999999985      70.559999999999988      72.519999999999982
   287   1      13.719999999999985      72.519999999999982      70.559999999999988
   288   1      13.719999999999985      72.519999999999982       74.47999999999999
   289   1      13.719999999999985       74.47999999999999       52.91999999999998
   290   1      13.719999999999985       74.47999999999999      56.839999999999982
   291   1      11.759999999999984       74.47999999999999      58.799999999999983
   292   1      13.719999999999985       74.47999999999999      60.759999999999977
   293   1      13.719999999999985      76.439999999999984      58.799999999999983
   294   1      11.759999999999984       74.47999999999999      62.719999999999985
   295   1      13.719999999999985       74.47999999999999      64.679999999999978
   296   1      13.719999999999985      76.439999999999984      62.719999999999985
   297   1      11.759999999999984       74.47999999999999      66.639999999999986
   298   1      13.719999999999985       74.47999999999999       68.59999999999998
   299   1      13.719999999999985      76.439999999999984      66.639999999999986
   300   1      13.719999999999985       74.47999999999999      72.519999999999982
   301   1      17.639999999999986      45.079999999999984      58.799999999999983
   302   1      17.639999999999986      45.079999999999984      62.719999999999985
   303   1      17.639999999999986      45.079999999999984      66.639999999999986
   304   1      15.679999999999986      48.999999999999986       52.91999999999998
   305   1      17.639999999999986      47.039999999999985       52.91999999999998
   306   1      17.639999999999986      48.999999999999986       50.95999999999998
   307   1      15.679999999999986      48.999999999999986      56.839999999999982
   308   1      17.639999999999986      47.039999999999985      56.839999999999982
   309   1      17.639999999999986      48.999999999999986      54.879999999999981
   310   1      15.679999999999986      47.039999999999985      58.799999999999983
   311   1      15.679999999999986      48.999999999999986      60.759999999999977
   312   1      17.639999999999986      47.039999999999985      60.759999999999977
   313   1      17.639999999999986      48.999999999999986      58.799999999999983
   314   1      15.679999999999986      47.039999999999985      62.719999999999985
   315   1      15.679999999999986      48.999999999999986      64.679999999999978
   316   1      17.639999999999986      47.039999999999985      64.679999999999978
   317   1      17.639999999999986      48.999999999999986      62.719999999999985
   318   1      15.679999999999986      47.039999999999985      66.639999999999986
   319   1      15.679999999999986      48.999999999999986       68.59999999999998
   320   1      17.639999999999986      47.039999999999985       68.59999999999998
   321   1      17.639999999999986      48.999999999999986      66.639999999999986
   322   1      15.679999999999986      48.999999999999986      72.519999999999982
   323   1      17.639999999999986      47.039999999999985      72.519999999999982
   324   1      17.639999999999986      48.999999999999986      70.559999999999988
   325   1      17.639999999999986      48.999999999999986       74.47999999999999
   326   1      15.679999999999986       52.91999999999998      48.999999999999986
   327   1      17.639999999999986       50.95999999999998      48.999999999999986
   328   1      17.639999999999986       52.91999999999998      47.039999999999985
   329   1      15.679999999999986       50.95999999999998       50.95999999999998
   330   1      15.679999999999986       52.91999999999998       52.91999999999998
   331   1      17.639999999999986       50.95999999999998       52.91999999999998
   332   1      17.639999999999986       52.91999999999998       50.95999999999998
   333   1      15.679999999999986       50.95999999999998      54.879999999999981
   334   1      15.679999999999986       52.91999999999998      56.839999999999982
   335   1      17.639999999999986       50.95999999999998      56.839999999999982
   336   1      17.639999999999986       52.91999999999998      54.879999999999981
   337   1      15.679999999999986       50.95999999999998      58.799999999999983
   338   1      15.679999999999986       52.91999999999998      60.759999999999977
   339   1      17.639999999999986       50.95999999999998      60.759999999999977
   340   1      17.639999999999986       52.91999999999998      58.799999999999983
   341   1      15.679999999999986       50.95999999999998      62.719999999999985
   342   1      15.679999999999986       52.91999999999998      64.679999999999978
   343   1      17.639999999999986       50.95999999999998      64.679999999999978
   344   1      17.639999999999986       52.91999999999998      62.719999999999985
   345   1      15.679999999999986       50.95999999999998      66.639999999999986
   346   1      15.679999999999986       52.91999999999998       68.59999999999998
   347   1      17.639999999999986       50.95999999999998       68.59999999999998
   348   1      17.639999999999986       52.91999999999998      66.639999999999986
   349   1      15.679999999999986       50.95999999999998      70.559999999999988
   350   1      15.679999999999986       52.91999999999998      72.519999999999982
   351   1      17.639999999999986       50.95999999999998      72.519999999999982
   352   1      17.639999999999986       52.91999999999998      70.559999999999988
   353   1      15.679999999999986       50.95999999999998       74.47999999999999
   354   1      15.679999999999986       52.91999999999998      76.439999999999984
   355   1      17.639999999999986       50.95999999999998      76.439999999999984
   356   1      17.639999999999986       52.91999999999998       74.47999999999999
   357   1      17.639999999999986       52.91999999999998      78.399999999999977
   358   1      15.679999999999986      56.839999999999982      48.999999999999986