model_files/PtCo/PtCo_30000/PtCo_542/PtCo_542_fcc_29823_temp.data (written by ASE) 

29823 	 atoms 
2  atom types
0.0                     111  xlo xhi
0.0                     111  ylo yhi
0.0                     111  zlo zhi


Atoms 

     1   1      1.8249999999999955      52.924999999999997      54.749999999999993
     2   1      1.8249999999999955      54.749999999999993      52.924999999999997
     3   1      110.99999999999999      54.749999999999993      54.749999999999993
     4   1      1.8249999999999955      54.749999999999993      56.574999999999996
     5   1      1.8249999999999955      56.574999999999996      54.749999999999993
     6   1       3.649999999999991      49.274999999999999      52.924999999999997
     7   1      5.4749999999999943      47.449999999999996      52.924999999999997
     8   1      5.4749999999999943      49.274999999999999      51.099999999999994
     9   1       3.649999999999991      49.274999999999999      56.574999999999996
    10   1      5.4749999999999943      47.449999999999996      56.574999999999996
    11   1      5.4749999999999943      49.274999999999999      54.749999999999993
    12   1      5.4749999999999943      49.274999999999999      58.399999999999991
    13   1       3.649999999999991      52.924999999999997      49.274999999999999
    14   1      5.4749999999999943      51.099999999999994      49.274999999999999
    15   1      5.4749999999999943      52.924999999999997      47.449999999999996
    16   1       3.649999999999991      51.099999999999994      51.099999999999994
    17   1       3.649999999999991      52.924999999999997      52.924999999999997
    18   1      5.4749999999999943      51.099999999999994      52.924999999999997
    19   1      5.4749999999999943      52.924999999999997      51.099999999999994
    20   1       3.649999999999991      51.099999999999994      54.749999999999993
    21   1       3.649999999999991      52.924999999999997      56.574999999999996
    22   1      5.4749999999999943      51.099999999999994      56.574999999999996
    23   1      5.4749999999999943      52.924999999999997      54.749999999999993
    24   1       3.649999999999991      51.099999999999994      58.399999999999991
    25   1       3.649999999999991      52.924999999999997      60.224999999999994
    26   1      5.4749999999999943      51.099999999999994      60.224999999999994
    27   1      5.4749999999999943      52.924999999999997      58.399999999999991
    28   1      5.4749999999999943      52.924999999999997      62.049999999999997
    29   1       3.649999999999991      56.574999999999996      49.274999999999999
    30   1      5.4749999999999943      54.749999999999993      49.274999999999999
    31   1      5.4749999999999943      56.574999999999996      47.449999999999996
    32   1       3.649999999999991      54.749999999999993      51.099999999999994
    33   1       3.649999999999991      56.574999999999996      52.924999999999997
    34   1      5.4749999999999943      54.749999999999993      52.924999999999997
    35   1      5.4749999999999943      56.574999999999996      51.099999999999994
    36   1       3.649999999999991      54.749999999999993      54.749999999999993
    37   1       3.649999999999991      56.574999999999996      56.574999999999996
    38   1      5.4749999999999943      54.749999999999993      56.574999999999996
    39   1      5.4749999999999943      56.574999999999996      54.749999999999993
    40   1       3.649999999999991      54.749999999999993      58.399999999999991
    41   1       3.649999999999991      56.574999999999996      60.224999999999994
    42   1      5.4749999999999943      54.749999999999993      60.224999999999994
    43   1      5.4749999999999943      56.574999999999996      58.399999999999991
    44   1      5.4749999999999943      56.574999999999996      62.049999999999997
    45   1      5.4749999999999943      58.399999999999991      49.274999999999999
    46   1       3.649999999999991      58.399999999999991      51.099999999999994
    47   1       3.649999999999991      60.224999999999994      52.924999999999997
    48   1      5.4749999999999943      58.399999999999991      52.924999999999997
    49   1      5.4749999999999943      60.224999999999994      51.099999999999994
    50   1       3.649999999999991      58.399999999999991      54.749999999999993
    51   1       3.649999999999991      60.224999999999994      56.574999999999996
    52   1      5.4749999999999943      58.399999999999991      56.574999999999996
    53   1      5.4749999999999943      60.224999999999994      54.749999999999993
    54   1       3.649999999999991      58.399999999999991      58.399999999999991
    55   1      5.4749999999999943      58.399999999999991      60.224999999999994
    56   1      5.4749999999999943      60.224999999999994      58.399999999999991
    57   1      5.4749999999999943      62.049999999999997      52.924999999999997
    58   1      5.4749999999999943      62.049999999999997      56.574999999999996
    59   1      9.1249999999999929      41.974999999999994      54.749999999999993
    60   1      9.1249999999999929      45.624999999999993      47.449999999999996
    61   1      7.2999999999999901      45.624999999999993      52.924999999999997
    62   1      9.1249999999999929       43.79999999999999      52.924999999999997
    63   1      9.1249999999999929      45.624999999999993      51.099999999999994
    64   1      7.2999999999999901       43.79999999999999      54.749999999999993
    65   1      7.2999999999999901      45.624999999999993      56.574999999999996
    66   1      9.1249999999999929       43.79999999999999      56.574999999999996
    67   1      9.1249999999999929      45.624999999999993      54.749999999999993
    68   1      9.1249999999999929      45.624999999999993      58.399999999999991
    69   1      9.1249999999999929      45.624999999999993      62.049999999999997
    70   1      9.1249999999999929      47.449999999999996      45.624999999999993
    71   1      7.2999999999999901      47.449999999999996      47.449999999999996
    72   1      7.2999999999999901      49.274999999999999      49.274999999999999
    73   1      9.1249999999999929      47.449999999999996      49.274999999999999
    74   1      9.1249999999999929      49.274999999999999      47.449999999999996
    75   1      7.2999999999999901      47.449999999999996      51.099999999999994
    76   1      7.2999999999999901      49.274999999999999      52.924999999999997
    77   1      9.1249999999999929      47.449999999999996      52.924999999999997
    78   1      9.1249999999999929      49.274999999999999      51.099999999999994
    79   1      7.2999999999999901      47.449999999999996      54.749999999999993
    80   1      7.2999999999999901      49.274999999999999      56.574999999999996
    81   1      9.1249999999999929      47.449999999999996      56.574999999999996
    82   1      9.1249999999999929      49.274999999999999      54.749999999999993
    83   1      7.2999999999999901      47.449999999999996      58.399999999999991
    84   1      7.2999999999999901      49.274999999999999      60.224999999999994
    85   1      9.1249999999999929      47.449999999999996      60.224999999999994
    86   1      9.1249999999999929      49.274999999999999      58.399999999999991
    87   1      7.2999999999999901      47.449999999999996      62.049999999999997
    88   1      9.1249999999999929      47.449999999999996      63.874999999999993
    89   1      9.1249999999999929      49.274999999999999      62.049999999999997
    90   1      7.2999999999999901      52.924999999999997      45.624999999999993
    91   1      9.1249999999999929      51.099999999999994      45.624999999999993
    92   1      9.1249999999999929      52.924999999999997       43.79999999999999
    93   1      7.2999999999999901      51.099999999999994      47.449999999999996
    94   1      7.2999999999999901      52.924999999999997      49.274999999999999
    95   1      9.1249999999999929      51.099999999999994      49.274999999999999
    96   1      9.1249999999999929      52.924999999999997      47.449999999999996
    97   1      7.2999999999999901      51.099999999999994      51.099999999999994
    98   1      7.2999999999999901      52.924999999999997      52.924999999999997
    99   1      9.1249999999999929      51.099999999999994      52.924999999999997
   100   1      9.1249999999999929      52.924999999999997      51.099999999999994
   101   1      7.2999999999999901      51.099999999999994      54.749999999999993
   102   1      7.2999999999999901      52.924999999999997      56.574999999999996
   103   1      9.1249999999999929      51.099999999999994      56.574999999999996
   104   1      9.1249999999999929      52.924999999999997      54.749999999999993
   105   1      7.2999999999999901      51.099999999999994      58.399999999999991
   106   1      7.2999999999999901      52.924999999999997      60.224999999999994
   107   1      9.1249999999999929      51.099999999999994      60.224999999999994
   108   1      9.1249999999999929      52.924999999999997      58.399999999999991
   109   1      7.2999999999999901      51.099999999999994      62.049999999999997
   110   1      7.2999999999999901      52.924999999999997      63.874999999999993
   111   1      9.1249999999999929      51.099999999999994      63.874999999999993
   112   1      9.1249999999999929      52.924999999999997      62.049999999999997
   113   1      9.1249999999999929      52.924999999999997      65.699999999999989
   114   1      9.1249999999999929      54.749999999999993      41.974999999999994
   115   1      7.2999999999999901      54.749999999999993       43.79999999999999
   116   1      7.2999999999999901      56.574999999999996      45.624999999999993
   117   1      9.1249999999999929      54.749999999999993      45.624999999999993
   118   1      9.1249999999999929      56.574999999999996       43.79999999999999
   119   1      7.2999999999999901      54.749999999999993      47.449999999999996
   120   1      7.2999999999999901      56.574999999999996      49.274999999999999
   121   1      9.1249999999999929      54.749999999999993      49.274999999999999
   122   1      9.1249999999999929      56.574999999999996      47.449999999999996
   123   1      7.2999999999999901      54.749999999999993      51.099999999999994
   124   1      7.2999999999999901      56.574999999999996      52.924999999999997
   125   1      9.1249999999999929      54.749999999999993      52.924999999999997
   126   1      9.1249999999999929      56.574999999999996      51.099999999999994
   127   1      7.2999999999999901      54.749999999999993      54.749999999999993
   128   1      7.2999999999999901      56.574999999999996      56.574999999999996
   129   1      9.1249999999999929      54.749999999999993      56.574999999999996
   130   1      9.1249999999999929      56.574999999999996      54.749999999999993
   131   1      7.2999999999999901      54.749999999999993      58.399999999999991
   132   1      7.2999999999999901      56.574999999999996      60.224999999999994
   133   1      9.1249999999999929      54.749999999999993      60.224999999999994
   134   1      9.1249999999999929      56.574999999999996      58.399999999999991
   135   1      7.2999999999999901      54.749999999999993      62.049999999999997
   136   1      7.2999999999999901      56.574999999999996      63.874999999999993
   137   1      9.1249999999999929      54.749999999999993      63.874999999999993
   138   1      9.1249999999999929      56.574999999999996      62.049999999999997
   139   1      7.2999999999999901      54.749999999999993      65.699999999999989
   140   1      9.1249999999999929      54.749999999999993      67.524999999999991
   141   1      9.1249999999999929      56.574999999999996      65.699999999999989
   142   1      9.1249999999999929      58.399999999999991      45.624999999999993
   143   1      7.2999999999999901      58.399999999999991      47.449999999999996
   144   1      7.2999999999999901      60.224999999999994      49.274999999999999
   145   1      9.1249999999999929      58.399999999999991      49.274999999999999
   146   1      9.1249999999999929      60.224999999999994      47.449999999999996
   147   1      7.2999999999999901      58.399999999999991      51.099999999999994
   148   1      7.2999999999999901      60.224999999999994      52.924999999999997
   149   1      9.1249999999999929      58.399999999999991      52.924999999999997
   150   1      9.1249999999999929      60.224999999999994      51.099999999999994
   151   1      7.2999999999999901      58.399999999999991      54.749999999999993
   152   1      7.2999999999999901      60.224999999999994      56.574999999999996
   153   1      9.1249999999999929      58.399999999999991      56.574999999999996
   154   1      9.1249999999999929      60.224999999999994      54.749999999999993
   155   1      7.2999999999999901      58.399999999999991      58.399999999999991
   156   1      7.2999999999999901      60.224999999999994      60.224999999999994
   157   1      9.1249999999999929      58.399999999999991      60.224999999999994
   158   1      9.1249999999999929      60.224999999999994      58.399999999999991
   159   1      7.2999999999999901      58.399999999999991      62.049999999999997
   160   1      9.1249999999999929      58.399999999999991      63.874999999999993
   161   1      9.1249999999999929      60.224999999999994      62.049999999999997
   162   1      9.1249999999999929      62.049999999999997      45.624999999999993
   163   1      7.2999999999999901      62.049999999999997      47.449999999999996
   164   1      9.1249999999999929      62.049999999999997      49.274999999999999
   165   1      9.1249999999999929      63.874999999999993      47.449999999999996
   166   1      7.2999999999999901      62.049999999999997      51.099999999999994
   167   1      7.2999999999999901      63.874999999999993      52.924999999999997
   168   1      9.1249999999999929      62.049999999999997      52.924999999999997
   169   1      9.1249999999999929      63.874999999999993      51.099999999999994
   170   1      7.2999999999999901      62.049999999999997      54.749999999999993
   171   1      7.2999999999999901      63.874999999999993      56.574999999999996
   172   1      9.1249999999999929      62.049999999999997      56.574999999999996
   173   1      9.1249999999999929      63.874999999999993      54.749999999999993
   174   1      7.2999999999999901      62.049999999999997      58.399999999999991
   175   1      9.1249999999999929      62.049999999999997      60.224999999999994
   176   1      9.1249999999999929      63.874999999999993      58.399999999999991
   177   1      7.2999999999999901      62.049999999999997      62.049999999999997
   178   1      9.1249999999999929      62.049999999999997      63.874999999999993
   179   1      9.1249999999999929      63.874999999999993      62.049999999999997
   180   1      9.1249999999999929      65.699999999999989      52.924999999999997
   181   1      7.2999999999999901      65.699999999999989      54.749999999999993
   182   1      9.1249999999999929      65.699999999999989      56.574999999999996
   183   1      9.1249999999999929      67.524999999999991      54.749999999999993
   184   1      12.774999999999999      38.324999999999996      54.749999999999993
   185   1      10.949999999999996      41.974999999999994      49.274999999999999
   186   1      12.774999999999999      40.149999999999991      49.274999999999999
   187   1      12.774999999999999      41.974999999999994      47.449999999999996
   188   1      10.949999999999996      41.974999999999994      52.924999999999997
   189   1      12.774999999999999      40.149999999999991      52.924999999999997
   190   1      12.774999999999999      41.974999999999994      51.099999999999994
   191   1      10.949999999999996      40.149999999999991      54.749999999999993
   192   1      10.949999999999996      41.974999999999994      56.574999999999996
   193   1      12.774999999999999      40.149999999999991      56.574999999999996
   194   1      12.774999999999999      41.974999999999994      54.749999999999993
   195   1      10.949999999999996      41.974999999999994      60.224999999999994
   196   1      12.774999999999999      40.149999999999991      60.224999999999994
   197   1      12.774999999999999      41.974999999999994      58.399999999999991
   198   1      12.774999999999999      41.974999999999994      62.049999999999997
   199   1      10.949999999999996      45.624999999999993      45.624999999999993
   200   1      12.774999999999999       43.79999999999999      45.624999999999993
   201   1      12.774999999999999      45.624999999999993       43.79999999999999
   202   1      10.949999999999996       43.79999999999999      47.449999999999996
   203   1      10.949999999999996      45.624999999999993      49.274999999999999
   204   1      12.774999999999999       43.79999999999999      49.274999999999999
   205   1      12.774999999999999      45.624999999999993      47.449999999999996
   206   1      10.949999999999996       43.79999999999999      51.099999999999994
   207   1      10.949999999999996      45.624999999999993      52.924999999999997
   208   1      12.774999999999999       43.79999999999999      52.924999999999997
   209   1      12.774999999999999      45.624999999999993      51.099999999999994
   210   1      10.949999999999996       43.79999999999999      54.749999999999993
   211   1      10.949999999999996      45.624999999999993      56.574999999999996
   212   1      12.774999999999999       43.79999999999999      56.574999999999996
   213   1      12.774999999999999      45.624999999999993      54.749999999999993
   214   1      10.949999999999996       43.79999999999999      58.399999999999991
   215   1      10.949999999999996      45.624999999999993      60.224999999999994
   216   1      12.774999999999999       43.79999999999999      60.224999999999994
   217   1      12.774999999999999      45.624999999999993      58.399999999999991
   218   1      10.949999999999996       43.79999999999999      62.049999999999997
   219   1      10.949999999999996      45.624999999999993      63.874999999999993
   220   1      12.774999999999999       43.79999999999999      63.874999999999993
   221   1      12.774999999999999      45.624999999999993      62.049999999999997
   222   1      12.774999999999999      45.624999999999993      65.699999999999989
   223   1      10.949999999999996      49.274999999999999      41.974999999999994
   224   1      12.774999999999999      47.449999999999996      41.974999999999994
   225   1      12.774999999999999      49.274999999999999      40.149999999999991
   226   1      10.949999999999996      47.449999999999996       43.79999999999999
   227   1      10.949999999999996      49.274999999999999      45.624999999999993
   228   1      12.774999999999999      47.449999999999996      45.624999999999993
   229   1      12.774999999999999      49.274999999999999       43.79999999999999
   230   1      10.949999999999996      47.449999999999996      47.449999999999996
   231   1      10.949999999999996      49.274999999999999      49.274999999999999
   232   1      12.774999999999999      47.449999999999996      49.274999999999999
   233   1      12.774999999999999      49.274999999999999      47.449999999999996
   234   1      10.949999999999996      47.449999999999996      51.099999999999994
   235   1      10.949999999999996      49.274999999999999      52.924999999999997
   236   1      12.774999999999999      47.449999999999996      52.924999999999997
   237   1      12.774999999999999      49.274999999999999      51.099999999999994
   238   1      10.949999999999996      47.449999999999996      54.749999999999993
   239   1      10.949999999999996      49.274999999999999      56.574999999999996
   240   1      12.774999999999999      47.449999999999996      56.574999999999996
   241   1      12.774999999999999      49.274999999999999      54.749999999999993
   242   1      10.949999999999996      47.449999999999996      58.399999999999991
   243   1      10.949999999999996      49.274999999999999      60.224999999999994
   244   1      12.774999999999999      47.449999999999996      60.224999999999994
   245   1      12.774999999999999      49.274999999999999      58.399999999999991
   246   1      10.949999999999996      47.449999999999996      62.049999999999997
   247   1      10.949999999999996      49.274999999999999      63.874999999999993
   248   1      12.774999999999999      47.449999999999996      63.874999999999993
   249   1      12.774999999999999      49.274999999999999      62.049999999999997
   250   1      10.949999999999996      47.449999999999996      65.699999999999989
   251   1      10.949999999999996      49.274999999999999      67.524999999999991
   252   1      12.774999999999999      47.449999999999996      67.524999999999991
   253   1      12.774999999999999      49.274999999999999      65.699999999999989
   254   1      12.774999999999999      49.274999999999999      69.349999999999994
   255   1      10.949999999999996      52.924999999999997      41.974999999999994
   256   1      12.774999999999999      51.099999999999994      41.974999999999994
   257   1      12.774999999999999      52.924999999999997      40.149999999999991
   258   1      10.949999999999996      51.099999999999994       43.79999999999999
   259   1      10.949999999999996      52.924999999999997      45.624999999999993
   260   1      12.774999999999999      51.099999999999994      45.624999999999993
   261   1      12.774999999999999      52.924999999999997       43.79999999999999
   262   1      10.949999999999996      51.099999999999994      47.449999999999996
   263   1      10.949999999999996      52.924999999999997      49.274999999999999
   264   1      12.774999999999999      51.099999999999994      49.274999999999999
   265   1      12.774999999999999      52.924999999999997      47.449999999999996
   266   1      10.949999999999996      51.099999999999994      51.099999999999994
   267   1      10.949999999999996      52.924999999999997      52.924999999999997
   268   1      12.774999999999999      51.099999999999994      52.924999999999997
   269   1      12.774999999999999      52.924999999999997      51.099999999999994
   270   1      10.949999999999996      51.099999999999994      54.749999999999993
   271   1      10.949999999999996      52.924999999999997      56.574999999999996
   272   1      12.774999999999999      51.099999999999994      56.574999999999996
   273   1      12.774999999999999      52.924999999999997      54.749999999999993
   274   1      10.949999999999996      51.099999999999994      58.399999999999991
   275   1      10.949999999999996      52.924999999999997      60.224999999999994
   276   1      12.774999999999999      51.099999999999994      60.224999999999994
   277   1      12.774999999999999      52.924999999999997      58.399999999999991
   278   1      10.949999999999996      51.099999999999994      62.049999999999997
   279   1      10.949999999999996      52.924999999999997      63.874999999999993
   280   1      12.774999999999999      51.099999999999994      63.874999999999993
   281   1      12.774999999999999      52.924999999999997      62.049999999999997
   282   1      10.949999999999996      51.099999999999994      65.699999999999989
   283   1      10.949999999999996      52.924999999999997      67.524999999999991
   284   1      12.774999999999999      51.099999999999994      67.524999999999991
   285   1      12.774999999999999      52.924999999999997      65.699999999999989
   286   1      12.774999999999999      52.924999999999997      69.349999999999994
   287   1      12.774999999999999      54.749999999999993      38.324999999999996
   288   1      10.949999999999996      54.749999999999993      40.149999999999991
   289   1      10.949999999999996      56.574999999999996      41.974999999999994
   290   1      12.774999999999999      54.749999999999993      41.974999999999994
   291   1      12.774999999999999      56.574999999999996      40.149999999999991
   292   1      10.949999999999996      54.749999999999993       43.79999999999999
   293   1      10.949999999999996      56.574999999999996      45.624999999999993
   294   1      12.774999999999999      54.749999999999993      45.624999999999993
   295   1      12.774999999999999      56.574999999999996       43.79999999999999
   296   1      10.949999999999996      54.749999999999993      47.449999999999996
   297   1      10.949999999999996      56.574999999999996      49.274999999999999
   298   1      12.774999999999999      54.749999999999993      49.274999999999999
   299   1      12.774999999999999      56.574999999999996      47.449999999999996
   300   1      10.949999999999996      54.749999999999993      51.099999999999994
   301   1      10.949999999999996      56.574999999999996      52.924999999999997
   302   1      12.774999999999999      54.749999999999993      52.924999999999997
   303   1      12.774999999999999      56.574999999999996      51.099999999999994
   304   1      10.949999999999996      54.749999999999993      54.749999999999993
   305   1      10.949999999999996      56.574999999999996      56.574999999999996
   306   1      12.774999999999999      54.749999999999993      56.574999999999996
   307   1      12.774999999999999      56.574999999999996      54.749999999999993
   308   1      10.949999999999996      54.749999999999993      58.399999999999991
   309   1      10.949999999999996      56.574999999999996      60.224999999999994
   310   1      12.774999999999999      54.749999999999993      60.224999999999994
   311   1      12.774999999999999      56.574999999999996      58.399999999999991
   312   1      10.949999999999996      54.749999999999993      62.049999999999997
   313   1      10.949999999999996      56.574999999999996      63.874999999999993
   314   1      12.774999999999999      54.749999999999993      63.874999999999993
   315   1      12.774999999999999      56.574999999999996      62.049999999999997
   316   1      10.949999999999996      54.749999999999993      65.699999999999989
   317   1      10.949999999999996      56.574999999999996      67.524999999999991
   318   1      12.774999999999999      54.749999999999993      67.524999999999991
   319   1      12.774999999999999      56.574999999999996      65.699999999999989
   320   1      10.949999999999996      54.749999999999993      69.349999999999994
   321   1      12.774999999999999      54.749999999999993      71.174999999999997
   322   1      12.774999999999999      56.574999999999996      69.349999999999994
   323   1      10.949999999999996      60.224999999999994      41.974999999999994
   324   1      12.774999999999999      58.399999999999991      41.974999999999994
   325   1      12.774999999999999      60.224999999999994      40.149999999999991
   326   1      10.949999999999996      58.399999999999991       43.79999999999999
   327   1      10.949999999999996      60.224999999999994      45.624999999999993
   328   1      12.774999999999999      58.399999999999991      45.624999999999993
   329   1      12.774999999999999      60.224999999999994       43.79999999999999
   330   1      10.949999999999996      58.399999999999991      47.449999999999996
   331   1      10.949999999999996      60.224999999999994      49.274999999999999
   332   1      12.774999999999999      58.399999999999991      49.274999999999999
   333   1      12.774999999999999      60.224999999999994      47.449999999999996
   334   1      10.949999999999996      58.399999999999991      51.099999999999994
   335   1      10.949999999999996      60.224999999999994      52.924999999999997
   336   1      12.774999999999999      58.399999999999991      52.924999999999997
   337   1      12.774999999999999      60.224999999999994      51.099999999999994
   338   1      10.949999999999996      58.399999999999991      54.749999999999993
   339   1      10.949999999999996      60.224999999999994      56.574999999999996
   340   1      12.774999999999999      58.399999999999991      56.574999999999996
   341   1      12.774999999999999      60.224999999999994      54.749999999999993
   342   1      10.949999999999996      58.399999999999991      58.399999999999991
   343   1      10.949999999999996      60.224999999999994      60.224999999999994
   344   1      12.774999999999999      58.399999999999991      60.224999999999994
   345   1      12.774999999999999      60.224999999999994      58.399999999999991
   346   1      10.949999999999996      58.399999999999991      62.049999999999997
   347   1      10.949999999999996      60.224999999999994      63.874999999999993
   348   1      12.774999999999999      58.399999999999991      63.874999999999993
   349   1      12.774999999999999      60.224999999999994      62.049999999999997
   350   1      10.949999999999996      58.399999999999991      65.699999999999989
   351   1      10.949999999999996      60.224999999999994      67.524999999999991
   352   1      12.774999999999999      58.399999999999991      67.524999999999991
   353   1      12.774999999999999      60.224999999999994      65.699999999999989
   354   1      12.774999999999999      60.224999999999994      69.349999999999994
   355   1      12.774999999999999      62.049999999999997      41.974999999999994
   356   1      10.949999999999996      62.049999999999997       43.79999999999999
   357   1      10.949999999999996      63.874999999999993      45.624999999999993
   358   1      12.774999999999999      62.049999999999997      45.624999999999993