model_files/Pt/Pt_10000/Pt_552/data.Pt_552_fcc_10023 (written by ASE) 

10023 	 atoms 
1  atom types
0.0                      86  xlo xhi
0.0                      86  ylo yhi
0.0                      86  zlo zhi


Atoms 

     1   1      1.9600000000000009      41.159999999999997      43.119999999999997
     2   1      1.9600000000000009      43.119999999999997      41.159999999999997
     3   1                       0      43.119999999999997      43.119999999999997
     4   1      1.9600000000000009      43.119999999999997      45.079999999999998
     5   1      1.9600000000000009      45.079999999999998      43.119999999999997
     6   1      5.8800000000000017      37.240000000000002      39.199999999999996
     7   1      5.8800000000000017      37.240000000000002      43.119999999999997
     8   1      5.8800000000000017      37.240000000000002      47.039999999999999
     9   1      5.8800000000000017      39.199999999999996      37.240000000000002
    10   1      3.9199999999999942      39.199999999999996      39.199999999999996
    11   1      3.9199999999999942      41.159999999999997      41.159999999999997
    12   1      5.8800000000000017      39.199999999999996      41.159999999999997
    13   1      5.8800000000000017      41.159999999999997      39.199999999999996
    14   1      3.9199999999999942      39.199999999999996      43.119999999999997
    15   1      3.9199999999999942      41.159999999999997      45.079999999999998
    16   1      5.8800000000000017      39.199999999999996      45.079999999999998
    17   1      5.8800000000000017      41.159999999999997      43.119999999999997
    18   1      3.9199999999999942      39.199999999999996      47.039999999999999
    19   1      5.8800000000000017      39.199999999999996                      49
    20   1      5.8800000000000017      41.159999999999997      47.039999999999999
    21   1      5.8800000000000017      43.119999999999997      37.240000000000002
    22   1      3.9199999999999942      43.119999999999997      39.199999999999996
    23   1      3.9199999999999942      45.079999999999998      41.159999999999997
    24   1      5.8800000000000017      43.119999999999997      41.159999999999997
    25   1      5.8800000000000017      45.079999999999998      39.199999999999996
    26   1      3.9199999999999942      43.119999999999997      43.119999999999997
    27   1      3.9199999999999942      45.079999999999998      45.079999999999998
    28   1      5.8800000000000017      43.119999999999997      45.079999999999998
    29   1      5.8800000000000017      45.079999999999998      43.119999999999997
    30   1      3.9199999999999942      43.119999999999997      47.039999999999999
    31   1      5.8800000000000017      43.119999999999997                      49
    32   1      5.8800000000000017      45.079999999999998      47.039999999999999
    33   1      5.8800000000000017      47.039999999999999      37.240000000000002
    34   1      3.9199999999999942      47.039999999999999      39.199999999999996
    35   1      5.8800000000000017      47.039999999999999      41.159999999999997
    36   1      5.8800000000000017                      49      39.199999999999996
    37   1      3.9199999999999942      47.039999999999999      43.119999999999997
    38   1      5.8800000000000017      47.039999999999999      45.079999999999998
    39   1      5.8800000000000017                      49      43.119999999999997
    40   1      3.9199999999999942      47.039999999999999      47.039999999999999
    41   1      5.8800000000000017      47.039999999999999                      49
    42   1      5.8800000000000017                      49      47.039999999999999
    43   1      9.7999999999999972                   33.32      39.199999999999996
    44   1      9.7999999999999972                   33.32      43.119999999999997
    45   1      9.7999999999999972                   33.32      47.039999999999999
    46   1      7.8399999999999954      37.240000000000002      37.240000000000002
    47   1      9.7999999999999972      35.280000000000001      37.240000000000002
    48   1      9.7999999999999972      37.240000000000002      35.280000000000001
    49   1      7.8399999999999954      35.280000000000001      39.199999999999996
    50   1      7.8399999999999954      37.240000000000002      41.159999999999997
    51   1      9.7999999999999972      35.280000000000001      41.159999999999997
    52   1      9.7999999999999972      37.240000000000002      39.199999999999996
    53   1      7.8399999999999954      35.280000000000001      43.119999999999997
    54   1      7.8399999999999954      37.240000000000002      45.079999999999998
    55   1      9.7999999999999972      35.280000000000001      45.079999999999998
    56   1      9.7999999999999972      37.240000000000002      43.119999999999997
    57   1      7.8399999999999954      35.280000000000001      47.039999999999999
    58   1      7.8399999999999954      37.240000000000002                      49
    59   1      9.7999999999999972      35.280000000000001                      49
    60   1      9.7999999999999972      37.240000000000002      47.039999999999999
    61   1      9.7999999999999972      37.240000000000002      50.959999999999994
    62   1      9.7999999999999972      39.199999999999996                   33.32
    63   1      7.8399999999999954      39.199999999999996      35.280000000000001
    64   1      7.8399999999999954      41.159999999999997      37.240000000000002
    65   1      9.7999999999999972      39.199999999999996      37.240000000000002
    66   1      9.7999999999999972      41.159999999999997      35.280000000000001
    67   1      7.8399999999999954      39.199999999999996      39.199999999999996
    68   1      7.8399999999999954      41.159999999999997      41.159999999999997
    69   1      9.7999999999999972      39.199999999999996      41.159999999999997
    70   1      9.7999999999999972      41.159999999999997      39.199999999999996
    71   1      7.8399999999999954      39.199999999999996      43.119999999999997
    72   1      7.8399999999999954      41.159999999999997      45.079999999999998
    73   1      9.7999999999999972      39.199999999999996      45.079999999999998
    74   1      9.7999999999999972      41.159999999999997      43.119999999999997
    75   1      7.8399999999999954      39.199999999999996      47.039999999999999
    76   1      7.8399999999999954      41.159999999999997                      49
    77   1      9.7999999999999972      39.199999999999996                      49
    78   1      9.7999999999999972      41.159999999999997      47.039999999999999
    79   1      7.8399999999999954      39.199999999999996      50.959999999999994
    80   1      9.7999999999999972      39.199999999999996      52.919999999999995
    81   1      9.7999999999999972      41.159999999999997      50.959999999999994
    82   1      9.7999999999999972      43.119999999999997                   33.32
    83   1      7.8399999999999954      43.119999999999997      35.280000000000001
    84   1      7.8399999999999954      45.079999999999998      37.240000000000002
    85   1      9.7999999999999972      43.119999999999997      37.240000000000002
    86   1      9.7999999999999972      45.079999999999998      35.280000000000001
    87   1      7.8399999999999954      43.119999999999997      39.199999999999996
    88   1      7.8399999999999954      45.079999999999998      41.159999999999997
    89   1      9.7999999999999972      43.119999999999997      41.159999999999997
    90   1      9.7999999999999972      45.079999999999998      39.199999999999996
    91   1      7.8399999999999954      43.119999999999997      43.119999999999997
    92   1      7.8399999999999954      45.079999999999998      45.079999999999998
    93   1      9.7999999999999972      43.119999999999997      45.079999999999998
    94   1      9.7999999999999972      45.079999999999998      43.119999999999997
    95   1      7.8399999999999954      43.119999999999997      47.039999999999999
    96   1      7.8399999999999954      45.079999999999998                      49
    97   1      9.7999999999999972      43.119999999999997                      49
    98   1      9.7999999999999972      45.079999999999998      47.039999999999999
    99   1      7.8399999999999954      43.119999999999997      50.959999999999994
   100   1      9.7999999999999972      43.119999999999997      52.919999999999995
   101   1      9.7999999999999972      45.079999999999998      50.959999999999994
   102   1      9.7999999999999972      47.039999999999999                   33.32
   103   1      7.8399999999999954      47.039999999999999      35.280000000000001
   104   1      7.8399999999999954                      49      37.240000000000002
   105   1      9.7999999999999972      47.039999999999999      37.240000000000002
   106   1      9.7999999999999972                      49      35.280000000000001
   107   1      7.8399999999999954      47.039999999999999      39.199999999999996
   108   1      7.8399999999999954                      49      41.159999999999997
   109   1      9.7999999999999972      47.039999999999999      41.159999999999997
   110   1      9.7999999999999972                      49      39.199999999999996
   111   1      7.8399999999999954      47.039999999999999      43.119999999999997
   112   1      7.8399999999999954                      49      45.079999999999998
   113   1      9.7999999999999972      47.039999999999999      45.079999999999998
   114   1      9.7999999999999972                      49      43.119999999999997
   115   1      7.8399999999999954      47.039999999999999      47.039999999999999
   116   1      7.8399999999999954                      49                      49
   117   1      9.7999999999999972      47.039999999999999                      49
   118   1      9.7999999999999972                      49      47.039999999999999
   119   1      7.8399999999999954      47.039999999999999      50.959999999999994
   120   1      9.7999999999999972      47.039999999999999      52.919999999999995
   121   1      9.7999999999999972                      49      50.959999999999994
   122   1      9.7999999999999972      50.959999999999994      37.240000000000002
   123   1      7.8399999999999954      50.959999999999994      39.199999999999996
   124   1      9.7999999999999972      50.959999999999994      41.159999999999997
   125   1      9.7999999999999972      52.919999999999995      39.199999999999996
   126   1      7.8399999999999954      50.959999999999994      43.119999999999997
   127   1      9.7999999999999972      50.959999999999994      45.079999999999998
   128   1      9.7999999999999972      52.919999999999995      43.119999999999997
   129   1      7.8399999999999954      50.959999999999994      47.039999999999999
   130   1      9.7999999999999972      50.959999999999994                      49
   131   1      9.7999999999999972      52.919999999999995      47.039999999999999
   132   1      13.719999999999999      29.399999999999999      39.199999999999996
   133   1      13.719999999999999      29.399999999999999      43.119999999999997
   134   1      13.719999999999999      29.399999999999999      47.039999999999999
   135   1      11.759999999999996                   33.32      37.240000000000002
   136   1      13.719999999999999      31.359999999999999      37.240000000000002
   137   1      13.719999999999999                   33.32      35.280000000000001
   138   1      11.759999999999996      31.359999999999999      39.199999999999996
   139   1      11.759999999999996                   33.32      41.159999999999997
   140   1      13.719999999999999      31.359999999999999      41.159999999999997
   141   1      13.719999999999999                   33.32      39.199999999999996
   142   1      11.759999999999996      31.359999999999999      43.119999999999997
   143   1      11.759999999999996                   33.32      45.079999999999998
   144   1      13.719999999999999      31.359999999999999      45.079999999999998
   145   1      13.719999999999999                   33.32      43.119999999999997
   146   1      11.759999999999996      31.359999999999999      47.039999999999999
   147   1      11.759999999999996                   33.32                      49
   148   1      13.719999999999999      31.359999999999999                      49
   149   1      13.719999999999999                   33.32      47.039999999999999
   150   1      13.719999999999999                   33.32      50.959999999999994
   151   1      11.759999999999996      37.240000000000002                   33.32
   152   1      13.719999999999999      35.280000000000001                   33.32
   153   1      13.719999999999999      37.240000000000002      31.359999999999999
   154   1      11.759999999999996      35.280000000000001      35.280000000000001
   155   1      11.759999999999996      37.240000000000002      37.240000000000002
   156   1      13.719999999999999      35.280000000000001      37.240000000000002
   157   1      13.719999999999999      37.240000000000002      35.280000000000001
   158   1      11.759999999999996      35.280000000000001      39.199999999999996
   159   1      11.759999999999996      37.240000000000002      41.159999999999997
   160   1      13.719999999999999      35.280000000000001      41.159999999999997
   161   1      13.719999999999999      37.240000000000002      39.199999999999996
   162   1      11.759999999999996      35.280000000000001      43.119999999999997
   163   1      11.759999999999996      37.240000000000002      45.079999999999998
   164   1      13.719999999999999      35.280000000000001      45.079999999999998
   165   1      13.719999999999999      37.240000000000002      43.119999999999997
   166   1      11.759999999999996      35.280000000000001      47.039999999999999
   167   1      11.759999999999996      37.240000000000002                      49
   168   1      13.719999999999999      35.280000000000001                      49
   169   1      13.719999999999999      37.240000000000002      47.039999999999999
   170   1      11.759999999999996      35.280000000000001      50.959999999999994
   171   1      11.759999999999996      37.240000000000002      52.919999999999995
   172   1      13.719999999999999      35.280000000000001      52.919999999999995
   173   1      13.719999999999999      37.240000000000002      50.959999999999994
   174   1      13.719999999999999      37.240000000000002      54.879999999999995
   175   1      13.719999999999999      39.199999999999996      29.399999999999999
   176   1      11.759999999999996      39.199999999999996      31.359999999999999
   177   1      11.759999999999996      41.159999999999997                   33.32
   178   1      13.719999999999999      39.199999999999996                   33.32
   179   1      13.719999999999999      41.159999999999997      31.359999999999999
   180   1      11.759999999999996      39.199999999999996      35.280000000000001
   181   1      11.759999999999996      41.159999999999997      37.240000000000002
   182   1      13.719999999999999      39.199999999999996      37.240000000000002
   183   1      13.719999999999999      41.159999999999997      35.280000000000001
   184   1      11.759999999999996      39.199999999999996      39.199999999999996
   185   1      11.759999999999996      41.159999999999997      41.159999999999997
   186   1      13.719999999999999      39.199999999999996      41.159999999999997
   187   1      13.719999999999999      41.159999999999997      39.199999999999996
   188   1      11.759999999999996      39.199999999999996      43.119999999999997
   189   1      11.759999999999996      41.159999999999997      45.079999999999998
   190   1      13.719999999999999      39.199999999999996      45.079999999999998
   191   1      13.719999999999999      41.159999999999997      43.119999999999997
   192   1      11.759999999999996      39.199999999999996      47.039999999999999
   193   1      11.759999999999996      41.159999999999997                      49
   194   1      13.719999999999999      39.199999999999996                      49
   195   1      13.719999999999999      41.159999999999997      47.039999999999999
   196   1      11.759999999999996      39.199999999999996      50.959999999999994
   197   1      11.759999999999996      41.159999999999997      52.919999999999995
   198   1      13.719999999999999      39.199999999999996      52.919999999999995
   199   1      13.719999999999999      41.159999999999997      50.959999999999994
   200   1      11.759999999999996      39.199999999999996      54.879999999999995
   201   1      13.719999999999999      39.199999999999996      56.839999999999989
   202   1      13.719999999999999      41.159999999999997      54.879999999999995
   203   1      13.719999999999999      43.119999999999997      29.399999999999999
   204   1      11.759999999999996      43.119999999999997      31.359999999999999
   205   1      11.759999999999996      45.079999999999998                   33.32
   206   1      13.719999999999999      43.119999999999997                   33.32
   207   1      13.719999999999999      45.079999999999998      31.359999999999999
   208   1      11.759999999999996      43.119999999999997      35.280000000000001
   209   1      11.759999999999996      45.079999999999998      37.240000000000002
   210   1      13.719999999999999      43.119999999999997      37.240000000000002
   211   1      13.719999999999999      45.079999999999998      35.280000000000001
   212   1      11.759999999999996      43.119999999999997      39.199999999999996
   213   1      11.759999999999996      45.079999999999998      41.159999999999997
   214   1      13.719999999999999      43.119999999999997      41.159999999999997
   215   1      13.719999999999999      45.079999999999998      39.199999999999996
   216   1      11.759999999999996      43.119999999999997      43.119999999999997
   217   1      11.759999999999996      45.079999999999998      45.079999999999998
   218   1      13.719999999999999      43.119999999999997      45.079999999999998
   219   1      13.719999999999999      45.079999999999998      43.119999999999997
   220   1      11.759999999999996      43.119999999999997      47.039999999999999
   221   1      11.759999999999996      45.079999999999998                      49
   222   1      13.719999999999999      43.119999999999997                      49
   223   1      13.719999999999999      45.079999999999998      47.039999999999999
   224   1      11.759999999999996      43.119999999999997      50.959999999999994
   225   1      11.759999999999996      45.079999999999998      52.919999999999995
   226   1      13.719999999999999      43.119999999999997      52.919999999999995
   227   1      13.719999999999999      45.079999999999998      50.959999999999994
   228   1      11.759999999999996      43.119999999999997      54.879999999999995
   229   1      13.719999999999999      43.119999999999997      56.839999999999989
   230   1      13.719999999999999      45.079999999999998      54.879999999999995
   231   1      13.719999999999999      47.039999999999999      29.399999999999999
   232   1      11.759999999999996      47.039999999999999      31.359999999999999
   233   1      11.759999999999996                      49                   33.32
   234   1      13.719999999999999      47.039999999999999                   33.32
   235   1      13.719999999999999                      49      31.359999999999999
   236   1      11.759999999999996      47.039999999999999      35.280000000000001
   237   1      11.759999999999996                      49      37.240000000000002
   238   1      13.719999999999999      47.039999999999999      37.240000000000002
   239   1      13.719999999999999                      49      35.280000000000001
   240   1      11.759999999999996      47.039999999999999      39.199999999999996
   241   1      11.759999999999996                      49      41.159999999999997
   242   1      13.719999999999999      47.039999999999999      41.159999999999997
   243   1      13.719999999999999                      49      39.199999999999996
   244   1      11.759999999999996      47.039999999999999      43.119999999999997
   245   1      11.759999999999996                      49      45.079999999999998
   246   1      13.719999999999999      47.039999999999999      45.079999999999998
   247   1      13.719999999999999                      49      43.119999999999997
   248   1      11.759999999999996      47.039999999999999      47.039999999999999
   249   1      11.759999999999996                      49                      49
   250   1      13.719999999999999      47.039999999999999                      49
   251   1      13.719999999999999                      49      47.039999999999999
   252   1      11.759999999999996      47.039999999999999      50.959999999999994
   253   1      11.759999999999996                      49      52.919999999999995
   254   1      13.719999999999999      47.039999999999999      52.919999999999995
   255   1      13.719999999999999                      49      50.959999999999994
   256   1      11.759999999999996      47.039999999999999      54.879999999999995
   257   1      13.719999999999999      47.039999999999999      56.839999999999989
   258   1      13.719999999999999                      49      54.879999999999995
   259   1      13.719999999999999      50.959999999999994                   33.32
   260   1      11.759999999999996      50.959999999999994      35.280000000000001
   261   1      11.759999999999996      52.919999999999995      37.240000000000002
   262   1      13.719999999999999      50.959999999999994      37.240000000000002
   263   1      13.719999999999999      52.919999999999995      35.280000000000001
   264   1      11.759999999999996      50.959999999999994      39.199999999999996
   265   1      11.759999999999996      52.919999999999995      41.159999999999997
   266   1      13.719999999999999      50.959999999999994      41.159999999999997
   267   1      13.719999999999999      52.919999999999995      39.199999999999996
   268   1      11.759999999999996      50.959999999999994      43.119999999999997
   269   1      11.759999999999996      52.919999999999995      45.079999999999998
   270   1      13.719999999999999      50.959999999999994      45.079999999999998
   271   1      13.719999999999999      52.919999999999995      43.119999999999997
   272   1      11.759999999999996      50.959999999999994      47.039999999999999
   273   1      11.759999999999996      52.919999999999995                      49
   274   1      13.719999999999999      50.959999999999994                      49
   275   1      13.719999999999999      52.919999999999995      47.039999999999999
   276   1      11.759999999999996      50.959999999999994      50.959999999999994
   277   1      13.719999999999999      50.959999999999994      52.919999999999995
   278   1      13.719999999999999      52.919999999999995      50.959999999999994
   279   1      13.719999999999999      54.879999999999995      37.240000000000002
   280   1      11.759999999999996      54.879999999999995      39.199999999999996
   281   1      13.719999999999999      54.879999999999995      41.159999999999997
   282   1      13.719999999999999      56.839999999999989      39.199999999999996
   283   1      11.759999999999996      54.879999999999995      43.119999999999997
   284   1      13.719999999999999      54.879999999999995      45.079999999999998
   285   1      13.719999999999999      56.839999999999989      43.119999999999997
   286   1      11.759999999999996      54.879999999999995      47.039999999999999
   287   1      13.719999999999999      54.879999999999995                      49
   288   1      13.719999999999999      56.839999999999989      47.039999999999999
   289   1      17.640000000000001      25.479999999999997      39.199999999999996
   290   1      17.640000000000001      25.479999999999997      43.119999999999997
   291   1      17.640000000000001      25.479999999999997      47.039999999999999
   292   1      17.640000000000001      29.399999999999999      31.359999999999999
   293   1                   15.68      29.399999999999999      37.240000000000002
   294   1      17.640000000000001      27.439999999999998      37.240000000000002
   295   1      17.640000000000001      29.399999999999999      35.280000000000001
   296   1                   15.68      27.439999999999998      39.199999999999996
   297   1                   15.68      29.399999999999999      41.159999999999997
   298   1      17.640000000000001      27.439999999999998      41.159999999999997
   299   1      17.640000000000001      29.399999999999999      39.199999999999996
   300   1                   15.68      27.439999999999998      43.119999999999997
   301   1                   15.68      29.399999999999999      45.079999999999998
   302   1      17.640000000000001      27.439999999999998      45.079999999999998
   303   1      17.640000000000001      29.399999999999999      43.119999999999997
   304   1                   15.68      27.439999999999998      47.039999999999999
   305   1                   15.68      29.399999999999999                      49
   306   1      17.640000000000001      27.439999999999998                      49
   307   1      17.640000000000001      29.399999999999999      47.039999999999999
   308   1      17.640000000000001      29.399999999999999      50.959999999999994
   309   1      17.640000000000001      29.399999999999999      54.879999999999995
   310   1      17.640000000000001      31.359999999999999      29.399999999999999
   311   1                   15.68      31.359999999999999      31.359999999999999
   312   1                   15.68                   33.32                   33.32
   313   1      17.640000000000001      31.359999999999999                   33.32
   314   1      17.640000000000001                   33.32      31.359999999999999
   315   1                   15.68      31.359999999999999      35.280000000000001
   316   1                   15.68                   33.32      37.240000000000002
   317   1      17.640000000000001      31.359999999999999      37.240000000000002
   318   1      17.640000000000001                   33.32      35.280000000000001
   319   1                   15.68      31.359999999999999      39.199999999999996
   320   1                   15.68                   33.32      41.159999999999997
   321   1      17.640000000000001      31.359999999999999      41.159999999999997
   322   1      17.640000000000001                   33.32      39.199999999999996
   323   1                   15.68      31.359999999999999      43.119999999999997
   324   1                   15.68                   33.32      45.079999999999998
   325   1      17.640000000000001      31.359999999999999      45.079999999999998
   326   1      17.640000000000001                   33.32      43.119999999999997
   327   1                   15.68      31.359999999999999      47.039999999999999
   328   1                   15.68                   33.32                      49
   329   1      17.640000000000001      31.359999999999999                      49
   330   1      17.640000000000001                   33.32      47.039999999999999
   331   1                   15.68      31.359999999999999      50.959999999999994
   332   1                   15.68                   33.32      52.919999999999995
   333   1      17.640000000000001      31.359999999999999      52.919999999999995
   334   1      17.640000000000001                   33.32      50.959999999999994
   335   1                   15.68      31.359999999999999      54.879999999999995
   336   1      17.640000000000001      31.359999999999999      56.839999999999989
   337   1      17.640000000000001                   33.32      54.879999999999995
   338   1                   15.68      37.240000000000002      29.399999999999999
   339   1      17.640000000000001      35.280000000000001      29.399999999999999
   340   1      17.640000000000001      37.240000000000002      27.439999999999998
   341   1                   15.68      35.280000000000001      31.359999999999999
   342   1                   15.68      37.240000000000002                   33.32
   343   1      17.640000000000001      35.280000000000001                   33.32
   344   1      17.640000000000001      37.240000000000002      31.359999999999999
   345   1                   15.68      35.280000000000001      35.280000000000001
   346   1                   15.68      37.240000000000002      37.240000000000002
   347   1      17.640000000000001      35.280000000000001      37.240000000000002
   348   1      17.640000000000001      37.240000000000002      35.280000000000001
   349   1                   15.68      35.280000000000001      39.199999999999996
   350   1                   15.68      37.240000000000002      41.159999999999997
   351   1      17.640000000000001      35.280000000000001      41.159999999999997
   352   1      17.640000000000001      37.240000000000002      39.199999999999996
   353   1                   15.68      35.280000000000001      43.119999999999997
   354   1                   15.68      37.240000000000002      45.079999999999998
   355   1      17.640000000000001      35.280000000000001      45.079999999999998
   356   1      17.640000000000001      37.240000000000002      43.119999999999997
   357   1                   15.68      35.280000000000001      47.039999999999999
   358   1                   15.68      37.240000000000002                      49