model_files/Co/Co_30000/Co_411/data.Co_411_hcp_29957 (written by ASE) 

29957 	 atoms 
1  atom types
0.0                      60  xlo xhi
0.0                      60  ylo yhi
0.0                      60  zlo zhi


Atoms 

     1   1      1.2550000000000026      26.354999999999997      30.120000000000001
     2   1      1.2550000000000026      27.609999999999999      28.864999999999998
     3   1      1.2550000000000026      28.864999999999998      27.609999999999999
     4   1      1.2550000000000026      27.609999999999999                  31.375
     5   1      1.2550000000000026      28.864999999999998      30.120000000000001
     6   1      1.2550000000000026      28.864999999999998      32.630000000000003
     7   1      1.2550000000000026      30.120000000000001      26.354999999999997
     8   1      1.2550000000000026      30.120000000000001      28.864999999999998
     9   1      1.2550000000000026                  31.375      27.609999999999999
    10   1                       0      30.120000000000001      30.120000000000001
    11   1      1.2550000000000026      30.120000000000001                  31.375
    12   1      1.2550000000000026                  31.375      30.120000000000001
    13   1      1.2550000000000026      30.120000000000001      33.885000000000005
    14   1      1.2550000000000026                  31.375      32.630000000000003
    15   1      1.2550000000000026      32.630000000000003      28.864999999999998
    16   1      1.2550000000000026      32.630000000000003                  31.375
    17   1      1.2550000000000026      33.885000000000005      30.120000000000001
    18   1       3.765000000000001      16.315000000000001      30.120000000000001
    19   1       3.765000000000001                   17.57      28.864999999999998
    20   1       3.765000000000001      18.824999999999999      27.609999999999999
    21   1       3.765000000000001                   17.57                  31.375
    22   1       3.765000000000001      18.824999999999999      30.120000000000001
    23   1       3.765000000000001      18.824999999999999      32.630000000000003
    24   1       3.765000000000001      20.079999999999998      26.354999999999997
    25   1       3.765000000000001      21.334999999999997      25.100000000000001
    26   1      2.5100000000000016      21.334999999999997      28.864999999999998
    27   1       3.765000000000001      20.079999999999998      28.864999999999998
    28   1       3.765000000000001      21.334999999999997      27.609999999999999
    29   1      2.5100000000000016      20.079999999999998      30.120000000000001
    30   1      2.5100000000000016      21.334999999999997                  31.375
    31   1       3.765000000000001      20.079999999999998                  31.375
    32   1       3.765000000000001      21.334999999999997      30.120000000000001
    33   1       3.765000000000001      20.079999999999998      33.885000000000005
    34   1       3.765000000000001      21.334999999999997      32.630000000000003
    35   1       3.765000000000001      21.334999999999997      35.140000000000001
    36   1       3.765000000000001                   22.59      23.844999999999999
    37   1       3.765000000000001      23.844999999999999                   22.59
    38   1      2.5100000000000016      23.844999999999999      26.354999999999997
    39   1       3.765000000000001                   22.59      26.354999999999997
    40   1       3.765000000000001      23.844999999999999      25.100000000000001
    41   1      2.5100000000000016                   22.59      27.609999999999999
    42   1      2.5100000000000016      23.844999999999999      28.864999999999998
    43   1       3.765000000000001                   22.59      28.864999999999998
    44   1       3.765000000000001      23.844999999999999      27.609999999999999
    45   1      2.5100000000000016                   22.59      30.120000000000001
    46   1      2.5100000000000016      23.844999999999999                  31.375
    47   1       3.765000000000001                   22.59                  31.375
    48   1       3.765000000000001      23.844999999999999      30.120000000000001
    49   1      2.5100000000000016                   22.59      32.630000000000003
    50   1      2.5100000000000016      23.844999999999999      33.885000000000005
    51   1       3.765000000000001                   22.59      33.885000000000005
    52   1       3.765000000000001      23.844999999999999      32.630000000000003
    53   1       3.765000000000001                   22.59      36.395000000000003
    54   1       3.765000000000001      23.844999999999999      35.140000000000001
    55   1       3.765000000000001      23.844999999999999      37.649999999999999
    56   1       3.765000000000001      25.100000000000001      21.334999999999997
    57   1       3.765000000000001      26.354999999999997      20.079999999999998
    58   1      2.5100000000000016      26.354999999999997      23.844999999999999
    59   1       3.765000000000001      25.100000000000001      23.844999999999999
    60   1       3.765000000000001      26.354999999999997                   22.59
    61   1      2.5100000000000016      25.100000000000001      25.100000000000001
    62   1      2.5100000000000016      26.354999999999997      26.354999999999997
    63   1       3.765000000000001      25.100000000000001      26.354999999999997
    64   1       3.765000000000001      26.354999999999997      25.100000000000001
    65   1      2.5100000000000016      25.100000000000001      27.609999999999999
    66   1      2.5100000000000016      26.354999999999997      28.864999999999998
    67   1       3.765000000000001      25.100000000000001      28.864999999999998
    68   1       3.765000000000001      26.354999999999997      27.609999999999999
    69   1      2.5100000000000016      25.100000000000001      30.120000000000001
    70   1      2.5100000000000016      26.354999999999997                  31.375
    71   1       3.765000000000001      25.100000000000001                  31.375
    72   1       3.765000000000001      26.354999999999997      30.120000000000001
    73   1      2.5100000000000016      25.100000000000001      32.630000000000003
    74   1      2.5100000000000016      26.354999999999997      33.885000000000005
    75   1       3.765000000000001      25.100000000000001      33.885000000000005
    76   1       3.765000000000001      26.354999999999997      32.630000000000003
    77   1      2.5100000000000016      25.100000000000001      35.140000000000001
    78   1      2.5100000000000016      26.354999999999997      36.395000000000003
    79   1       3.765000000000001      25.100000000000001      36.395000000000003
    80   1       3.765000000000001      26.354999999999997      35.140000000000001
    81   1       3.765000000000001      25.100000000000001      38.905000000000001
    82   1       3.765000000000001      26.354999999999997      37.649999999999999
    83   1       3.765000000000001      26.354999999999997      40.159999999999997
    84   1       3.765000000000001      27.609999999999999      18.824999999999999
    85   1       3.765000000000001      28.864999999999998                   17.57
    86   1      2.5100000000000016      28.864999999999998      21.334999999999997
    87   1       3.765000000000001      27.609999999999999      21.334999999999997
    88   1       3.765000000000001      28.864999999999998      20.079999999999998
    89   1      2.5100000000000016      27.609999999999999                   22.59
    90   1      2.5100000000000016      28.864999999999998      23.844999999999999
    91   1       3.765000000000001      27.609999999999999      23.844999999999999
    92   1       3.765000000000001      28.864999999999998                   22.59
    93   1      2.5100000000000016      27.609999999999999      25.100000000000001
    94   1      2.5100000000000016      28.864999999999998      26.354999999999997
    95   1       3.765000000000001      27.609999999999999      26.354999999999997
    96   1       3.765000000000001      28.864999999999998      25.100000000000001
    97   1      2.5100000000000016      27.609999999999999      27.609999999999999
    98   1      2.5100000000000016      28.864999999999998      28.864999999999998
    99   1       3.765000000000001      27.609999999999999      28.864999999999998
   100   1       3.765000000000001      28.864999999999998      27.609999999999999
   101   1      2.5100000000000016      27.609999999999999      30.120000000000001
   102   1      2.5100000000000016      28.864999999999998                  31.375
   103   1       3.765000000000001      27.609999999999999                  31.375
   104   1       3.765000000000001      28.864999999999998      30.120000000000001
   105   1      2.5100000000000016      27.609999999999999      32.630000000000003
   106   1      2.5100000000000016      28.864999999999998      33.885000000000005
   107   1       3.765000000000001      27.609999999999999      33.885000000000005
   108   1       3.765000000000001      28.864999999999998      32.630000000000003
   109   1      2.5100000000000016      27.609999999999999      35.140000000000001
   110   1      2.5100000000000016      28.864999999999998      36.395000000000003
   111   1       3.765000000000001      27.609999999999999      36.395000000000003
   112   1       3.765000000000001      28.864999999999998      35.140000000000001
   113   1      2.5100000000000016      27.609999999999999      37.649999999999999
   114   1      2.5100000000000016      28.864999999999998      38.905000000000001
   115   1       3.765000000000001      27.609999999999999      38.905000000000001
   116   1       3.765000000000001      28.864999999999998      37.649999999999999
   117   1       3.765000000000001      27.609999999999999      41.414999999999999
   118   1       3.765000000000001      28.864999999999998      40.159999999999997
   119   1       3.765000000000001      28.864999999999998      42.669999999999995
   120   1       3.765000000000001      30.120000000000001      16.315000000000001
   121   1       3.765000000000001      30.120000000000001      18.824999999999999
   122   1       3.765000000000001                  31.375                   17.57
   123   1      2.5100000000000016      30.120000000000001      20.079999999999998
   124   1      2.5100000000000016                  31.375      21.334999999999997
   125   1       3.765000000000001      30.120000000000001      21.334999999999997
   126   1       3.765000000000001                  31.375      20.079999999999998
   127   1      2.5100000000000016      30.120000000000001                   22.59
   128   1      2.5100000000000016                  31.375      23.844999999999999
   129   1       3.765000000000001      30.120000000000001      23.844999999999999
   130   1       3.765000000000001                  31.375                   22.59
   131   1      2.5100000000000016      30.120000000000001      25.100000000000001
   132   1      2.5100000000000016                  31.375      26.354999999999997
   133   1       3.765000000000001      30.120000000000001      26.354999999999997
   134   1       3.765000000000001                  31.375      25.100000000000001
   135   1      2.5100000000000016      30.120000000000001      27.609999999999999
   136   1      2.5100000000000016                  31.375      28.864999999999998
   137   1       3.765000000000001      30.120000000000001      28.864999999999998
   138   1       3.765000000000001                  31.375      27.609999999999999
   139   1      2.5100000000000016      30.120000000000001      30.120000000000001
   140   1      2.5100000000000016                  31.375                  31.375
   141   1       3.765000000000001      30.120000000000001                  31.375
   142   1       3.765000000000001                  31.375      30.120000000000001
   143   1      2.5100000000000016      30.120000000000001      32.630000000000003
   144   1      2.5100000000000016                  31.375      33.885000000000005
   145   1       3.765000000000001      30.120000000000001      33.885000000000005
   146   1       3.765000000000001                  31.375      32.630000000000003
   147   1      2.5100000000000016      30.120000000000001      35.140000000000001
   148   1      2.5100000000000016                  31.375      36.395000000000003
   149   1       3.765000000000001      30.120000000000001      36.395000000000003
   150   1       3.765000000000001                  31.375      35.140000000000001
   151   1      2.5100000000000016      30.120000000000001      37.649999999999999
   152   1      2.5100000000000016                  31.375      38.905000000000001
   153   1       3.765000000000001      30.120000000000001      38.905000000000001
   154   1       3.765000000000001                  31.375      37.649999999999999
   155   1      2.5100000000000016      30.120000000000001      40.159999999999997
   156   1       3.765000000000001      30.120000000000001      41.414999999999999
   157   1       3.765000000000001                  31.375      40.159999999999997
   158   1       3.765000000000001      30.120000000000001      43.924999999999997
   159   1       3.765000000000001                  31.375      42.669999999999995
   160   1       3.765000000000001      32.630000000000003      18.824999999999999
   161   1       3.765000000000001      32.630000000000003      21.334999999999997
   162   1       3.765000000000001      33.885000000000005      20.079999999999998
   163   1      2.5100000000000016      32.630000000000003                   22.59
   164   1      2.5100000000000016      33.885000000000005      23.844999999999999
   165   1       3.765000000000001      32.630000000000003      23.844999999999999
   166   1       3.765000000000001      33.885000000000005                   22.59
   167   1      2.5100000000000016      32.630000000000003      25.100000000000001
   168   1      2.5100000000000016      33.885000000000005      26.354999999999997
   169   1       3.765000000000001      32.630000000000003      26.354999999999997
   170   1       3.765000000000001      33.885000000000005      25.100000000000001
   171   1      2.5100000000000016      32.630000000000003      27.609999999999999
   172   1      2.5100000000000016      33.885000000000005      28.864999999999998
   173   1       3.765000000000001      32.630000000000003      28.864999999999998
   174   1       3.765000000000001      33.885000000000005      27.609999999999999
   175   1      2.5100000000000016      32.630000000000003      30.120000000000001
   176   1      2.5100000000000016      33.885000000000005                  31.375
   177   1       3.765000000000001      32.630000000000003                  31.375
   178   1       3.765000000000001      33.885000000000005      30.120000000000001
   179   1      2.5100000000000016      32.630000000000003      32.630000000000003
   180   1      2.5100000000000016      33.885000000000005      33.885000000000005
   181   1       3.765000000000001      32.630000000000003      33.885000000000005
   182   1       3.765000000000001      33.885000000000005      32.630000000000003
   183   1      2.5100000000000016      32.630000000000003      35.140000000000001
   184   1      2.5100000000000016      33.885000000000005      36.395000000000003
   185   1       3.765000000000001      32.630000000000003      36.395000000000003
   186   1       3.765000000000001      33.885000000000005      35.140000000000001
   187   1      2.5100000000000016      32.630000000000003      37.649999999999999
   188   1       3.765000000000001      32.630000000000003      38.905000000000001
   189   1       3.765000000000001      33.885000000000005      37.649999999999999
   190   1       3.765000000000001      32.630000000000003      41.414999999999999
   191   1       3.765000000000001      33.885000000000005      40.159999999999997
   192   1       3.765000000000001      35.140000000000001      21.334999999999997
   193   1       3.765000000000001      35.140000000000001      23.844999999999999
   194   1       3.765000000000001      36.395000000000003                   22.59
   195   1      2.5100000000000016      35.140000000000001      25.100000000000001
   196   1      2.5100000000000016      36.395000000000003      26.354999999999997
   197   1       3.765000000000001      35.140000000000001      26.354999999999997
   198   1       3.765000000000001      36.395000000000003      25.100000000000001
   199   1      2.5100000000000016      35.140000000000001      27.609999999999999
   200   1      2.5100000000000016      36.395000000000003      28.864999999999998
   201   1       3.765000000000001      35.140000000000001      28.864999999999998
   202   1       3.765000000000001      36.395000000000003      27.609999999999999
   203   1      2.5100000000000016      35.140000000000001      30.120000000000001
   204   1      2.5100000000000016      36.395000000000003                  31.375
   205   1       3.765000000000001      35.140000000000001                  31.375
   206   1       3.765000000000001      36.395000000000003      30.120000000000001
   207   1      2.5100000000000016      35.140000000000001      32.630000000000003
   208   1      2.5100000000000016      36.395000000000003      33.885000000000005
   209   1       3.765000000000001      35.140000000000001      33.885000000000005
   210   1       3.765000000000001      36.395000000000003      32.630000000000003
   211   1      2.5100000000000016      35.140000000000001      35.140000000000001
   212   1       3.765000000000001      35.140000000000001      36.395000000000003
   213   1       3.765000000000001      36.395000000000003      35.140000000000001
   214   1       3.765000000000001      35.140000000000001      38.905000000000001
   215   1       3.765000000000001      36.395000000000003      37.649999999999999
   216   1       3.765000000000001      37.649999999999999      23.844999999999999
   217   1       3.765000000000001      37.649999999999999      26.354999999999997
   218   1       3.765000000000001      38.905000000000001      25.100000000000001
   219   1      2.5100000000000016      37.649999999999999      27.609999999999999
   220   1      2.5100000000000016      38.905000000000001      28.864999999999998
   221   1       3.765000000000001      37.649999999999999      28.864999999999998
   222   1       3.765000000000001      38.905000000000001      27.609999999999999
   223   1      2.5100000000000016      37.649999999999999      30.120000000000001
   224   1      2.5100000000000016      38.905000000000001                  31.375
   225   1       3.765000000000001      37.649999999999999                  31.375
   226   1       3.765000000000001      38.905000000000001      30.120000000000001
   227   1      2.5100000000000016      37.649999999999999      32.630000000000003
   228   1       3.765000000000001      37.649999999999999      33.885000000000005
   229   1       3.765000000000001      38.905000000000001      32.630000000000003
   230   1       3.765000000000001      37.649999999999999      36.395000000000003
   231   1       3.765000000000001      38.905000000000001      35.140000000000001
   232   1       3.765000000000001      40.159999999999997      26.354999999999997
   233   1       3.765000000000001      40.159999999999997      28.864999999999998
   234   1       3.765000000000001      41.414999999999999      27.609999999999999
   235   1      2.5100000000000016      40.159999999999997      30.120000000000001
   236   1       3.765000000000001      40.159999999999997                  31.375
   237   1       3.765000000000001      41.414999999999999      30.120000000000001
   238   1       3.765000000000001      40.159999999999997      33.885000000000005
   239   1       3.765000000000001      41.414999999999999      32.630000000000003
   240   1       3.765000000000001      42.669999999999995      28.864999999999998
   241   1       3.765000000000001      42.669999999999995                  31.375
   242   1       3.765000000000001      43.924999999999997      30.120000000000001
   243   1      6.2750000000000021      6.2750000000000021      30.120000000000001
   244   1      6.2750000000000021       7.530000000000002      28.864999999999998
   245   1      6.2750000000000021      8.7850000000000001      27.609999999999999
   246   1      6.2750000000000021       7.530000000000002                  31.375
   247   1      6.2750000000000021      8.7850000000000001      30.120000000000001
   248   1      6.2750000000000021      8.7850000000000001      32.630000000000003
   249   1      6.2750000000000021      10.039999999999999      26.354999999999997
   250   1      6.2750000000000021      11.295000000000002      25.100000000000001
   251   1      5.0200000000000031      11.295000000000002      28.864999999999998
   252   1      6.2750000000000021      10.039999999999999      28.864999999999998
   253   1      6.2750000000000021      11.295000000000002      27.609999999999999
   254   1      5.0200000000000031      10.039999999999999      30.120000000000001
   255   1      5.0200000000000031      11.295000000000002                  31.375
   256   1      6.2750000000000021      10.039999999999999                  31.375
   257   1      6.2750000000000021      11.295000000000002      30.120000000000001
   258   1      6.2750000000000021      10.039999999999999      33.885000000000005
   259   1      6.2750000000000021      11.295000000000002      32.630000000000003
   260   1      6.2750000000000021      11.295000000000002      35.140000000000001
   261   1      6.2750000000000021      12.550000000000001      23.844999999999999
   262   1      6.2750000000000021                  13.805                   22.59
   263   1      5.0200000000000031                  13.805      26.354999999999997
   264   1      6.2750000000000021      12.550000000000001      26.354999999999997
   265   1      6.2750000000000021                  13.805      25.100000000000001
   266   1      5.0200000000000031      12.550000000000001      27.609999999999999
   267   1      5.0200000000000031                  13.805      28.864999999999998
   268   1      6.2750000000000021      12.550000000000001      28.864999999999998
   269   1      6.2750000000000021                  13.805      27.609999999999999
   270   1      5.0200000000000031      12.550000000000001      30.120000000000001
   271   1      5.0200000000000031                  13.805                  31.375
   272   1      6.2750000000000021      12.550000000000001                  31.375
   273   1      6.2750000000000021                  13.805      30.120000000000001
   274   1      5.0200000000000031      12.550000000000001      32.630000000000003
   275   1      5.0200000000000031                  13.805      33.885000000000005
   276   1      6.2750000000000021      12.550000000000001      33.885000000000005
   277   1      6.2750000000000021                  13.805      32.630000000000003
   278   1      6.2750000000000021      12.550000000000001      36.395000000000003
   279   1      6.2750000000000021                  13.805      35.140000000000001
   280   1      6.2750000000000021                  13.805      37.649999999999999
   281   1      6.2750000000000021      15.060000000000004      21.334999999999997
   282   1      6.2750000000000021      16.315000000000001      20.079999999999998
   283   1      5.0200000000000031      16.315000000000001      23.844999999999999
   284   1      6.2750000000000021      15.060000000000004      23.844999999999999
   285   1      6.2750000000000021      16.315000000000001                   22.59
   286   1      5.0200000000000031      15.060000000000004      25.100000000000001
   287   1      5.0200000000000031      16.315000000000001      26.354999999999997
   288   1      6.2750000000000021      15.060000000000004      26.354999999999997
   289   1      6.2750000000000021      16.315000000000001      25.100000000000001
   290   1      5.0200000000000031      15.060000000000004      27.609999999999999
   291   1      5.0200000000000031      16.315000000000001      28.864999999999998
   292   1      6.2750000000000021      15.060000000000004      28.864999999999998
   293   1      6.2750000000000021      16.315000000000001      27.609999999999999
   294   1      5.0200000000000031      15.060000000000004      30.120000000000001
   295   1      5.0200000000000031      16.315000000000001                  31.375
   296   1      6.2750000000000021      15.060000000000004                  31.375
   297   1      6.2750000000000021      16.315000000000001      30.120000000000001
   298   1      5.0200000000000031      15.060000000000004      32.630000000000003
   299   1      5.0200000000000031      16.315000000000001      33.885000000000005
   300   1      6.2750000000000021      15.060000000000004      33.885000000000005
   301   1      6.2750000000000021      16.315000000000001      32.630000000000003
   302   1      5.0200000000000031      15.060000000000004      35.140000000000001
   303   1      5.0200000000000031      16.315000000000001      36.395000000000003
   304   1      6.2750000000000021      15.060000000000004      36.395000000000003
   305   1      6.2750000000000021      16.315000000000001      35.140000000000001
   306   1      6.2750000000000021      15.060000000000004      38.905000000000001
   307   1      6.2750000000000021      16.315000000000001      37.649999999999999
   308   1      6.2750000000000021      16.315000000000001      40.159999999999997
   309   1      6.2750000000000021                   17.57      18.824999999999999
   310   1      6.2750000000000021      18.824999999999999                   17.57
   311   1      5.0200000000000031      18.824999999999999      21.334999999999997
   312   1      6.2750000000000021                   17.57      21.334999999999997
   313   1      6.2750000000000021      18.824999999999999      20.079999999999998
   314   1      5.0200000000000031                   17.57                   22.59
   315   1      5.0200000000000031      18.824999999999999      23.844999999999999
   316   1      6.2750000000000021                   17.57      23.844999999999999
   317   1      6.2750000000000021      18.824999999999999                   22.59
   318   1      5.0200000000000031                   17.57      25.100000000000001
   319   1      5.0200000000000031      18.824999999999999      26.354999999999997
   320   1      6.2750000000000021                   17.57      26.354999999999997
   321   1      6.2750000000000021      18.824999999999999      25.100000000000001
   322   1      5.0200000000000031                   17.57      27.609999999999999
   323   1      5.0200000000000031      18.824999999999999      28.864999999999998
   324   1      6.2750000000000021                   17.57      28.864999999999998
   325   1      6.2750000000000021      18.824999999999999      27.609999999999999
   326   1      5.0200000000000031                   17.57      30.120000000000001
   327   1      5.0200000000000031      18.824999999999999                  31.375
   328   1      6.2750000000000021                   17.57                  31.375
   329   1      6.2750000000000021      18.824999999999999      30.120000000000001
   330   1      5.0200000000000031                   17.57      32.630000000000003
   331   1      5.0200000000000031      18.824999999999999      33.885000000000005
   332   1      6.2750000000000021                   17.57      33.885000000000005
   333   1      6.2750000000000021      18.824999999999999      32.630000000000003
   334   1      5.0200000000000031                   17.57      35.140000000000001
   335   1      5.0200000000000031      18.824999999999999      36.395000000000003
   336   1      6.2750000000000021                   17.57      36.395000000000003
   337   1      6.2750000000000021      18.824999999999999      35.140000000000001
   338   1      5.0200000000000031                   17.57      37.649999999999999
   339   1      5.0200000000000031      18.824999999999999      38.905000000000001
   340   1      6.2750000000000021                   17.57      38.905000000000001
   341   1      6.2750000000000021      18.824999999999999      37.649999999999999
   342   1      6.2750000000000021                   17.57      41.414999999999999
   343   1      6.2750000000000021      18.824999999999999      40.159999999999997
   344   1      6.2750000000000021      18.824999999999999      42.669999999999995
   345   1      6.2750000000000021      20.079999999999998      16.315000000000001
   346   1      6.2750000000000021      21.334999999999997      15.060000000000004
   347   1      5.0200000000000031      21.334999999999997      18.824999999999999
   348   1      6.2750000000000021      20.079999999999998      18.824999999999999
   349   1      6.2750000000000021      21.334999999999997                   17.57
   350   1      5.0200000000000031      20.079999999999998      20.079999999999998
   351   1      5.0200000000000031      21.334999999999997      21.334999999999997
   352   1      6.2750000000000021      20.079999999999998      21.334999999999997
   353   1      6.2750000000000021      21.334999999999997      20.079999999999998
   354   1      5.0200000000000031      20.079999999999998                   22.59
   355   1      5.0200000000000031      21.334999999999997      23.844999999999999
   356   1      6.2750000000000021      20.079999999999998      23.844999999999999
   357   1      6.2750000000000021      21.334999999999997                   22.59
   358   1      5.0200000000000031      20.079999999999998      25.100000000000001