model_files/PtCu/PtCu_30000/PtCu_433/PtCu_433_fcc_30337_temp.data (written by ASE) 

30337 	 atoms 
2  atom types
0.0                     125  xlo xhi
0.0                     125  ylo yhi
0.0                     125  zlo zhi


Atoms 

     1   1      1.9249999999999901       59.67499999999999      61.599999999999994
     2   1      1.9249999999999901      61.599999999999994       59.67499999999999
     3   1      124.99999999999999      61.599999999999994      61.599999999999994
     4   1      1.9249999999999901      61.599999999999994      63.524999999999999
     5   1      1.9249999999999901      63.524999999999999      61.599999999999994
     6   1      5.7749999999999924      55.824999999999996      61.599999999999994
     7   1      3.8499999999999943       59.67499999999999       59.67499999999999
     8   1      5.7749999999999924      57.749999999999993       59.67499999999999
     9   1      5.7749999999999924       59.67499999999999      57.749999999999993
    10   1      3.8499999999999943      57.749999999999993      61.599999999999994
    11   1      3.8499999999999943       59.67499999999999      63.524999999999999
    12   1      5.7749999999999924      57.749999999999993      63.524999999999999
    13   1      5.7749999999999924       59.67499999999999      61.599999999999994
    14   1      5.7749999999999924       59.67499999999999      65.449999999999989
    15   1      5.7749999999999924      61.599999999999994      55.824999999999996
    16   1      3.8499999999999943      61.599999999999994      57.749999999999993
    17   1      3.8499999999999943      63.524999999999999       59.67499999999999
    18   1      5.7749999999999924      61.599999999999994       59.67499999999999
    19   1      5.7749999999999924      63.524999999999999      57.749999999999993
    20   1      3.8499999999999943      61.599999999999994      61.599999999999994
    21   1      3.8499999999999943      63.524999999999999      63.524999999999999
    22   1      5.7749999999999924      61.599999999999994      63.524999999999999
    23   1      5.7749999999999924      63.524999999999999      61.599999999999994
    24   1      3.8499999999999943      61.599999999999994      65.449999999999989
    25   1      5.7749999999999924      61.599999999999994      67.374999999999986
    26   1      5.7749999999999924      63.524999999999999      65.449999999999989
    27   1      5.7749999999999924      65.449999999999989       59.67499999999999
    28   1      3.8499999999999943      65.449999999999989      61.599999999999994
    29   1      5.7749999999999924      65.449999999999989      63.524999999999999
    30   1      5.7749999999999924      67.374999999999986      61.599999999999994
    31   1      9.6249999999999929      51.974999999999987      61.599999999999994
    32   1      7.6999999999999886      55.824999999999996       59.67499999999999
    33   1      9.6249999999999929      53.899999999999991       59.67499999999999
    34   1      9.6249999999999929      55.824999999999996      57.749999999999993
    35   1      7.6999999999999886      53.899999999999991      61.599999999999994
    36   1      7.6999999999999886      55.824999999999996      63.524999999999999
    37   1      9.6249999999999929      53.899999999999991      63.524999999999999
    38   1      9.6249999999999929      55.824999999999996      61.599999999999994
    39   1      9.6249999999999929      55.824999999999996      65.449999999999989
    40   1      7.6999999999999886       59.67499999999999      55.824999999999996
    41   1      9.6249999999999929      57.749999999999993      55.824999999999996
    42   1      9.6249999999999929       59.67499999999999      53.899999999999991
    43   1      7.6999999999999886      57.749999999999993      57.749999999999993
    44   1      7.6999999999999886       59.67499999999999       59.67499999999999
    45   1      9.6249999999999929      57.749999999999993       59.67499999999999
    46   1      9.6249999999999929       59.67499999999999      57.749999999999993
    47   1      7.6999999999999886      57.749999999999993      61.599999999999994
    48   1      7.6999999999999886       59.67499999999999      63.524999999999999
    49   1      9.6249999999999929      57.749999999999993      63.524999999999999
    50   1      9.6249999999999929       59.67499999999999      61.599999999999994
    51   1      7.6999999999999886      57.749999999999993      65.449999999999989
    52   1      7.6999999999999886       59.67499999999999      67.374999999999986
    53   1      9.6249999999999929      57.749999999999993      67.374999999999986
    54   1      9.6249999999999929       59.67499999999999      65.449999999999989
    55   1      9.6249999999999929       59.67499999999999      69.299999999999997
    56   1      9.6249999999999929      61.599999999999994      51.974999999999987
    57   1      7.6999999999999886      61.599999999999994      53.899999999999991
    58   1      7.6999999999999886      63.524999999999999      55.824999999999996
    59   1      9.6249999999999929      61.599999999999994      55.824999999999996
    60   1      9.6249999999999929      63.524999999999999      53.899999999999991
    61   1      7.6999999999999886      61.599999999999994      57.749999999999993
    62   1      7.6999999999999886      63.524999999999999       59.67499999999999
    63   1      9.6249999999999929      61.599999999999994       59.67499999999999
    64   1      9.6249999999999929      63.524999999999999      57.749999999999993
    65   1      7.6999999999999886      61.599999999999994      61.599999999999994
    66   1      7.6999999999999886      63.524999999999999      63.524999999999999
    67   1      9.6249999999999929      61.599999999999994      63.524999999999999
    68   1      9.6249999999999929      63.524999999999999      61.599999999999994
    69   1      7.6999999999999886      61.599999999999994      65.449999999999989
    70   1      7.6999999999999886      63.524999999999999      67.374999999999986
    71   1      9.6249999999999929      61.599999999999994      67.374999999999986
    72   1      9.6249999999999929      63.524999999999999      65.449999999999989
    73   1      7.6999999999999886      61.599999999999994      69.299999999999997
    74   1      9.6249999999999929      61.599999999999994      71.224999999999994
    75   1      9.6249999999999929      63.524999999999999      69.299999999999997
    76   1      9.6249999999999929      65.449999999999989      55.824999999999996
    77   1      7.6999999999999886      65.449999999999989      57.749999999999993
    78   1      7.6999999999999886      67.374999999999986       59.67499999999999
    79   1      9.6249999999999929      65.449999999999989       59.67499999999999
    80   1      9.6249999999999929      67.374999999999986      57.749999999999993
    81   1      7.6999999999999886      65.449999999999989      61.599999999999994
    82   1      7.6999999999999886      67.374999999999986      63.524999999999999
    83   1      9.6249999999999929      65.449999999999989      63.524999999999999
    84   1      9.6249999999999929      67.374999999999986      61.599999999999994
    85   1      7.6999999999999886      65.449999999999989      65.449999999999989
    86   1      9.6249999999999929      65.449999999999989      67.374999999999986
    87   1      9.6249999999999929      67.374999999999986      65.449999999999989
    88   1      9.6249999999999929      69.299999999999997       59.67499999999999
    89   1      7.6999999999999886      69.299999999999997      61.599999999999994
    90   1      9.6249999999999929      69.299999999999997      63.524999999999999
    91   1      9.6249999999999929      71.224999999999994      61.599999999999994
    92   1      13.474999999999994      44.274999999999991      61.599999999999994
    93   1       11.54999999999999      48.124999999999993       59.67499999999999
    94   1      13.474999999999994      46.199999999999996       59.67499999999999
    95   1      13.474999999999994      48.124999999999993      57.749999999999993
    96   1       11.54999999999999      46.199999999999996      61.599999999999994
    97   1       11.54999999999999      48.124999999999993      63.524999999999999
    98   1      13.474999999999994      46.199999999999996      63.524999999999999
    99   1      13.474999999999994      48.124999999999993      61.599999999999994
   100   1      13.474999999999994      48.124999999999993      65.449999999999989
   101   1       11.54999999999999      51.974999999999987      55.824999999999996
   102   1      13.474999999999994       50.04999999999999      55.824999999999996
   103   1      13.474999999999994      51.974999999999987      53.899999999999991
   104   1       11.54999999999999       50.04999999999999      57.749999999999993
   105   1       11.54999999999999      51.974999999999987       59.67499999999999
   106   1      13.474999999999994       50.04999999999999       59.67499999999999
   107   1      13.474999999999994      51.974999999999987      57.749999999999993
   108   1       11.54999999999999       50.04999999999999      61.599999999999994
   109   1       11.54999999999999      51.974999999999987      63.524999999999999
   110   1      13.474999999999994       50.04999999999999      63.524999999999999
   111   1      13.474999999999994      51.974999999999987      61.599999999999994
   112   1       11.54999999999999       50.04999999999999      65.449999999999989
   113   1       11.54999999999999      51.974999999999987      67.374999999999986
   114   1      13.474999999999994       50.04999999999999      67.374999999999986
   115   1      13.474999999999994      51.974999999999987      65.449999999999989
   116   1      13.474999999999994      51.974999999999987      69.299999999999997
   117   1       11.54999999999999      55.824999999999996      51.974999999999987
   118   1      13.474999999999994      53.899999999999991      51.974999999999987
   119   1      13.474999999999994      55.824999999999996       50.04999999999999
   120   1       11.54999999999999      53.899999999999991      53.899999999999991
   121   1       11.54999999999999      55.824999999999996      55.824999999999996
   122   1      13.474999999999994      53.899999999999991      55.824999999999996
   123   1      13.474999999999994      55.824999999999996      53.899999999999991
   124   1       11.54999999999999      53.899999999999991      57.749999999999993
   125   1       11.54999999999999      55.824999999999996       59.67499999999999
   126   1      13.474999999999994      53.899999999999991       59.67499999999999
   127   1      13.474999999999994      55.824999999999996      57.749999999999993
   128   1       11.54999999999999      53.899999999999991      61.599999999999994
   129   1       11.54999999999999      55.824999999999996      63.524999999999999
   130   1      13.474999999999994      53.899999999999991      63.524999999999999
   131   1      13.474999999999994      55.824999999999996      61.599999999999994
   132   1       11.54999999999999      53.899999999999991      65.449999999999989
   133   1       11.54999999999999      55.824999999999996      67.374999999999986
   134   1      13.474999999999994      53.899999999999991      67.374999999999986
   135   1      13.474999999999994      55.824999999999996      65.449999999999989
   136   1       11.54999999999999      53.899999999999991      69.299999999999997
   137   1       11.54999999999999      55.824999999999996      71.224999999999994
   138   1      13.474999999999994      53.899999999999991      71.224999999999994
   139   1      13.474999999999994      55.824999999999996      69.299999999999997
   140   1      13.474999999999994      55.824999999999996      73.149999999999991
   141   1       11.54999999999999       59.67499999999999      48.124999999999993
   142   1      13.474999999999994      57.749999999999993      48.124999999999993
   143   1      13.474999999999994       59.67499999999999      46.199999999999996
   144   1       11.54999999999999      57.749999999999993       50.04999999999999
   145   1       11.54999999999999       59.67499999999999      51.974999999999987
   146   1      13.474999999999994      57.749999999999993      51.974999999999987
   147   1      13.474999999999994       59.67499999999999       50.04999999999999
   148   1       11.54999999999999      57.749999999999993      53.899999999999991
   149   1       11.54999999999999       59.67499999999999      55.824999999999996
   150   1      13.474999999999994      57.749999999999993      55.824999999999996
   151   1      13.474999999999994       59.67499999999999      53.899999999999991
   152   1       11.54999999999999      57.749999999999993      57.749999999999993
   153   1       11.54999999999999       59.67499999999999       59.67499999999999
   154   1      13.474999999999994      57.749999999999993       59.67499999999999
   155   1      13.474999999999994       59.67499999999999      57.749999999999993
   156   1       11.54999999999999      57.749999999999993      61.599999999999994
   157   1       11.54999999999999       59.67499999999999      63.524999999999999
   158   1      13.474999999999994      57.749999999999993      63.524999999999999
   159   1      13.474999999999994       59.67499999999999      61.599999999999994
   160   1       11.54999999999999      57.749999999999993      65.449999999999989
   161   1       11.54999999999999       59.67499999999999      67.374999999999986
   162   1      13.474999999999994      57.749999999999993      67.374999999999986
   163   1      13.474999999999994       59.67499999999999      65.449999999999989
   164   1       11.54999999999999      57.749999999999993      69.299999999999997
   165   1       11.54999999999999       59.67499999999999      71.224999999999994
   166   1      13.474999999999994      57.749999999999993      71.224999999999994
   167   1      13.474999999999994       59.67499999999999      69.299999999999997
   168   1       11.54999999999999      57.749999999999993      73.149999999999991
   169   1       11.54999999999999       59.67499999999999      75.074999999999989
   170   1      13.474999999999994      57.749999999999993      75.074999999999989
   171   1      13.474999999999994       59.67499999999999      73.149999999999991
   172   1      13.474999999999994       59.67499999999999                      77
   173   1      13.474999999999994      61.599999999999994      44.274999999999991
   174   1       11.54999999999999      61.599999999999994      46.199999999999996
   175   1       11.54999999999999      63.524999999999999      48.124999999999993
   176   1      13.474999999999994      61.599999999999994      48.124999999999993
   177   1      13.474999999999994      63.524999999999999      46.199999999999996
   178   1       11.54999999999999      61.599999999999994       50.04999999999999
   179   1       11.54999999999999      63.524999999999999      51.974999999999987
   180   1      13.474999999999994      61.599999999999994      51.974999999999987
   181   1      13.474999999999994      63.524999999999999       50.04999999999999
   182   1       11.54999999999999      61.599999999999994      53.899999999999991
   183   1       11.54999999999999      63.524999999999999      55.824999999999996
   184   1      13.474999999999994      61.599999999999994      55.824999999999996
   185   1      13.474999999999994      63.524999999999999      53.899999999999991
   186   1       11.54999999999999      61.599999999999994      57.749999999999993
   187   1       11.54999999999999      63.524999999999999       59.67499999999999
   188   1      13.474999999999994      61.599999999999994       59.67499999999999
   189   1      13.474999999999994      63.524999999999999      57.749999999999993
   190   1       11.54999999999999      61.599999999999994      61.599999999999994
   191   1       11.54999999999999      63.524999999999999      63.524999999999999
   192   1      13.474999999999994      61.599999999999994      63.524999999999999
   193   1      13.474999999999994      63.524999999999999      61.599999999999994
   194   1       11.54999999999999      61.599999999999994      65.449999999999989
   195   1       11.54999999999999      63.524999999999999      67.374999999999986
   196   1      13.474999999999994      61.599999999999994      67.374999999999986
   197   1      13.474999999999994      63.524999999999999      65.449999999999989
   198   1       11.54999999999999      61.599999999999994      69.299999999999997
   199   1       11.54999999999999      63.524999999999999      71.224999999999994
   200   1      13.474999999999994      61.599999999999994      71.224999999999994
   201   1      13.474999999999994      63.524999999999999      69.299999999999997
   202   1       11.54999999999999      61.599999999999994      73.149999999999991
   203   1       11.54999999999999      63.524999999999999      75.074999999999989
   204   1      13.474999999999994      61.599999999999994      75.074999999999989
   205   1      13.474999999999994      63.524999999999999      73.149999999999991
   206   1       11.54999999999999      61.599999999999994                      77
   207   1      13.474999999999994      61.599999999999994      78.924999999999997
   208   1      13.474999999999994      63.524999999999999                      77
   209   1      13.474999999999994      65.449999999999989      48.124999999999993
   210   1       11.54999999999999      65.449999999999989       50.04999999999999
   211   1       11.54999999999999      67.374999999999986      51.974999999999987
   212   1      13.474999999999994      65.449999999999989      51.974999999999987
   213   1      13.474999999999994      67.374999999999986       50.04999999999999
   214   1       11.54999999999999      65.449999999999989      53.899999999999991
   215   1       11.54999999999999      67.374999999999986      55.824999999999996
   216   1      13.474999999999994      65.449999999999989      55.824999999999996
   217   1      13.474999999999994      67.374999999999986      53.899999999999991
   218   1       11.54999999999999      65.449999999999989      57.749999999999993
   219   1       11.54999999999999      67.374999999999986       59.67499999999999
   220   1      13.474999999999994      65.449999999999989       59.67499999999999
   221   1      13.474999999999994      67.374999999999986      57.749999999999993
   222   1       11.54999999999999      65.449999999999989      61.599999999999994
   223   1       11.54999999999999      67.374999999999986      63.524999999999999
   224   1      13.474999999999994      65.449999999999989      63.524999999999999
   225   1      13.474999999999994      67.374999999999986      61.599999999999994
   226   1       11.54999999999999      65.449999999999989      65.449999999999989
   227   1       11.54999999999999      67.374999999999986      67.374999999999986
   228   1      13.474999999999994      65.449999999999989      67.374999999999986
   229   1      13.474999999999994      67.374999999999986      65.449999999999989
   230   1       11.54999999999999      65.449999999999989      69.299999999999997
   231   1       11.54999999999999      67.374999999999986      71.224999999999994
   232   1      13.474999999999994      65.449999999999989      71.224999999999994
   233   1      13.474999999999994      67.374999999999986      69.299999999999997
   234   1       11.54999999999999      65.449999999999989      73.149999999999991
   235   1      13.474999999999994      65.449999999999989      75.074999999999989
   236   1      13.474999999999994      67.374999999999986      73.149999999999991
   237   1      13.474999999999994      69.299999999999997      51.974999999999987
   238   1       11.54999999999999      69.299999999999997      53.899999999999991
   239   1       11.54999999999999      71.224999999999994      55.824999999999996
   240   1      13.474999999999994      69.299999999999997      55.824999999999996
   241   1      13.474999999999994      71.224999999999994      53.899999999999991
   242   1       11.54999999999999      69.299999999999997      57.749999999999993
   243   1       11.54999999999999      71.224999999999994       59.67499999999999
   244   1      13.474999999999994      69.299999999999997       59.67499999999999
   245   1      13.474999999999994      71.224999999999994      57.749999999999993
   246   1       11.54999999999999      69.299999999999997      61.599999999999994
   247   1       11.54999999999999      71.224999999999994      63.524999999999999
   248   1      13.474999999999994      69.299999999999997      63.524999999999999
   249   1      13.474999999999994      71.224999999999994      61.599999999999994
   250   1       11.54999999999999      69.299999999999997      65.449999999999989
   251   1       11.54999999999999      71.224999999999994      67.374999999999986
   252   1      13.474999999999994      69.299999999999997      67.374999999999986
   253   1      13.474999999999994      71.224999999999994      65.449999999999989
   254   1       11.54999999999999      69.299999999999997      69.299999999999997
   255   1      13.474999999999994      69.299999999999997      71.224999999999994
   256   1      13.474999999999994      71.224999999999994      69.299999999999997
   257   1      13.474999999999994      73.149999999999991      55.824999999999996
   258   1       11.54999999999999      73.149999999999991      57.749999999999993
   259   1       11.54999999999999      75.074999999999989       59.67499999999999
   260   1      13.474999999999994      73.149999999999991       59.67499999999999
   261   1      13.474999999999994      75.074999999999989      57.749999999999993
   262   1       11.54999999999999      73.149999999999991      61.599999999999994
   263   1       11.54999999999999      75.074999999999989      63.524999999999999
   264   1      13.474999999999994      73.149999999999991      63.524999999999999
   265   1      13.474999999999994      75.074999999999989      61.599999999999994
   266   1       11.54999999999999      73.149999999999991      65.449999999999989
   267   1      13.474999999999994      73.149999999999991      67.374999999999986
   268   1      13.474999999999994      75.074999999999989      65.449999999999989
   269   1      13.474999999999994                      77       59.67499999999999
   270   1       11.54999999999999                      77      61.599999999999994
   271   1      13.474999999999994                      77      63.524999999999999
   272   1      13.474999999999994      78.924999999999997      61.599999999999994
   273   1      17.324999999999989       40.42499999999999      61.599999999999994
   274   1      15.399999999999991      44.274999999999991       59.67499999999999
   275   1      17.324999999999989      42.349999999999994       59.67499999999999
   276   1      17.324999999999989      44.274999999999991      57.749999999999993
   277   1      15.399999999999991      42.349999999999994      61.599999999999994
   278   1      15.399999999999991      44.274999999999991      63.524999999999999
   279   1      17.324999999999989      42.349999999999994      63.524999999999999
   280   1      17.324999999999989      44.274999999999991      61.599999999999994
   281   1      17.324999999999989      44.274999999999991      65.449999999999989
   282   1      15.399999999999991      48.124999999999993      55.824999999999996
   283   1      17.324999999999989      46.199999999999996      55.824999999999996
   284   1      17.324999999999989      48.124999999999993      53.899999999999991
   285   1      15.399999999999991      46.199999999999996      57.749999999999993
   286   1      15.399999999999991      48.124999999999993       59.67499999999999
   287   1      17.324999999999989      46.199999999999996       59.67499999999999
   288   1      17.324999999999989      48.124999999999993      57.749999999999993
   289   1      15.399999999999991      46.199999999999996      61.599999999999994
   290   1      15.399999999999991      48.124999999999993      63.524999999999999
   291   1      17.324999999999989      46.199999999999996      63.524999999999999
   292   1      17.324999999999989      48.124999999999993      61.599999999999994
   293   1      15.399999999999991      46.199999999999996      65.449999999999989
   294   1      15.399999999999991      48.124999999999993      67.374999999999986
   295   1      17.324999999999989      46.199999999999996      67.374999999999986
   296   1      17.324999999999989      48.124999999999993      65.449999999999989
   297   1      17.324999999999989      48.124999999999993      69.299999999999997
   298   1      15.399999999999991      51.974999999999987      51.974999999999987
   299   1      17.324999999999989       50.04999999999999      51.974999999999987
   300   1      17.324999999999989      51.974999999999987       50.04999999999999
   301   1      15.399999999999991       50.04999999999999      53.899999999999991
   302   1      15.399999999999991      51.974999999999987      55.824999999999996
   303   1      17.324999999999989       50.04999999999999      55.824999999999996
   304   1      17.324999999999989      51.974999999999987      53.899999999999991
   305   1      15.399999999999991       50.04999999999999      57.749999999999993
   306   1      15.399999999999991      51.974999999999987       59.67499999999999
   307   1      17.324999999999989       50.04999999999999       59.67499999999999
   308   1      17.324999999999989      51.974999999999987      57.749999999999993
   309   1      15.399999999999991       50.04999999999999      61.599999999999994
   310   1      15.399999999999991      51.974999999999987      63.524999999999999
   311   1      17.324999999999989       50.04999999999999      63.524999999999999
   312   1      17.324999999999989      51.974999999999987      61.599999999999994
   313   1      15.399999999999991       50.04999999999999      65.449999999999989
   314   1      15.399999999999991      51.974999999999987      67.374999999999986
   315   1      17.324999999999989       50.04999999999999      67.374999999999986
   316   1      17.324999999999989      51.974999999999987      65.449999999999989
   317   1      15.399999999999991       50.04999999999999      69.299999999999997
   318   1      15.399999999999991      51.974999999999987      71.224999999999994
   319   1      17.324999999999989       50.04999999999999      71.224999999999994
   320   1      17.324999999999989      51.974999999999987      69.299999999999997
   321   1      17.324999999999989      51.974999999999987      73.149999999999991
   322   1      15.399999999999991      55.824999999999996      48.124999999999993
   323   1      17.324999999999989      53.899999999999991      48.124999999999993
   324   1      17.324999999999989      55.824999999999996      46.199999999999996
   325   1      15.399999999999991      53.899999999999991       50.04999999999999
   326   1      15.399999999999991      55.824999999999996      51.974999999999987
   327   1      17.324999999999989      53.899999999999991      51.974999999999987
   328   1      17.324999999999989      55.824999999999996       50.04999999999999
   329   1      15.399999999999991      53.899999999999991      53.899999999999991
   330   1      15.399999999999991      55.824999999999996      55.824999999999996
   331   1      17.324999999999989      53.899999999999991      55.824999999999996
   332   1      17.324999999999989      55.824999999999996      53.899999999999991
   333   1      15.399999999999991      53.899999999999991      57.749999999999993
   334   1      15.399999999999991      55.824999999999996       59.67499999999999
   335   1      17.324999999999989      53.899999999999991       59.67499999999999
   336   1      17.324999999999989      55.824999999999996      57.749999999999993
   337   1      15.399999999999991      53.899999999999991      61.599999999999994
   338   1      15.399999999999991      55.824999999999996      63.524999999999999
   339   1      17.324999999999989      53.899999999999991      63.524999999999999
   340   1      17.324999999999989      55.824999999999996      61.599999999999994
   341   1      15.399999999999991      53.899999999999991      65.449999999999989
   342   1      15.399999999999991      55.824999999999996      67.374999999999986
   343   1      17.324999999999989      53.899999999999991      67.374999999999986
   344   1      17.324999999999989      55.824999999999996      65.449999999999989
   345   1      15.399999999999991      53.899999999999991      69.299999999999997
   346   1      15.399999999999991      55.824999999999996      71.224999999999994
   347   1      17.324999999999989      53.899999999999991      71.224999999999994
   348   1      17.324999999999989      55.824999999999996      69.299999999999997
   349   1      15.399999999999991      53.899999999999991      73.149999999999991
   350   1      15.399999999999991      55.824999999999996      75.074999999999989
   351   1      17.324999999999989      53.899999999999991      75.074999999999989
   352   1      17.324999999999989      55.824999999999996      73.149999999999991
   353   1      17.324999999999989      55.824999999999996                      77
   354   1      15.399999999999991       59.67499999999999      44.274999999999991
   355   1      17.324999999999989      57.749999999999993      44.274999999999991
   356   1      17.324999999999989       59.67499999999999      42.349999999999994
   357   1      15.399999999999991      57.749999999999993      46.199999999999996
   358   1      15.399999999999991       59.67499999999999      48.124999999999993