LAMMPS data file via write_data, version 30 Nov 2020, timestep = 0

29909 atoms
5 atom types

0 103 xlo xhi
0 103 ylo yhi
0 103 zlo zhi

Masses

1 58.7
2 55.8
3 52
4 59
5 26

Atoms # atomic

1 4 1.8049999999999995 48.73499999999999 50.54 0 0 0
2 5 1.8049999999999995 50.54 48.73499999999999 0 0 0
3 2 0 50.54 50.54 0 0 0
6 1 3.609999999999999 45.125 45.125 0 0 0
7 4 5.414999999999999 43.31999999999999 45.125 0 0 0
8 4 5.414999999999999 45.125 43.31999999999999 0 0 0
9 2 3.609999999999999 45.125 48.73499999999999 0 0 0
10 1 5.414999999999999 43.31999999999999 48.73499999999999 0 0 0
11 3 5.414999999999999 45.125 46.92999999999999 0 0 0
14 2 5.414999999999999 45.125 50.54 0 0 0
19 5 3.609999999999999 48.73499999999999 45.125 0 0 0
20 2 5.414999999999999 46.92999999999999 45.125 0 0 0
21 4 5.414999999999999 48.73499999999999 43.31999999999999 0 0 0
22 4 3.609999999999999 46.92999999999999 46.92999999999999 0 0 0
23 2 3.609999999999999 48.73499999999999 48.73499999999999 0 0 0
24 2 5.414999999999999 46.92999999999999 48.73499999999999 0 0 0
25 5 5.414999999999999 48.73499999999999 46.92999999999999 0 0 0
26 1 3.609999999999999 46.92999999999999 50.54 0 0 0
29 1 5.414999999999999 48.73499999999999 50.54 0 0 0
36 3 5.414999999999999 50.54 45.125 0 0 0
38 4 3.609999999999999 50.54 46.92999999999999 0 0 0
40 4 5.414999999999999 50.54 48.73499999999999 0 0 0
42 2 3.609999999999999 50.54 50.54 0 0 0
71 2 9.024999999999997 37.904999999999994 39.71 0 0 0
72 4 9.024999999999997 37.904999999999994 43.31999999999999 0 0 0
73 1 9.024999999999997 37.904999999999994 46.92999999999999 0 0 0
74 4 9.024999999999997 37.904999999999994 50.54 0 0 0
78 1 9.024999999999997 39.71 37.904999999999994 0 0 0
79 5 7.219999999999998 41.515 41.515 0 0 0
80 3 9.024999999999997 39.71 41.515 0 0 0
81 1 9.024999999999997 41.515 39.71 0 0 0
82 1 7.219999999999998 41.515 45.125 0 0 0
83 4 9.024999999999997 39.71 45.125 0 0 0
84 5 9.024999999999997 41.515 43.31999999999999 0 0 0
85 3 7.219999999999998 41.515 48.73499999999999 0 0 0
86 4 9.024999999999997 39.71 48.73499999999999 0 0 0
87 5 9.024999999999997 41.515 46.92999999999999 0 0 0
90 5 9.024999999999997 41.515 50.54 0 0 0
99 4 9.024999999999997 43.31999999999999 37.904999999999994 0 0 0
100 2 7.219999999999998 45.125 41.515 0 0 0
101 4 9.024999999999997 43.31999999999999 41.515 0 0 0
102 2 9.024999999999997 45.125 39.71 0 0 0
103 3 7.219999999999998 43.31999999999999 43.31999999999999 0 0 0
104 5 7.219999999999998 45.125 45.125 0 0 0
105 2 9.024999999999997 43.31999999999999 45.125 0 0 0
106 5 9.024999999999997 45.125 43.31999999999999 0 0 0
107 4 7.219999999999998 43.31999999999999 46.92999999999999 0 0 0
108 4 7.219999999999998 45.125 48.73499999999999 0 0 0
109 4 9.024999999999997 43.31999999999999 48.73499999999999 0 0 0
110 3 9.024999999999997 45.125 46.92999999999999 0 0 0
111 5 7.219999999999998 43.31999999999999 50.54 0 0 0
114 3 9.024999999999997 45.125 50.54 0 0 0
125 2 9.024999999999997 46.92999999999999 37.904999999999994 0 0 0
126 5 7.219999999999998 48.73499999999999 41.515 0 0 0
127 5 9.024999999999997 46.92999999999999 41.515 0 0 0
128 4 9.024999999999997 48.73499999999999 39.71 0 0 0
129 5 7.219999999999998 46.92999999999999 43.31999999999999 0 0 0
130 3 7.219999999999998 48.73499999999999 45.125 0 0 0
131 5 9.024999999999997 46.92999999999999 45.125 0 0 0
132 2 9.024999999999997 48.73499999999999 43.31999999999999 0 0 0
133 2 7.219999999999998 46.92999999999999 46.92999999999999 0 0 0
134 2 7.219999999999998 48.73499999999999 48.73499999999999 0 0 0
135 5 9.024999999999997 46.92999999999999 48.73499999999999 0 0 0
136 4 9.024999999999997 48.73499999999999 46.92999999999999 0 0 0
137 3 7.219999999999998 46.92999999999999 50.54 0 0 0
140 2 9.024999999999997 48.73499999999999 50.54 0 0 0
151 1 9.024999999999997 50.54 37.904999999999994 0 0 0
153 4 9.024999999999997 50.54 41.515 0 0 0
155 1 7.219999999999998 50.54 43.31999999999999 0 0 0
157 4 9.024999999999997 50.54 45.125 0 0 0
159 3 7.219999999999998 50.54 46.92999999999999 0 0 0
161 2 9.024999999999997 50.54 48.73499999999999 0 0 0
163 2 7.219999999999998 50.54 50.54 0 0 0
244 3 12.634999999999996 34.295 36.1 0 0 0
245 2 12.634999999999996 34.295 39.71 0 0 0
246 1 12.634999999999996 34.295 43.31999999999999 0 0 0
247 2 12.634999999999996 34.295 46.92999999999999 0 0 0
248 4 12.634999999999996 34.295 50.54 0 0 0
253 5 12.634999999999996 36.1 34.295 0 0 0
254 1 10.829999999999998 36.1 36.1 0 0 0
255 2 10.829999999999998 37.904999999999994 37.904999999999994 0 0 0
256 1 12.634999999999996 36.1 37.904999999999994 0 0 0
257 4 12.634999999999996 37.904999999999994 36.1 0 0 0
258 5 10.829999999999998 36.1 39.71 0 0 0
259 3 10.829999999999998 37.904999999999994 41.515 0 0 0
260 3 12.634999999999996 36.1 41.515 0 0 0
261 1 12.634999999999996 37.904999999999994 39.71 0 0 0
262 4 10.829999999999998 36.1 43.31999999999999 0 0 0
263 2 10.829999999999998 37.904999999999994 45.125 0 0 0
264 2 12.634999999999996 36.1 45.125 0 0 0
265 5 12.634999999999996 37.904999999999994 43.31999999999999 0 0 0
266 3 10.829999999999998 36.1 46.92999999999999 0 0 0
267 1 10.829999999999998 37.904999999999994 48.73499999999999 0 0 0
268 2 12.634999999999996 36.1 48.73499999999999 0 0 0
269 3 12.634999999999996 37.904999999999994 46.92999999999999 0 0 0
270 3 10.829999999999998 36.1 50.54 0 0 0
273 4 12.634999999999996 37.904999999999994 50.54 0 0 0
289 1 12.634999999999996 39.71 34.295 0 0 0
290 3 10.829999999999998 39.71 36.1 0 0 0
291 2 10.829999999999998 41.515 37.904999999999994 0 0 0
292 4 12.634999999999996 39.71 37.904999999999994 0 0 0
293 2 12.634999999999996 41.515 36.1 0 0 0
294 2 10.829999999999998 39.71 39.71 0 0 0
295 5 10.829999999999998 41.515 41.515 0 0 0
296 5 12.634999999999996 39.71 41.515 0 0 0
297 1 12.634999999999996 41.515 39.71 0 0 0
298 1 10.829999999999998 39.71 43.31999999999999 0 0 0
299 2 10.829999999999998 41.515 45.125 0 0 0
300 4 12.634999999999996 39.71 45.125 0 0 0
301 5 12.634999999999996 41.515 43.31999999999999 0 0 0
302 2 10.829999999999998 39.71 46.92999999999999 0 0 0
303 2 10.829999999999998 41.515 48.73499999999999 0 0 0
304 3 12.634999999999996 39.71 48.73499999999999 0 0 0
305 3 12.634999999999996 41.515 46.92999999999999 0 0 0
306 5 10.829999999999998 39.71 50.54 0 0 0
309 2 12.634999999999996 41.515 50.54 0 0 0
325 2 12.634999999999996 43.31999999999999 34.295 0 0 0
326 3 10.829999999999998 43.31999999999999 36.1 0 0 0
327 3 10.829999999999998 45.125 37.904999999999994 0 0 0
328 2 12.634999999999996 43.31999999999999 37.904999999999994 0 0 0
329 3 12.634999999999996 45.125 36.1 0 0 0
330 2 10.829999999999998 43.31999999999999 39.71 0 0 0
331 3 10.829999999999998 45.125 41.515 0 0 0
332 4 12.634999999999996 43.31999999999999 41.515 0 0 0
333 2 12.634999999999996 45.125 39.71 0 0 0
334 3 10.829999999999998 43.31999999999999 43.31999999999999 0 0 0
335 3 10.829999999999998 45.125 45.125 0 0 0
336 5 12.634999999999996 43.31999999999999 45.125 0 0 0
337 5 12.634999999999996 45.125 43.31999999999999 0 0 0
338 3 10.829999999999998 43.31999999999999 46.92999999999999 0 0 0
339 5 10.829999999999998 45.125 48.73499999999999 0 0 0
340 2 12.634999999999996 43.31999999999999 48.73499999999999 0 0 0
341 5 12.634999999999996 45.125 46.92999999999999 0 0 0
342 3 10.829999999999998 43.31999999999999 50.54 0 0 0
345 1 12.634999999999996 45.125 50.54 0 0 0
361 1 12.634999999999996 46.92999999999999 34.295 0 0 0
362 2 10.829999999999998 46.92999999999999 36.1 0 0 0
363 2 10.829999999999998 48.73499999999999 37.904999999999994 0 0 0
364 1 12.634999999999996 46.92999999999999 37.904999999999994 0 0 0
365 1 12.634999999999996 48.73499999999999 36.1 0 0 0
366 5 10.829999999999998 46.92999999999999 39.71 0 0 0
367 1 10.829999999999998 48.73499999999999 41.515 0 0 0
368 4 12.634999999999996 46.92999999999999 41.515 0 0 0
369 5 12.634999999999996 48.73499999999999 39.71 0 0 0
370 2 10.829999999999998 46.92999999999999 43.31999999999999 0 0 0
371 5 10.829999999999998 48.73499999999999 45.125 0 0 0
372 3 12.634999999999996 46.92999999999999 45.125 0 0 0
373 2 12.634999999999996 48.73499999999999 43.31999999999999 0 0 0
374 4 10.829999999999998 46.92999999999999 46.92999999999999 0 0 0
375 1 10.829999999999998 48.73499999999999 48.73499999999999 0 0 0
376 2 12.634999999999996 46.92999999999999 48.73499999999999 0 0 0
377 2 12.634999999999996 48.73499999999999 46.92999999999999 0 0 0
378 4 10.829999999999998 46.92999999999999 50.54 0 0 0
381 1 12.634999999999996 48.73499999999999 50.54 0 0 0
397 1 12.634999999999996 50.54 34.295 0 0 0
398 5 10.829999999999998 50.54 36.1 0 0 0
400 5 12.634999999999996 50.54 37.904999999999994 0 0 0
402 1 10.829999999999998 50.54 39.71 0 0 0
404 3 12.634999999999996 50.54 41.515 0 0 0
406 5 10.829999999999998 50.54 43.31999999999999 0 0 0
408 3 12.634999999999996 50.54 45.125 0 0 0
410 4 10.829999999999998 50.54 46.92999999999999 0 0 0
412 3 12.634999999999996 50.54 48.73499999999999 0 0 0
414 1 10.829999999999998 50.54 50.54 0 0 0
569 4 14.440000000000003 30.685000000000002 30.685000000000002 0 0 0
570 5 16.244999999999994 28.88 30.685000000000002 0 0 0
571 1 16.244999999999994 30.685000000000002 28.88 0 0 0
572 4 14.440000000000003 30.685000000000002 34.295 0 0 0
573 1 16.244999999999994 28.88 34.295 0 0 0
574 2 16.244999999999994 30.685000000000002 32.489999999999995 0 0 0
575 2 14.440000000000003 30.685000000000002 37.904999999999994 0 0 0
576 4 16.244999999999994 28.88 37.904999999999994 0 0 0
577 3 16.244999999999994 30.685000000000002 36.1 0 0 0
578 4 14.440000000000003 30.685000000000002 41.515 0 0 0
579 4 16.244999999999994 28.88 41.515 0 0 0
580 2 16.244999999999994 30.685000000000002 39.71 0 0 0
581 5 14.440000000000003 30.685000000000002 45.125 0 0 0
582 4 16.244999999999994 28.88 45.125 0 0 0
583 1 16.244999999999994 30.685000000000002 43.31999999999999 0 0 0
584 3 14.440000000000003 30.685000000000002 48.73499999999999 0 0 0
585 4 16.244999999999994 28.88 48.73499999999999 0 0 0
586 5 16.244999999999994 30.685000000000002 46.92999999999999 0 0 0
589 1 16.244999999999994 30.685000000000002 50.54 0 0 0
606 1 14.440000000000003 34.295 30.685000000000002 0 0 0
607 5 16.244999999999994 32.489999999999995 30.685000000000002 0 0 0
608 1 16.244999999999994 34.295 28.88 0 0 0
609 3 14.440000000000003 32.489999999999995 32.489999999999995 0 0 0
610 2 14.440000000000003 34.295 34.295 0 0 0
611 5 16.244999999999994 32.489999999999995 34.295 0 0 0
612 1 16.244999999999994 34.295 32.489999999999995 0 0 0
613 1 14.440000000000003 32.489999999999995 36.1 0 0 0
614 2 14.440000000000003 34.295 37.904999999999994 0 0 0
615 4 16.244999999999994 32.489999999999995 37.904999999999994 0 0 0
616 1 16.244999999999994 34.295 36.1 0 0 0
617 2 14.440000000000003 32.489999999999995 39.71 0 0 0
618 2 14.440000000000003 34.295 41.515 0 0 0
619 4 16.244999999999994 32.489999999999995 41.515 0 0 0
620 1 16.244999999999994 34.295 39.71 0 0 0
621 3 14.440000000000003 32.489999999999995 43.31999999999999 0 0 0
622 3 14.440000000000003 34.295 45.125 0 0 0
623 1 16.244999999999994 32.489999999999995 45.125 0 0 0
624 5 16.244999999999994 34.295 43.31999999999999 0 0 0
625 5 14.440000000000003 32.489999999999995 46.92999999999999 0 0 0
626 2 14.440000000000003 34.295 48.73499999999999 0 0 0
627 4 16.244999999999994 32.489999999999995 48.73499999999999 0 0 0
628 5 16.244999999999994 34.295 46.92999999999999 0 0 0
629 4 14.440000000000003 32.489999999999995 50.54 0 0 0
632 1 16.244999999999994 34.295 50.54 0 0 0
654 3 14.440000000000003 37.904999999999994 30.685000000000002 0 0 0
655 1 16.244999999999994 36.1 30.685000000000002 0 0 0
656 2 16.244999999999994 37.904999999999994 28.88 0 0 0
657 5 14.440000000000003 36.1 32.489999999999995 0 0 0
658 1 14.440000000000003 37.904999999999994 34.295 0 0 0
659 3 16.244999999999994 36.1 34.295 0 0 0
660 1 16.244999999999994 37.904999999999994 32.489999999999995 0 0 0
661 1 14.440000000000003 36.1 36.1 0 0 0
662 2 14.440000000000003 37.904999999999994 37.904999999999994 0 0 0
663 2 16.244999999999994 36.1 37.904999999999994 0 0 0
664 4 16.244999999999994 37.904999999999994 36.1 0 0 0
665 5 14.440000000000003 36.1 39.71 0 0 0
666 2 14.440000000000003 37.904999999999994 41.515 0 0 0
667 3 16.244999999999994 36.1 41.515 0 0 0
668 1 16.244999999999994 37.904999999999994 39.71 0 0 0
669 2 14.440000000000003 36.1 43.31999999999999 0 0 0
670 5 14.440000000000003 37.904999999999994 45.125 0 0 0
671 4 16.244999999999994 36.1 45.125 0 0 0
672 1 16.244999999999994 37.904999999999994 43.31999999999999 0 0 0
673 1 14.440000000000003 36.1 46.92999999999999 0 0 0
674 1 14.440000000000003 37.904999999999994 48.73499999999999 0 0 0
675 1 16.244999999999994 36.1 48.73499999999999 0 0 0
676 4 16.244999999999994 37.904999999999994 46.92999999999999 0 0 0
677 4 14.440000000000003 36.1 50.54 0 0 0
680 4 16.244999999999994 37.904999999999994 50.54 0 0 0
702 2 14.440000000000003 41.515 30.685000000000002 0 0 0
703 2 16.244999999999994 39.71 30.685000000000002 0 0 0
704 2 16.244999999999994 41.515 28.88 0 0 0
705 4 14.440000000000003 39.71 32.489999999999995 0 0 0
706 3 14.440000000000003 41.515 34.295 0 0 0
707 3 16.244999999999994 39.71 34.295 0 0 0
708 2 16.244999999999994 41.515 32.489999999999995 0 0 0
709 1 14.440000000000003 39.71 36.1 0 0 0
710 1 14.440000000000003 41.515 37.904999999999994 0 0 0
711 4 16.244999999999994 39.71 37.904999999999994 0 0 0
712 1 16.244999999999994 41.515 36.1 0 0 0
713 5 14.440000000000003 39.71 39.71 0 0 0
714 4 14.440000000000003 41.515 41.515 0 0 0
715 3 16.244999999999994 39.71 41.515 0 0 0
716 2 16.244999999999994 41.515 39.71 0 0 0
717 1 14.440000000000003 39.71 43.31999999999999 0 0 0
718 3 14.440000000000003 41.515 45.125 0 0 0
719 1 16.244999999999994 39.71 45.125 0 0 0
720 2 16.244999999999994 41.515 43.31999999999999 0 0 0
721 1 14.440000000000003 39.71 46.92999999999999 0 0 0
722 1 14.440000000000003 41.515 48.73499999999999 0 0 0
723 5 16.244999999999994 39.71 48.73499999999999 0 0 0
724 5 16.244999999999994 41.515 46.92999999999999 0 0 0
725 1 14.440000000000003 39.71 50.54 0 0 0
728 3 16.244999999999994 41.515 50.54 0 0 0
750 4 14.440000000000003 45.125 30.685000000000002 0 0 0
751 5 16.244999999999994 43.31999999999999 30.685000000000002 0 0 0
752 2 16.244999999999994 45.125 28.88 0 0 0
753 3 14.440000000000003 43.31999999999999 32.489999999999995 0 0 0
754 4 14.440000000000003 45.125 34.295 0 0 0
755 2 16.244999999999994 43.31999999999999 34.295 0 0 0
756 5 16.244999999999994 45.125 32.489999999999995 0 0 0
757 1 14.440000000000003 43.31999999999999 36.1 0 0 0
758 5 14.440000000000003 45.125 37.904999999999994 0 0 0
759 4 16.244999999999994 43.31999999999999 37.904999999999994 0 0 0
760 4 16.244999999999994 45.125 36.1 0 0 0
761 3 14.440000000000003 43.31999999999999 39.71 0 0 0
762 4 14.440000000000003 45.125 41.515 0 0 0
763 5 16.244999999999994 43.31999999999999 41.515 0 0 0
764 5 16.244999999999994 45.125 39.71 0 0 0
765 2 14.440000000000003 43.31999999999999 43.31999999999999 0 0 0
766 2 14.440000000000003 45.125 45.125 0 0 0
767 5 16.244999999999994 43.31999999999999 45.125 0 0 0
768 5 16.244999999999994 45.125 43.31999999999999 0 0 0
769 1 14.440000000000003 43.31999999999999 46.92999999999999 0 0 0
770 1 14.440000000000003 45.125 48.73499999999999 0 0 0
771 3 16.244999999999994 43.31999999999999 48.73499999999999 0 0 0
772 4 16.244999999999994 45.125 46.92999999999999 0 0 0
773 1 14.440000000000003 43.31999999999999 50.54 0 0 0
776 4 16.244999999999994 45.125 50.54 0 0 0
798 4 14.440000000000003 48.73499999999999 30.685000000000002 0 0 0
799 5 16.244999999999994 46.92999999999999 30.685000000000002 0 0 0
800 1 16.244999999999994 48.73499999999999 28.88 0 0 0
801 1 14.440000000000003 46.92999999999999 32.489999999999995 0 0 0
802 3 14.440000000000003 48.73499999999999 34.295 0 0 0
803 2 16.244999999999994 46.92999999999999 34.295 0 0 0
804 4 16.244999999999994 48.73499999999999 32.489999999999995 0 0 0
805 2 14.440000000000003 46.92999999999999 36.1 0 0 0
806 3 14.440000000000003 48.73499999999999 37.904999999999994 0 0 0
807 5 16.244999999999994 46.92999999999999 37.904999999999994 0 0 0
808 3 16.244999999999994 48.73499999999999 36.1 0 0 0
809 5 14.440000000000003 46.92999999999999 39.71 0 0 0
810 1 14.440000000000003 48.73499999999999 41.515 0 0 0
811 2 16.244999999999994 46.92999999999999 41.515 0 0 0
812 5 16.244999999999994 48.73499999999999 39.71 0 0 0
813 3 14.440000000000003 46.92999999999999 43.31999999999999 0 0 0
814 3 14.440000000000003 48.73499999999999 45.125 0 0 0
815 1 16.244999999999994 46.92999999999999 45.125 0 0 0
816 5 16.244999999999994 48.73499999999999 43.31999999999999 0 0 0
817 1 14.440000000000003 46.92999999999999 46.92999999999999 0 0 0
818 5 14.440000000000003 48.73499999999999 48.73499999999999 0 0 0
819 1 16.244999999999994 46.92999999999999 48.73499999999999 0 0 0
820 1 16.244999999999994 48.73499999999999 46.92999999999999 0 0 0
821 3 14.440000000000003 46.92999999999999 50.54 0 0 0
824 4 16.244999999999994 48.73499999999999 50.54 0 0 0
847 1 16.244999999999994 50.54 30.685000000000002 0 0 0
849 1 14.440000000000003 50.54 32.489999999999995 0 0 0
851 4 16.244999999999994 50.54 34.295 0 0 0
853 1 14.440000000000003 50.54 36.1 0 0 0
855 2 16.244999999999994 50.54 37.904999999999994 0 0 0
857 5 14.440000000000003 50.54 39.71 0 0 0
859 3 16.244999999999994 50.54 41.515 0 0 0
861 4 14.440000000000003 50.54 43.31999999999999 0 0 0
863 2 16.244999999999994 50.54 45.125 0 0 0
865 1 14.440000000000003 50.54 46.92999999999999 0 0 0
867 4 16.244999999999994 50.54 48.73499999999999 0 0 0
869 2 14.440000000000003 50.54 50.54 0 0 0
1146 5 19.855 23.464999999999996 25.27 0 0 0
1147 1 19.855 23.464999999999996 28.88 0 0 0
1148 4 19.855 23.464999999999996 32.489999999999995 0 0 0
1149 5 19.855 23.464999999999996 36.1 0 0 0
1150 1 19.855 23.464999999999996 39.71 0 0 0
1151 2 19.855 23.464999999999996 43.31999999999999 0 0 0
1152 1 19.855 23.464999999999996 46.92999999999999 0 0 0
1153 5 19.855 23.464999999999996 50.54 0 0 0
1161 1 19.855 25.27 23.464999999999996 0 0 0
1162 1 18.050000000000004 27.074999999999996 27.074999999999996 0 0 0
1163 4 19.855 25.27 27.074999999999996 0 0 0
1164 4 19.855 27.074999999999996 25.27 0 0 0
1165 1 18.050000000000004 27.074999999999996 30.685000000000002 0 0 0
1166 1 19.855 25.27 30.685000000000002 0 0 0
1167 4 19.855 27.074999999999996 28.88 0 0 0
1168 1 18.050000000000004 27.074999999999996 34.295 0 0 0
1169 5 19.855 25.27 34.295 0 0 0
1170 1 19.855 27.074999999999996 32.489999999999995 0 0 0
1171 2 18.050000000000004 27.074999999999996 37.904999999999994 0 0 0
1172 2 19.855 25.27 37.904999999999994 0 0 0
1173 1 19.855 27.074999999999996 36.1 0 0 0
1174 2 18.050000000000004 27.074999999999996 41.515 0 0 0
1175 4 19.855 25.27 41.515 0 0 0
1176 5 19.855 27.074999999999996 39.71 0 0 0
1177 3 18.050000000000004 27.074999999999996 45.125 0 0 0
1178 5 19.855 25.27 45.125 0 0 0
1179 3 19.855 27.074999999999996 43.31999999999999 0 0 0
1180 1 18.050000000000004 27.074999999999996 48.73499999999999 0 0 0
1181 2 19.855 25.27 48.73499999999999 0 0 0
1182 2 19.855 27.074999999999996 46.92999999999999 0 0 0
1185 5 19.855 27.074999999999996 50.54 0 0 0
1206 1 19.855 28.88 23.464999999999996 0 0 0
1207 5 18.050000000000004 30.685000000000002 27.074999999999996 0 0 0
1208 4 19.855 28.88 27.074999999999996 0 0 0
1209 1 19.855 30.685000000000002 25.27 0 0 0
1210 5 18.050000000000004 28.88 28.88 0 0 0
1211 5 18.050000000000004 30.685000000000002 30.685000000000002 0 0 0
1212 1 19.855 28.88 30.685000000000002 0 0 0
1213 3 19.855 30.685000000000002 28.88 0 0 0
1214 4 18.050000000000004 28.88 32.489999999999995 0 0 0
1215 4 18.050000000000004 30.685000000000002 34.295 0 0 0
1216 1 19.855 28.88 34.295 0 0 0
1217 3 19.855 30.685000000000002 32.489999999999995 0 0 0
1218 1 18.050000000000004 28.88 36.1 0 0 0
1219 4 18.050000000000004 30.685000000000002 37.904999999999994 0 0 0
1220 5 19.855 28.88 37.904999999999994 0 0 0
1221 3 19.855 30.685000000000002 36.1 0 0 0
1222 1 18.050000000000004 28.88 39.71 0 0 0
1223 2 18.050000000000004 30.685000000000002 41.515 0 0 0
1224 1 19.855 28.88 41.515 0 0 0
1225 2 19.855 30.685000000000002 39.71 0 0 0
1226 5 18.050000000000004 28.88 43.31999999999999 0 0 0
1227 1 18.050000000000004 30.685000000000002 45.125 0 0 0
1228 2 19.855 28.88 45.125 0 0 0
1229 2 19.855 30.685000000000002 43.31999999999999 0 0 0
1230 5 18.050000000000004 28.88 46.92999999999999 0 0 0
1231 3 18.050000000000004 30.685000000000002 48.73499999999999 0 0 0
1232 1 19.855 28.88 48.73499999999999 0 0 0
1233 1 19.855 30.685000000000002 46.92999999999999 0 0 0
1234 2 18.050000000000004 28.88 50.54 0 0 0
1237 5 19.855 30.685000000000002 50.54 0 0 0
1264 1 19.855 32.489999999999995 23.464999999999996 0 0 0
1265 1 18.050000000000004 34.295 27.074999999999996 0 0 0
1266 3 19.855 32.489999999999995 27.074999999999996 0 0 0
1267 4 19.855 34.295 25.27 0 0 0
1268 3 18.050000000000004 32.489999999999995 28.88 0 0 0
1269 4 18.050000000000004 34.295 30.685000000000002 0 0 0
1270 4 19.855 32.489999999999995 30.685000000000002 0 0 0
1271 4 19.855 34.295 28.88 0 0 0
1272 2 18.050000000000004 32.489999999999995 32.489999999999995 0 0 0
1273 2 18.050000000000004 34.295 34.295 0 0 0
1274 1 19.855 32.489999999999995 34.295 0 0 0
1275 5 19.855 34.295 32.489999999999995 0 0 0
1276 4 18.050000000000004 32.489999999999995 36.1 0 0 0
1277 2 18.050000000000004 34.295 37.904999999999994 0 0 0
1278 3 19.855 32.489999999999995 37.904999999999994 0 0 0
1279 1 19.855 34.295 36.1 0 0 0
1280 1 18.050000000000004 32.489999999999995 39.71 0 0 0
1281 1 18.050000000000004 34.295 41.515 0 0 0
1282 2 19.855 32.489999999999995 41.515 0 0 0
1283 5 19.855 34.295 39.71 0 0 0
1284 5 18.050000000000004 32.489999999999995 43.31999999999999 0 0 0
1285 5 18.050000000000004 34.295 45.125 0 0 0
1286 1 19.855 32.489999999999995 45.125 0 0 0
1287 4 19.855 34.295 43.31999999999999 0 0 0
1288 4 18.050000000000004 32.489999999999995 46.92999999999999 0 0 0
1289 4 18.050000000000004 34.295 48.73499999999999 0 0 0
1290 2 19.855 32.489999999999995 48.73499999999999 0 0 0
1291 2 19.855 34.295 46.92999999999999 0 0 0
1292 3 18.050000000000004 32.489999999999995 50.54 0 0 0
1295 1 19.855 34.295 50.54 0 0 0
1322 5 19.855 36.1 23.464999999999996 0 0 0
1323 2 18.050000000000004 37.904999999999994 27.074999999999996 0 0 0
1324 5 19.855 36.1 27.074999999999996 0 0 0
1325 3 19.855 37.904999999999994 25.27 0 0 0
1326 5 18.050000000000004 36.1 28.88 0 0 0
1327 4 18.050000000000004 37.904999999999994 30.685000000000002 0 0 0
1328 1 19.855 36.1 30.685000000000002 0 0 0
1329 5 19.855 37.904999999999994 28.88 0 0 0
1330 2 18.050000000000004 36.1 32.489999999999995 0 0 0
1331 2 18.050000000000004 37.904999999999994 34.295 0 0 0
1332 1 19.855 36.1 34.295 0 0 0
1333 1 19.855 37.904999999999994 32.489999999999995 0 0 0
1334 5 18.050000000000004 36.1 36.1 0 0 0
1335 3 18.050000000000004 37.904999999999994 37.904999999999994 0 0 0
1336 5 19.855 36.1 37.904999999999994 0 0 0
1337 5 19.855 37.904999999999994 36.1 0 0 0
1338 2 18.050000000000004 36.1 39.71 0 0 0
1339 5 18.050000000000004 37.904999999999994 41.515 0 0 0
1340 2 19.855 36.1 41.515 0 0 0
1341 3 19.855 37.904999999999994 39.71 0 0 0
1342 5 18.050000000000004 36.1 43.31999999999999 0 0 0
1343 4 18.050000000000004 37.904999999999994 45.125 0 0 0
1344 1 19.855 36.1 45.125 0 0 0
1345 3 19.855 37.904999999999994 43.31999999999999 0 0 0
1346 3 18.050000000000004 36.1 46.92999999999999 0 0 0
1347 3 18.050000000000004 37.904999999999994 48.73499999999999 0 0 0
1348 2 19.855 36.1 48.73499999999999 0 0 0
1349 3 19.855 37.904999999999994 46.92999999999999 0 0 0
1350 5 18.050000000000004 36.1 50.54 0 0 0
1353 1 19.855 37.904999999999994 50.54 0 0 0
1380 5 19.855 39.71 23.464999999999996 0 0 0
1381 3 18.050000000000004 41.515 27.074999999999996 0 0 0
1382 5 19.855 39.71 27.074999999999996 0 0 0
1383 2 19.855 41.515 25.27 0 0 0
1384 4 18.050000000000004 39.71 28.88 0 0 0
1385 2 18.050000000000004 41.515 30.685000000000002 0 0 0
1386 4 19.855 39.71 30.685000000000002 0 0 0
1387 4 19.855 41.515 28.88 0 0 0
1388 4 18.050000000000004 39.71 32.489999999999995 0 0 0
1389 5 18.050000000000004 41.515 34.295 0 0 0
1390 5 19.855 39.71 34.295 0 0 0
1391 2 19.855 41.515 32.489999999999995 0 0 0
1392 5 18.050000000000004 39.71 36.1 0 0 0
1393 4 18.050000000000004 41.515 37.904999999999994 0 0 0
1394 2 19.855 39.71 37.904999999999994 0 0 0
1395 5 19.855 41.515 36.1 0 0 0
1396 4 18.050000000000004 39.71 39.71 0 0 0
1397 5 18.050000000000004 41.515 41.515 0 0 0
1398 3 19.855 39.71 41.515 0 0 0
1399 1 19.855 41.515 39.71 0 0 0
1400 5 18.050000000000004 39.71 43.31999999999999 0 0 0
1401 2 18.050000000000004 41.515 45.125 0 0 0
1402 2 19.855 39.71 45.125 0 0 0
1403 3 19.855 41.515 43.31999999999999 0 0 0
1404 5 18.050000000000004 39.71 46.92999999999999 0 0 0
1405 1 18.050000000000004 41.515 48.73499999999999 0 0 0
1406 3 19.855 39.71 48.73499999999999 0 0 0
1407 1 19.855 41.515 46.92999999999999 0 0 0
1408 4 18.050000000000004 39.71 50.54 0 0 0
1411 4 19.855 41.515 50.54 0 0 0
1438 4 19.855 43.31999999999999 23.464999999999996 0 0 0
1439 2 18.050000000000004 45.125 27.074999999999996 0 0 0
1440 3 19.855 43.31999999999999 27.074999999999996 0 0 0
1441 2 19.855 45.125 25.27 0 0 0
1442 2 18.050000000000004 43.31999999999999 28.88 0 0 0
1443 2 18.050000000000004 45.125 30.685000000000002 0 0 0
1444 3 19.855 43.31999999999999 30.685000000000002 0 0 0
1445 4 19.855 45.125 28.88 0 0 0
1446 3 18.050000000000004 43.31999999999999 32.489999999999995 0 0 0
1447 1 18.050000000000004 45.125 34.295 0 0 0
1448 1 19.855 43.31999999999999 34.295 0 0 0
1449 2 19.855 45.125 32.489999999999995 0 0 0
1450 4 18.050000000000004 43.31999999999999 36.1 0 0 0
1451 3 18.050000000000004 45.125 37.904999999999994 0 0 0
1452 3 19.855 43.31999999999999 37.904999999999994 0 0 0
1453 5 19.855 45.125 36.1 0 0 0
1454 3 18.050000000000004 43.31999999999999 39.71 0 0 0
1455 2 18.050000000000004 45.125 41.515 0 0 0
1456 1 19.855 43.31999999999999 41.515 0 0 0
1457 4 19.855 45.125 39.71 0 0 0
1458 4 18.050000000000004 43.31999999999999 43.31999999999999 0 0 0
1459 5 18.050000000000004 45.125 45.125 0 0 0
1460 2 19.855 43.31999999999999 45.125 0 0 0
1461 2 19.855 45.125 43.31999999999999 0 0 0
1462 2 18.050000000000004 43.31999999999999 46.92999999999999 0 0 0
1463 1 18.050000000000004 45.125 48.73499999999999 0 0 0
1464 5 19.855 43.31999999999999 48.73499999999999 0 0 0
1465 3 19.855 45.125 46.92999999999999 0 0 0
1466 3 18.050000000000004 43.31999999999999 50.54 0 0 0
1469 2 19.855 45.125 50.54 0 0 0
1496 2 19.855 46.92999999999999 23.464999999999996 0 0 0
1497 3 18.050000000000004 48.73499999999999 27.074999999999996 0 0 0
1498 5 19.855 46.92999999999999 27.074999999999996 0 0 0
1499 1 19.855 48.73499999999999 25.27 0 0 0
1500 1 18.050000000000004 46.92999999999999 28.88 0 0 0
1501 4 18.050000000000004 48.73499999999999 30.685000000000002 0 0 0
1502 1 19.855 46.92999999999999 30.685000000000002 0 0 0
1503 3 19.855 48.73499999999999 28.88 0 0 0
1504 2 18.050000000000004 46.92999999999999 32.489999999999995 0 0 0
1505 3 18.050000000000004 48.73499999999999 34.295 0 0 0
1506 1 19.855 46.92999999999999 34.295 0 0 0
1507 5 19.855 48.73499999999999 32.489999999999995 0 0 0
1508 1 18.050000000000004 46.92999999999999 36.1 0 0 0
1509 5 18.050000000000004 48.73499999999999 37.904999999999994 0 0 0
1510 2 19.855 46.92999999999999 37.904999999999994 0 0 0
1511 5 19.855 48.73499999999999 36.1 0 0 0
1512 5 18.050000000000004 46.92999999999999 39.71 0 0 0
1513 2 18.050000000000004 48.73499999999999 41.515 0 0 0
1514 1 19.855 46.92999999999999 41.515 0 0 0
1515 2 19.855 48.73499999999999 39.71 0 0 0
1516 1 18.050000000000004 46.92999999999999 43.31999999999999 0 0 0
1517 1 18.050000000000004 48.73499999999999 45.125 0 0 0
1518 3 19.855 46.92999999999999 45.125 0 0 0
1519 5 19.855 48.73499999999999 43.31999999999999 0 0 0
1520 3 18.050000000000004 46.92999999999999 46.92999999999999 0 0 0
1521 3 18.050000000000004 48.73499999999999 48.73499999999999 0 0 0
1522 5 19.855 46.92999999999999 48.73499999999999 0 0 0
1523 3 19.855 48.73499999999999 46.92999999999999 0 0 0
1524 5 18.050000000000004 46.92999999999999 50.54 0 0 0
1527 2 19.855 48.73499999999999 50.54 0 0 0
1554 5 19.855 50.54 23.464999999999996 0 0 0
1556 3 19.855 50.54 27.074999999999996 0 0 0
1558 3 18.050000000000004 50.54 28.88 0 0 0
1560 5 19.855 50.54 30.685000000000002 0 0 0
1562 1 18.050000000000004 50.54 32.489999999999995 0 0 0
1564 1 19.855 50.54 34.295 0 0 0
1566 1 18.050000000000004 50.54 36.1 0 0 0
1568 3 19.855 50.54 37.904999999999994 0 0 0
1570 1 18.050000000000004 50.54 39.71 0 0 0
1572 5 19.855 50.54 41.515 0 0 0
1574 5 18.050000000000004 50.54 43.31999999999999 0 0 0
1576 5 19.855 50.54 45.125 0 0 0
1578 2 18.050000000000004 50.54 46.92999999999999 0 0 0
1580 5 19.855 50.54 48.73499999999999 0 0 0
1582 4 18.050000000000004 50.54 50.54 0 0 0
1991 1 23.464999999999996 19.855 25.27 0 0 0
1992 3 23.464999999999996 19.855 28.88 0 0 0
1993 3 23.464999999999996 19.855 32.489999999999995 0 0 0
1994 3 23.464999999999996 19.855 36.1 0 0 0
1995 4 23.464999999999996 19.855 39.71 0 0 0
1996 3 23.464999999999996 19.855 43.31999999999999 0 0 0
1997 4 23.464999999999996 19.855 46.92999999999999 0 0 0
1998 4 23.464999999999996 19.855 50.54 0 0 0
2006 3 21.659999999999997 21.659999999999997 21.659999999999997 0 0 0
2007 1 21.659999999999997 23.464999999999996 23.464999999999996 0 0 0
2008 2 23.464999999999996 21.659999999999997 23.464999999999996 0 0 0
2009 3 23.464999999999996 23.464999999999996 21.659999999999997 0 0 0
2010 2 21.659999999999997 21.659999999999997 25.27 0 0 0
2011 4 21.659999999999997 23.464999999999996 27.074999999999996 0 0 0
2012 1 23.464999999999996 21.659999999999997 27.074999999999996 0 0 0
2013 4 23.464999999999996 23.464999999999996 25.27 0 0 0
2014 5 21.659999999999997 21.659999999999997 28.88 0 0 0