model_files/NiFeCrCoAl/NiFeCrCoAl_30000/NiFeCrCoAl_430/NiFeCrCoAl_430_fcc_29909_temp.data (written by ASE) 

29909 	 atoms 
5  atom types
0.0                     103  xlo xhi
0.0                     103  ylo yhi
0.0                     103  zlo zhi


Atoms 

     1   1      1.8049999999999995      48.734999999999992      50.539999999999999
     2   1      1.8049999999999995      50.539999999999999      48.734999999999992
     3   1                       0      50.539999999999999      50.539999999999999
     4   1      1.8049999999999995      50.539999999999999      52.344999999999992
     5   1      1.8049999999999995      52.344999999999992      50.539999999999999
     6   1       3.609999999999999                  45.125                  45.125
     7   1      5.4149999999999991      43.319999999999993                  45.125
     8   1      5.4149999999999991                  45.125      43.319999999999993
     9   1       3.609999999999999                  45.125      48.734999999999992
    10   1      5.4149999999999991      43.319999999999993      48.734999999999992
    11   1      5.4149999999999991                  45.125      46.929999999999993
    12   1       3.609999999999999                  45.125      52.344999999999992
    13   1      5.4149999999999991      43.319999999999993      52.344999999999992
    14   1      5.4149999999999991                  45.125      50.539999999999999
    15   1       3.609999999999999                  45.125      55.954999999999998
    16   1      5.4149999999999991      43.319999999999993      55.954999999999998
    17   1      5.4149999999999991                  45.125      54.149999999999991
    18   1      5.4149999999999991                  45.125      57.759999999999998
    19   1       3.609999999999999      48.734999999999992                  45.125
    20   1      5.4149999999999991      46.929999999999993                  45.125
    21   1      5.4149999999999991      48.734999999999992      43.319999999999993
    22   1       3.609999999999999      46.929999999999993      46.929999999999993
    23   1       3.609999999999999      48.734999999999992      48.734999999999992
    24   1      5.4149999999999991      46.929999999999993      48.734999999999992
    25   1      5.4149999999999991      48.734999999999992      46.929999999999993
    26   1       3.609999999999999      46.929999999999993      50.539999999999999
    27   1       3.609999999999999      48.734999999999992      52.344999999999992
    28   1      5.4149999999999991      46.929999999999993      52.344999999999992
    29   1      5.4149999999999991      48.734999999999992      50.539999999999999
    30   1       3.609999999999999      46.929999999999993      54.149999999999991
    31   1       3.609999999999999      48.734999999999992      55.954999999999998
    32   1      5.4149999999999991      46.929999999999993      55.954999999999998
    33   1      5.4149999999999991      48.734999999999992      54.149999999999991
    34   1      5.4149999999999991      48.734999999999992      57.759999999999998
    35   1       3.609999999999999      52.344999999999992                  45.125
    36   1      5.4149999999999991      50.539999999999999                  45.125
    37   1      5.4149999999999991      52.344999999999992      43.319999999999993
    38   1       3.609999999999999      50.539999999999999      46.929999999999993
    39   1       3.609999999999999      52.344999999999992      48.734999999999992
    40   1      5.4149999999999991      50.539999999999999      48.734999999999992
    41   1      5.4149999999999991      52.344999999999992      46.929999999999993
    42   1       3.609999999999999      50.539999999999999      50.539999999999999
    43   1       3.609999999999999      52.344999999999992      52.344999999999992
    44   1      5.4149999999999991      50.539999999999999      52.344999999999992
    45   1      5.4149999999999991      52.344999999999992      50.539999999999999
    46   1       3.609999999999999      50.539999999999999      54.149999999999991
    47   1       3.609999999999999      52.344999999999992      55.954999999999998
    48   1      5.4149999999999991      50.539999999999999      55.954999999999998
    49   1      5.4149999999999991      52.344999999999992      54.149999999999991
    50   1      5.4149999999999991      52.344999999999992      57.759999999999998
    51   1       3.609999999999999      55.954999999999998                  45.125
    52   1      5.4149999999999991      54.149999999999991                  45.125
    53   1      5.4149999999999991      55.954999999999998      43.319999999999993
    54   1       3.609999999999999      54.149999999999991      46.929999999999993
    55   1       3.609999999999999      55.954999999999998      48.734999999999992
    56   1      5.4149999999999991      54.149999999999991      48.734999999999992
    57   1      5.4149999999999991      55.954999999999998      46.929999999999993
    58   1       3.609999999999999      54.149999999999991      50.539999999999999
    59   1       3.609999999999999      55.954999999999998      52.344999999999992
    60   1      5.4149999999999991      54.149999999999991      52.344999999999992
    61   1      5.4149999999999991      55.954999999999998      50.539999999999999
    62   1       3.609999999999999      54.149999999999991      54.149999999999991
    63   1       3.609999999999999      55.954999999999998      55.954999999999998
    64   1      5.4149999999999991      54.149999999999991      55.954999999999998
    65   1      5.4149999999999991      55.954999999999998      54.149999999999991
    66   1      5.4149999999999991      55.954999999999998      57.759999999999998
    67   1      5.4149999999999991      57.759999999999998                  45.125
    68   1      5.4149999999999991      57.759999999999998      48.734999999999992
    69   1      5.4149999999999991      57.759999999999998      52.344999999999992
    70   1      5.4149999999999991      57.759999999999998      55.954999999999998
    71   1      9.0249999999999968      37.904999999999994      39.710000000000001
    72   1      9.0249999999999968      37.904999999999994      43.319999999999993
    73   1      9.0249999999999968      37.904999999999994      46.929999999999993
    74   1      9.0249999999999968      37.904999999999994      50.539999999999999
    75   1      9.0249999999999968      37.904999999999994      54.149999999999991
    76   1      9.0249999999999968      37.904999999999994      57.759999999999998
    77   1      9.0249999999999968      37.904999999999994      61.370000000000005
    78   1      9.0249999999999968      39.710000000000001      37.904999999999994
    79   1       7.219999999999998      41.515000000000001      41.515000000000001
    80   1      9.0249999999999968      39.710000000000001      41.515000000000001
    81   1      9.0249999999999968      41.515000000000001      39.710000000000001
    82   1       7.219999999999998      41.515000000000001                  45.125
    83   1      9.0249999999999968      39.710000000000001                  45.125
    84   1      9.0249999999999968      41.515000000000001      43.319999999999993
    85   1       7.219999999999998      41.515000000000001      48.734999999999992
    86   1      9.0249999999999968      39.710000000000001      48.734999999999992
    87   1      9.0249999999999968      41.515000000000001      46.929999999999993
    88   1       7.219999999999998      41.515000000000001      52.344999999999992
    89   1      9.0249999999999968      39.710000000000001      52.344999999999992
    90   1      9.0249999999999968      41.515000000000001      50.539999999999999
    91   1       7.219999999999998      41.515000000000001      55.954999999999998
    92   1      9.0249999999999968      39.710000000000001      55.954999999999998
    93   1      9.0249999999999968      41.515000000000001      54.149999999999991
    94   1       7.219999999999998      41.515000000000001      59.564999999999991
    95   1      9.0249999999999968      39.710000000000001      59.564999999999991
    96   1      9.0249999999999968      41.515000000000001      57.759999999999998
    97   1      9.0249999999999968      39.710000000000001      63.175000000000004
    98   1      9.0249999999999968      41.515000000000001      61.370000000000005
    99   1      9.0249999999999968      43.319999999999993      37.904999999999994
   100   1       7.219999999999998                  45.125      41.515000000000001
   101   1      9.0249999999999968      43.319999999999993      41.515000000000001
   102   1      9.0249999999999968                  45.125      39.710000000000001
   103   1       7.219999999999998      43.319999999999993      43.319999999999993
   104   1       7.219999999999998                  45.125                  45.125
   105   1      9.0249999999999968      43.319999999999993                  45.125
   106   1      9.0249999999999968                  45.125      43.319999999999993
   107   1       7.219999999999998      43.319999999999993      46.929999999999993
   108   1       7.219999999999998                  45.125      48.734999999999992
   109   1      9.0249999999999968      43.319999999999993      48.734999999999992
   110   1      9.0249999999999968                  45.125      46.929999999999993
   111   1       7.219999999999998      43.319999999999993      50.539999999999999
   112   1       7.219999999999998                  45.125      52.344999999999992
   113   1      9.0249999999999968      43.319999999999993      52.344999999999992
   114   1      9.0249999999999968                  45.125      50.539999999999999
   115   1       7.219999999999998      43.319999999999993      54.149999999999991
   116   1       7.219999999999998                  45.125      55.954999999999998
   117   1      9.0249999999999968      43.319999999999993      55.954999999999998
   118   1      9.0249999999999968                  45.125      54.149999999999991
   119   1       7.219999999999998      43.319999999999993      57.759999999999998
   120   1       7.219999999999998                  45.125      59.564999999999991
   121   1      9.0249999999999968      43.319999999999993      59.564999999999991
   122   1      9.0249999999999968                  45.125      57.759999999999998
   123   1      9.0249999999999968      43.319999999999993      63.175000000000004
   124   1      9.0249999999999968                  45.125      61.370000000000005
   125   1      9.0249999999999968      46.929999999999993      37.904999999999994
   126   1       7.219999999999998      48.734999999999992      41.515000000000001
   127   1      9.0249999999999968      46.929999999999993      41.515000000000001
   128   1      9.0249999999999968      48.734999999999992      39.710000000000001
   129   1       7.219999999999998      46.929999999999993      43.319999999999993
   130   1       7.219999999999998      48.734999999999992                  45.125
   131   1      9.0249999999999968      46.929999999999993                  45.125
   132   1      9.0249999999999968      48.734999999999992      43.319999999999993
   133   1       7.219999999999998      46.929999999999993      46.929999999999993
   134   1       7.219999999999998      48.734999999999992      48.734999999999992
   135   1      9.0249999999999968      46.929999999999993      48.734999999999992
   136   1      9.0249999999999968      48.734999999999992      46.929999999999993
   137   1       7.219999999999998      46.929999999999993      50.539999999999999
   138   1       7.219999999999998      48.734999999999992      52.344999999999992
   139   1      9.0249999999999968      46.929999999999993      52.344999999999992
   140   1      9.0249999999999968      48.734999999999992      50.539999999999999
   141   1       7.219999999999998      46.929999999999993      54.149999999999991
   142   1       7.219999999999998      48.734999999999992      55.954999999999998
   143   1      9.0249999999999968      46.929999999999993      55.954999999999998
   144   1      9.0249999999999968      48.734999999999992      54.149999999999991
   145   1       7.219999999999998      46.929999999999993      57.759999999999998
   146   1       7.219999999999998      48.734999999999992      59.564999999999991
   147   1      9.0249999999999968      46.929999999999993      59.564999999999991
   148   1      9.0249999999999968      48.734999999999992      57.759999999999998
   149   1      9.0249999999999968      46.929999999999993      63.175000000000004
   150   1      9.0249999999999968      48.734999999999992      61.370000000000005
   151   1      9.0249999999999968      50.539999999999999      37.904999999999994
   152   1       7.219999999999998      52.344999999999992      41.515000000000001
   153   1      9.0249999999999968      50.539999999999999      41.515000000000001
   154   1      9.0249999999999968      52.344999999999992      39.710000000000001
   155   1       7.219999999999998      50.539999999999999      43.319999999999993
   156   1       7.219999999999998      52.344999999999992                  45.125
   157   1      9.0249999999999968      50.539999999999999                  45.125
   158   1      9.0249999999999968      52.344999999999992      43.319999999999993
   159   1       7.219999999999998      50.539999999999999      46.929999999999993
   160   1       7.219999999999998      52.344999999999992      48.734999999999992
   161   1      9.0249999999999968      50.539999999999999      48.734999999999992
   162   1      9.0249999999999968      52.344999999999992      46.929999999999993
   163   1       7.219999999999998      50.539999999999999      50.539999999999999
   164   1       7.219999999999998      52.344999999999992      52.344999999999992
   165   1      9.0249999999999968      50.539999999999999      52.344999999999992
   166   1      9.0249999999999968      52.344999999999992      50.539999999999999
   167   1       7.219999999999998      50.539999999999999      54.149999999999991
   168   1       7.219999999999998      52.344999999999992      55.954999999999998
   169   1      9.0249999999999968      50.539999999999999      55.954999999999998
   170   1      9.0249999999999968      52.344999999999992      54.149999999999991
   171   1       7.219999999999998      50.539999999999999      57.759999999999998
   172   1       7.219999999999998      52.344999999999992      59.564999999999991
   173   1      9.0249999999999968      50.539999999999999      59.564999999999991
   174   1      9.0249999999999968      52.344999999999992      57.759999999999998
   175   1      9.0249999999999968      50.539999999999999      63.175000000000004
   176   1      9.0249999999999968      52.344999999999992      61.370000000000005
   177   1      9.0249999999999968      54.149999999999991      37.904999999999994
   178   1       7.219999999999998      55.954999999999998      41.515000000000001
   179   1      9.0249999999999968      54.149999999999991      41.515000000000001
   180   1      9.0249999999999968      55.954999999999998      39.710000000000001
   181   1       7.219999999999998      54.149999999999991      43.319999999999993
   182   1       7.219999999999998      55.954999999999998                  45.125
   183   1      9.0249999999999968      54.149999999999991                  45.125
   184   1      9.0249999999999968      55.954999999999998      43.319999999999993
   185   1       7.219999999999998      54.149999999999991      46.929999999999993
   186   1       7.219999999999998      55.954999999999998      48.734999999999992
   187   1      9.0249999999999968      54.149999999999991      48.734999999999992
   188   1      9.0249999999999968      55.954999999999998      46.929999999999993
   189   1       7.219999999999998      54.149999999999991      50.539999999999999
   190   1       7.219999999999998      55.954999999999998      52.344999999999992
   191   1      9.0249999999999968      54.149999999999991      52.344999999999992
   192   1      9.0249999999999968      55.954999999999998      50.539999999999999
   193   1       7.219999999999998      54.149999999999991      54.149999999999991
   194   1       7.219999999999998      55.954999999999998      55.954999999999998
   195   1      9.0249999999999968      54.149999999999991      55.954999999999998
   196   1      9.0249999999999968      55.954999999999998      54.149999999999991
   197   1       7.219999999999998      54.149999999999991      57.759999999999998
   198   1       7.219999999999998      55.954999999999998      59.564999999999991
   199   1      9.0249999999999968      54.149999999999991      59.564999999999991
   200   1      9.0249999999999968      55.954999999999998      57.759999999999998
   201   1      9.0249999999999968      54.149999999999991      63.175000000000004
   202   1      9.0249999999999968      55.954999999999998      61.370000000000005
   203   1      9.0249999999999968      57.759999999999998      37.904999999999994
   204   1       7.219999999999998      59.564999999999991      41.515000000000001
   205   1      9.0249999999999968      57.759999999999998      41.515000000000001
   206   1      9.0249999999999968      59.564999999999991      39.710000000000001
   207   1       7.219999999999998      57.759999999999998      43.319999999999993
   208   1       7.219999999999998      59.564999999999991                  45.125
   209   1      9.0249999999999968      57.759999999999998                  45.125
   210   1      9.0249999999999968      59.564999999999991      43.319999999999993
   211   1       7.219999999999998      57.759999999999998      46.929999999999993
   212   1       7.219999999999998      59.564999999999991      48.734999999999992
   213   1      9.0249999999999968      57.759999999999998      48.734999999999992
   214   1      9.0249999999999968      59.564999999999991      46.929999999999993
   215   1       7.219999999999998      57.759999999999998      50.539999999999999
   216   1       7.219999999999998      59.564999999999991      52.344999999999992
   217   1      9.0249999999999968      57.759999999999998      52.344999999999992
   218   1      9.0249999999999968      59.564999999999991      50.539999999999999
   219   1       7.219999999999998      57.759999999999998      54.149999999999991
   220   1       7.219999999999998      59.564999999999991      55.954999999999998
   221   1      9.0249999999999968      57.759999999999998      55.954999999999998
   222   1      9.0249999999999968      59.564999999999991      54.149999999999991
   223   1       7.219999999999998      57.759999999999998      57.759999999999998
   224   1       7.219999999999998      59.564999999999991      59.564999999999991
   225   1      9.0249999999999968      57.759999999999998      59.564999999999991
   226   1      9.0249999999999968      59.564999999999991      57.759999999999998
   227   1      9.0249999999999968      57.759999999999998      63.175000000000004
   228   1      9.0249999999999968      59.564999999999991      61.370000000000005
   229   1      9.0249999999999968      61.370000000000005      37.904999999999994
   230   1      9.0249999999999968      61.370000000000005      41.515000000000001
   231   1      9.0249999999999968      63.175000000000004      39.710000000000001
   232   1      9.0249999999999968      61.370000000000005                  45.125
   233   1      9.0249999999999968      63.175000000000004      43.319999999999993
   234   1      9.0249999999999968      61.370000000000005      48.734999999999992
   235   1      9.0249999999999968      63.175000000000004      46.929999999999993
   236   1      9.0249999999999968      61.370000000000005      52.344999999999992
   237   1      9.0249999999999968      63.175000000000004      50.539999999999999
   238   1      9.0249999999999968      61.370000000000005      55.954999999999998
   239   1      9.0249999999999968      63.175000000000004      54.149999999999991
   240   1      9.0249999999999968      61.370000000000005      59.564999999999991
   241   1      9.0249999999999968      63.175000000000004      57.759999999999998
   242   1      9.0249999999999968      61.370000000000005      63.175000000000004
   243   1      9.0249999999999968      63.175000000000004      61.370000000000005
   244   1      12.634999999999996      34.295000000000002      36.100000000000001
   245   1      12.634999999999996      34.295000000000002      39.710000000000001
   246   1      12.634999999999996      34.295000000000002      43.319999999999993
   247   1      12.634999999999996      34.295000000000002      46.929999999999993
   248   1      12.634999999999996      34.295000000000002      50.539999999999999
   249   1      12.634999999999996      34.295000000000002      54.149999999999991
   250   1      12.634999999999996      34.295000000000002      57.759999999999998
   251   1      12.634999999999996      34.295000000000002      61.370000000000005
   252   1      12.634999999999996      34.295000000000002       64.97999999999999
   253   1      12.634999999999996      36.100000000000001      34.295000000000002
   254   1      10.829999999999998      36.100000000000001      36.100000000000001
   255   1      10.829999999999998      37.904999999999994      37.904999999999994
   256   1      12.634999999999996      36.100000000000001      37.904999999999994
   257   1      12.634999999999996      37.904999999999994      36.100000000000001
   258   1      10.829999999999998      36.100000000000001      39.710000000000001
   259   1      10.829999999999998      37.904999999999994      41.515000000000001
   260   1      12.634999999999996      36.100000000000001      41.515000000000001
   261   1      12.634999999999996      37.904999999999994      39.710000000000001
   262   1      10.829999999999998      36.100000000000001      43.319999999999993
   263   1      10.829999999999998      37.904999999999994                  45.125
   264   1      12.634999999999996      36.100000000000001                  45.125
   265   1      12.634999999999996      37.904999999999994      43.319999999999993
   266   1      10.829999999999998      36.100000000000001      46.929999999999993
   267   1      10.829999999999998      37.904999999999994      48.734999999999992
   268   1      12.634999999999996      36.100000000000001      48.734999999999992
   269   1      12.634999999999996      37.904999999999994      46.929999999999993
   270   1      10.829999999999998      36.100000000000001      50.539999999999999
   271   1      10.829999999999998      37.904999999999994      52.344999999999992
   272   1      12.634999999999996      36.100000000000001      52.344999999999992
   273   1      12.634999999999996      37.904999999999994      50.539999999999999
   274   1      10.829999999999998      36.100000000000001      54.149999999999991
   275   1      10.829999999999998      37.904999999999994      55.954999999999998
   276   1      12.634999999999996      36.100000000000001      55.954999999999998
   277   1      12.634999999999996      37.904999999999994      54.149999999999991
   278   1      10.829999999999998      36.100000000000001      57.759999999999998
   279   1      10.829999999999998      37.904999999999994      59.564999999999991
   280   1      12.634999999999996      36.100000000000001      59.564999999999991
   281   1      12.634999999999996      37.904999999999994      57.759999999999998
   282   1      10.829999999999998      36.100000000000001      61.370000000000005
   283   1      10.829999999999998      37.904999999999994      63.175000000000004
   284   1      12.634999999999996      36.100000000000001      63.175000000000004
   285   1      12.634999999999996      37.904999999999994      61.370000000000005
   286   1      10.829999999999998      36.100000000000001       64.97999999999999
   287   1      12.634999999999996      36.100000000000001      66.785000000000011
   288   1      12.634999999999996      37.904999999999994       64.97999999999999
   289   1      12.634999999999996      39.710000000000001      34.295000000000002
   290   1      10.829999999999998      39.710000000000001      36.100000000000001
   291   1      10.829999999999998      41.515000000000001      37.904999999999994
   292   1      12.634999999999996      39.710000000000001      37.904999999999994
   293   1      12.634999999999996      41.515000000000001      36.100000000000001
   294   1      10.829999999999998      39.710000000000001      39.710000000000001
   295   1      10.829999999999998      41.515000000000001      41.515000000000001
   296   1      12.634999999999996      39.710000000000001      41.515000000000001
   297   1      12.634999999999996      41.515000000000001      39.710000000000001
   298   1      10.829999999999998      39.710000000000001      43.319999999999993
   299   1      10.829999999999998      41.515000000000001                  45.125
   300   1      12.634999999999996      39.710000000000001                  45.125
   301   1      12.634999999999996      41.515000000000001      43.319999999999993
   302   1      10.829999999999998      39.710000000000001      46.929999999999993
   303   1      10.829999999999998      41.515000000000001      48.734999999999992
   304   1      12.634999999999996      39.710000000000001      48.734999999999992
   305   1      12.634999999999996      41.515000000000001      46.929999999999993
   306   1      10.829999999999998      39.710000000000001      50.539999999999999
   307   1      10.829999999999998      41.515000000000001      52.344999999999992
   308   1      12.634999999999996      39.710000000000001      52.344999999999992
   309   1      12.634999999999996      41.515000000000001      50.539999999999999
   310   1      10.829999999999998      39.710000000000001      54.149999999999991
   311   1      10.829999999999998      41.515000000000001      55.954999999999998
   312   1      12.634999999999996      39.710000000000001      55.954999999999998
   313   1      12.634999999999996      41.515000000000001      54.149999999999991
   314   1      10.829999999999998      39.710000000000001      57.759999999999998
   315   1      10.829999999999998      41.515000000000001      59.564999999999991
   316   1      12.634999999999996      39.710000000000001      59.564999999999991
   317   1      12.634999999999996      41.515000000000001      57.759999999999998
   318   1      10.829999999999998      39.710000000000001      61.370000000000005
   319   1      10.829999999999998      41.515000000000001      63.175000000000004
   320   1      12.634999999999996      39.710000000000001      63.175000000000004
   321   1      12.634999999999996      41.515000000000001      61.370000000000005
   322   1      10.829999999999998      39.710000000000001       64.97999999999999
   323   1      12.634999999999996      39.710000000000001      66.785000000000011
   324   1      12.634999999999996      41.515000000000001       64.97999999999999
   325   1      12.634999999999996      43.319999999999993      34.295000000000002
   326   1      10.829999999999998      43.319999999999993      36.100000000000001
   327   1      10.829999999999998                  45.125      37.904999999999994
   328   1      12.634999999999996      43.319999999999993      37.904999999999994
   329   1      12.634999999999996                  45.125      36.100000000000001
   330   1      10.829999999999998      43.319999999999993      39.710000000000001
   331   1      10.829999999999998                  45.125      41.515000000000001
   332   1      12.634999999999996      43.319999999999993      41.515000000000001
   333   1      12.634999999999996                  45.125      39.710000000000001
   334   1      10.829999999999998      43.319999999999993      43.319999999999993
   335   1      10.829999999999998                  45.125                  45.125
   336   1      12.634999999999996      43.319999999999993                  45.125
   337   1      12.634999999999996                  45.125      43.319999999999993
   338   1      10.829999999999998      43.319999999999993      46.929999999999993
   339   1      10.829999999999998                  45.125      48.734999999999992
   340   1      12.634999999999996      43.319999999999993      48.734999999999992
   341   1      12.634999999999996                  45.125      46.929999999999993
   342   1      10.829999999999998      43.319999999999993      50.539999999999999
   343   1      10.829999999999998                  45.125      52.344999999999992
   344   1      12.634999999999996      43.319999999999993      52.344999999999992
   345   1      12.634999999999996                  45.125      50.539999999999999
   346   1      10.829999999999998      43.319999999999993      54.149999999999991
   347   1      10.829999999999998                  45.125      55.954999999999998
   348   1      12.634999999999996      43.319999999999993      55.954999999999998
   349   1      12.634999999999996                  45.125      54.149999999999991
   350   1      10.829999999999998      43.319999999999993      57.759999999999998
   351   1      10.829999999999998                  45.125      59.564999999999991
   352   1      12.634999999999996      43.319999999999993      59.564999999999991
   353   1      12.634999999999996                  45.125      57.759999999999998
   354   1      10.829999999999998      43.319999999999993      61.370000000000005
   355   1      10.829999999999998                  45.125      63.175000000000004
   356   1      12.634999999999996      43.319999999999993      63.175000000000004
   357   1      12.634999999999996                  45.125      61.370000000000005
   358   1      10.829999999999998      43.319999999999993       64.97999999999999