model_files/PtCo/PtCo_30000/PtCo_532/PtCo_532_fcc_30213_temp.data (written by ASE) 

30213 	 atoms 
2  atom types
0.0                     102  xlo xhi
0.0                     102  ylo yhi
0.0                     102  zlo zhi


Atoms 

     1   1      1.8249999999999957      45.624999999999993      51.099999999999987
     2   1      1.8249999999999957      47.449999999999996      49.274999999999999
     3   1      1.8249999999999957      49.274999999999999      47.449999999999996
     4   1      1.8249999999999957      47.449999999999996       52.92499999999999
     5   1      1.8249999999999957      49.274999999999999      51.099999999999987
     6   1      1.8249999999999957      49.274999999999999      54.749999999999986
     7   1      1.8249999999999957      51.099999999999987      45.624999999999993
     8   1      1.8249999999999957      51.099999999999987      49.274999999999999
     9   1      1.8249999999999957       52.92499999999999      47.449999999999996
    10   1      101.99999999999999      51.099999999999987      51.099999999999987
    11   1      1.8249999999999957      51.099999999999987       52.92499999999999
    12   1      1.8249999999999957       52.92499999999999      51.099999999999987
    13   1      1.8249999999999957      51.099999999999987      56.574999999999989
    14   1      1.8249999999999957       52.92499999999999      54.749999999999986
    15   1      1.8249999999999957      54.749999999999986      49.274999999999999
    16   1      1.8249999999999957      54.749999999999986       52.92499999999999
    17   1      1.8249999999999957      56.574999999999989      51.099999999999987
    18   1      5.4749999999999943      41.974999999999994      47.449999999999996
    19   1      5.4749999999999943      41.974999999999994      51.099999999999987
    20   1      5.4749999999999943      41.974999999999994      54.749999999999986
    21   1      5.4749999999999943       43.79999999999999      45.624999999999993
    22   1      5.4749999999999943      45.624999999999993       43.79999999999999
    23   1      3.6499999999999915      45.624999999999993      49.274999999999999
    24   1      5.4749999999999943       43.79999999999999      49.274999999999999
    25   1      5.4749999999999943      45.624999999999993      47.449999999999996
    26   1      3.6499999999999915       43.79999999999999      51.099999999999987
    27   1      3.6499999999999915      45.624999999999993       52.92499999999999
    28   1      5.4749999999999943       43.79999999999999       52.92499999999999
    29   1      5.4749999999999943      45.624999999999993      51.099999999999987
    30   1      5.4749999999999943       43.79999999999999      56.574999999999989
    31   1      5.4749999999999943      45.624999999999993      54.749999999999986
    32   1      5.4749999999999943      45.624999999999993      58.399999999999984
    33   1      5.4749999999999943      47.449999999999996      41.974999999999994
    34   1      3.6499999999999915      49.274999999999999      45.624999999999993
    35   1      5.4749999999999943      47.449999999999996      45.624999999999993
    36   1      5.4749999999999943      49.274999999999999       43.79999999999999
    37   1      3.6499999999999915      47.449999999999996      47.449999999999996
    38   1      3.6499999999999915      49.274999999999999      49.274999999999999
    39   1      5.4749999999999943      47.449999999999996      49.274999999999999
    40   1      5.4749999999999943      49.274999999999999      47.449999999999996
    41   1      3.6499999999999915      47.449999999999996      51.099999999999987
    42   1      3.6499999999999915      49.274999999999999       52.92499999999999
    43   1      5.4749999999999943      47.449999999999996       52.92499999999999
    44   1      5.4749999999999943      49.274999999999999      51.099999999999987
    45   1      3.6499999999999915      47.449999999999996      54.749999999999986
    46   1      3.6499999999999915      49.274999999999999      56.574999999999989
    47   1      5.4749999999999943      47.449999999999996      56.574999999999989
    48   1      5.4749999999999943      49.274999999999999      54.749999999999986
    49   1      5.4749999999999943      47.449999999999996      60.224999999999987
    50   1      5.4749999999999943      49.274999999999999      58.399999999999984
    51   1      5.4749999999999943      51.099999999999987      41.974999999999994
    52   1      3.6499999999999915      51.099999999999987       43.79999999999999
    53   1      3.6499999999999915       52.92499999999999      45.624999999999993
    54   1      5.4749999999999943      51.099999999999987      45.624999999999993
    55   1      5.4749999999999943       52.92499999999999       43.79999999999999
    56   1      3.6499999999999915      51.099999999999987      47.449999999999996
    57   1      3.6499999999999915       52.92499999999999      49.274999999999999
    58   1      5.4749999999999943      51.099999999999987      49.274999999999999
    59   1      5.4749999999999943       52.92499999999999      47.449999999999996
    60   1      3.6499999999999915      51.099999999999987      51.099999999999987
    61   1      3.6499999999999915       52.92499999999999       52.92499999999999
    62   1      5.4749999999999943      51.099999999999987       52.92499999999999
    63   1      5.4749999999999943       52.92499999999999      51.099999999999987
    64   1      3.6499999999999915      51.099999999999987      54.749999999999986
    65   1      3.6499999999999915       52.92499999999999      56.574999999999989
    66   1      5.4749999999999943      51.099999999999987      56.574999999999989
    67   1      5.4749999999999943       52.92499999999999      54.749999999999986
    68   1      3.6499999999999915      51.099999999999987      58.399999999999984
    69   1      5.4749999999999943      51.099999999999987      60.224999999999987
    70   1      5.4749999999999943       52.92499999999999      58.399999999999984
    71   1      5.4749999999999943      54.749999999999986      41.974999999999994
    72   1      5.4749999999999943      54.749999999999986      45.624999999999993
    73   1      5.4749999999999943      56.574999999999989       43.79999999999999
    74   1      3.6499999999999915      54.749999999999986      47.449999999999996
    75   1      3.6499999999999915      56.574999999999989      49.274999999999999
    76   1      5.4749999999999943      54.749999999999986      49.274999999999999
    77   1      5.4749999999999943      56.574999999999989      47.449999999999996
    78   1      3.6499999999999915      54.749999999999986      51.099999999999987
    79   1      3.6499999999999915      56.574999999999989       52.92499999999999
    80   1      5.4749999999999943      54.749999999999986       52.92499999999999
    81   1      5.4749999999999943      56.574999999999989      51.099999999999987
    82   1      3.6499999999999915      54.749999999999986      54.749999999999986
    83   1      5.4749999999999943      54.749999999999986      56.574999999999989
    84   1      5.4749999999999943      56.574999999999989      54.749999999999986
    85   1      5.4749999999999943      54.749999999999986      60.224999999999987
    86   1      5.4749999999999943      56.574999999999989      58.399999999999984
    87   1      5.4749999999999943      58.399999999999984      45.624999999999993
    88   1      5.4749999999999943      58.399999999999984      49.274999999999999
    89   1      5.4749999999999943      60.224999999999987      47.449999999999996
    90   1      3.6499999999999915      58.399999999999984      51.099999999999987
    91   1      5.4749999999999943      58.399999999999984       52.92499999999999
    92   1      5.4749999999999943      60.224999999999987      51.099999999999987
    93   1      5.4749999999999943      58.399999999999984      56.574999999999989
    94   1      5.4749999999999943      60.224999999999987      54.749999999999986
    95   1      9.1249999999999929      34.674999999999997      51.099999999999987
    96   1      9.1249999999999929      38.324999999999996       43.79999999999999
    97   1      7.2999999999999972      38.324999999999996      49.274999999999999
    98   1      9.1249999999999929      36.499999999999993      49.274999999999999
    99   1      9.1249999999999929      38.324999999999996      47.449999999999996
   100   1      7.2999999999999972      36.499999999999993      51.099999999999987
   101   1      7.2999999999999972      38.324999999999996       52.92499999999999
   102   1      9.1249999999999929      36.499999999999993       52.92499999999999
   103   1      9.1249999999999929      38.324999999999996      51.099999999999987
   104   1      9.1249999999999929      38.324999999999996      54.749999999999986
   105   1      9.1249999999999929      38.324999999999996      58.399999999999984
   106   1      9.1249999999999929      40.149999999999991      41.974999999999994
   107   1      9.1249999999999929      41.974999999999994      40.149999999999991
   108   1      7.2999999999999972      41.974999999999994      45.624999999999993
   109   1      9.1249999999999929      40.149999999999991      45.624999999999993
   110   1      9.1249999999999929      41.974999999999994       43.79999999999999
   111   1      7.2999999999999972      40.149999999999991      47.449999999999996
   112   1      7.2999999999999972      41.974999999999994      49.274999999999999
   113   1      9.1249999999999929      40.149999999999991      49.274999999999999
   114   1      9.1249999999999929      41.974999999999994      47.449999999999996
   115   1      7.2999999999999972      40.149999999999991      51.099999999999987
   116   1      7.2999999999999972      41.974999999999994       52.92499999999999
   117   1      9.1249999999999929      40.149999999999991       52.92499999999999
   118   1      9.1249999999999929      41.974999999999994      51.099999999999987
   119   1      7.2999999999999972      40.149999999999991      54.749999999999986
   120   1      7.2999999999999972      41.974999999999994      56.574999999999989
   121   1      9.1249999999999929      40.149999999999991      56.574999999999989
   122   1      9.1249999999999929      41.974999999999994      54.749999999999986
   123   1      9.1249999999999929      40.149999999999991      60.224999999999987
   124   1      9.1249999999999929      41.974999999999994      58.399999999999984
   125   1      9.1249999999999929      41.974999999999994      62.049999999999997
   126   1      9.1249999999999929       43.79999999999999      38.324999999999996
   127   1      7.2999999999999972      45.624999999999993      41.974999999999994
   128   1      9.1249999999999929       43.79999999999999      41.974999999999994
   129   1      9.1249999999999929      45.624999999999993      40.149999999999991
   130   1      7.2999999999999972       43.79999999999999       43.79999999999999
   131   1      7.2999999999999972      45.624999999999993      45.624999999999993
   132   1      9.1249999999999929       43.79999999999999      45.624999999999993
   133   1      9.1249999999999929      45.624999999999993       43.79999999999999
   134   1      7.2999999999999972       43.79999999999999      47.449999999999996
   135   1      7.2999999999999972      45.624999999999993      49.274999999999999
   136   1      9.1249999999999929       43.79999999999999      49.274999999999999
   137   1      9.1249999999999929      45.624999999999993      47.449999999999996
   138   1      7.2999999999999972       43.79999999999999      51.099999999999987
   139   1      7.2999999999999972      45.624999999999993       52.92499999999999
   140   1      9.1249999999999929       43.79999999999999       52.92499999999999
   141   1      9.1249999999999929      45.624999999999993      51.099999999999987
   142   1      7.2999999999999972       43.79999999999999      54.749999999999986
   143   1      7.2999999999999972      45.624999999999993      56.574999999999989
   144   1      9.1249999999999929       43.79999999999999      56.574999999999989
   145   1      9.1249999999999929      45.624999999999993      54.749999999999986
   146   1      7.2999999999999972       43.79999999999999      58.399999999999984
   147   1      7.2999999999999972      45.624999999999993      60.224999999999987
   148   1      9.1249999999999929       43.79999999999999      60.224999999999987
   149   1      9.1249999999999929      45.624999999999993      58.399999999999984
   150   1      9.1249999999999929       43.79999999999999                  63.875
   151   1      9.1249999999999929      45.624999999999993      62.049999999999997
   152   1      7.2999999999999972      49.274999999999999      38.324999999999996
   153   1      9.1249999999999929      47.449999999999996      38.324999999999996
   154   1      9.1249999999999929      49.274999999999999      36.499999999999993
   155   1      7.2999999999999972      47.449999999999996      40.149999999999991
   156   1      7.2999999999999972      49.274999999999999      41.974999999999994
   157   1      9.1249999999999929      47.449999999999996      41.974999999999994
   158   1      9.1249999999999929      49.274999999999999      40.149999999999991
   159   1      7.2999999999999972      47.449999999999996       43.79999999999999
   160   1      7.2999999999999972      49.274999999999999      45.624999999999993
   161   1      9.1249999999999929      47.449999999999996      45.624999999999993
   162   1      9.1249999999999929      49.274999999999999       43.79999999999999
   163   1      7.2999999999999972      47.449999999999996      47.449999999999996
   164   1      7.2999999999999972      49.274999999999999      49.274999999999999
   165   1      9.1249999999999929      47.449999999999996      49.274999999999999
   166   1      9.1249999999999929      49.274999999999999      47.449999999999996
   167   1      7.2999999999999972      47.449999999999996      51.099999999999987
   168   1      7.2999999999999972      49.274999999999999       52.92499999999999
   169   1      9.1249999999999929      47.449999999999996       52.92499999999999
   170   1      9.1249999999999929      49.274999999999999      51.099999999999987
   171   1      7.2999999999999972      47.449999999999996      54.749999999999986
   172   1      7.2999999999999972      49.274999999999999      56.574999999999989
   173   1      9.1249999999999929      47.449999999999996      56.574999999999989
   174   1      9.1249999999999929      49.274999999999999      54.749999999999986
   175   1      7.2999999999999972      47.449999999999996      58.399999999999984
   176   1      7.2999999999999972      49.274999999999999      60.224999999999987
   177   1      9.1249999999999929      47.449999999999996      60.224999999999987
   178   1      9.1249999999999929      49.274999999999999      58.399999999999984
   179   1      7.2999999999999972      47.449999999999996      62.049999999999997
   180   1      7.2999999999999972      49.274999999999999                  63.875
   181   1      9.1249999999999929      47.449999999999996                  63.875
   182   1      9.1249999999999929      49.274999999999999      62.049999999999997
   183   1      9.1249999999999929      49.274999999999999      65.699999999999989
   184   1      9.1249999999999929      51.099999999999987      34.674999999999997
   185   1      7.2999999999999972      51.099999999999987      36.499999999999993
   186   1      7.2999999999999972       52.92499999999999      38.324999999999996
   187   1      9.1249999999999929      51.099999999999987      38.324999999999996
   188   1      9.1249999999999929       52.92499999999999      36.499999999999993
   189   1      7.2999999999999972      51.099999999999987      40.149999999999991
   190   1      7.2999999999999972       52.92499999999999      41.974999999999994
   191   1      9.1249999999999929      51.099999999999987      41.974999999999994
   192   1      9.1249999999999929       52.92499999999999      40.149999999999991
   193   1      7.2999999999999972      51.099999999999987       43.79999999999999
   194   1      7.2999999999999972       52.92499999999999      45.624999999999993
   195   1      9.1249999999999929      51.099999999999987      45.624999999999993
   196   1      9.1249999999999929       52.92499999999999       43.79999999999999
   197   1      7.2999999999999972      51.099999999999987      47.449999999999996
   198   1      7.2999999999999972       52.92499999999999      49.274999999999999
   199   1      9.1249999999999929      51.099999999999987      49.274999999999999
   200   1      9.1249999999999929       52.92499999999999      47.449999999999996
   201   1      7.2999999999999972      51.099999999999987      51.099999999999987
   202   1      7.2999999999999972       52.92499999999999       52.92499999999999
   203   1      9.1249999999999929      51.099999999999987       52.92499999999999
   204   1      9.1249999999999929       52.92499999999999      51.099999999999987
   205   1      7.2999999999999972      51.099999999999987      54.749999999999986
   206   1      7.2999999999999972       52.92499999999999      56.574999999999989
   207   1      9.1249999999999929      51.099999999999987      56.574999999999989
   208   1      9.1249999999999929       52.92499999999999      54.749999999999986
   209   1      7.2999999999999972      51.099999999999987      58.399999999999984
   210   1      7.2999999999999972       52.92499999999999      60.224999999999987
   211   1      9.1249999999999929      51.099999999999987      60.224999999999987
   212   1      9.1249999999999929       52.92499999999999      58.399999999999984
   213   1      7.2999999999999972      51.099999999999987      62.049999999999997
   214   1      7.2999999999999972       52.92499999999999                  63.875
   215   1      9.1249999999999929      51.099999999999987                  63.875
   216   1      9.1249999999999929       52.92499999999999      62.049999999999997
   217   1      7.2999999999999972      51.099999999999987      65.699999999999989
   218   1      9.1249999999999929      51.099999999999987      67.524999999999991
   219   1      9.1249999999999929       52.92499999999999      65.699999999999989
   220   1      9.1249999999999929      54.749999999999986      38.324999999999996
   221   1      7.2999999999999972      54.749999999999986      40.149999999999991
   222   1      7.2999999999999972      56.574999999999989      41.974999999999994
   223   1      9.1249999999999929      54.749999999999986      41.974999999999994
   224   1      9.1249999999999929      56.574999999999989      40.149999999999991
   225   1      7.2999999999999972      54.749999999999986       43.79999999999999
   226   1      7.2999999999999972      56.574999999999989      45.624999999999993
   227   1      9.1249999999999929      54.749999999999986      45.624999999999993
   228   1      9.1249999999999929      56.574999999999989       43.79999999999999
   229   1      7.2999999999999972      54.749999999999986      47.449999999999996
   230   1      7.2999999999999972      56.574999999999989      49.274999999999999
   231   1      9.1249999999999929      54.749999999999986      49.274999999999999
   232   1      9.1249999999999929      56.574999999999989      47.449999999999996
   233   1      7.2999999999999972      54.749999999999986      51.099999999999987
   234   1      7.2999999999999972      56.574999999999989       52.92499999999999
   235   1      9.1249999999999929      54.749999999999986       52.92499999999999
   236   1      9.1249999999999929      56.574999999999989      51.099999999999987
   237   1      7.2999999999999972      54.749999999999986      54.749999999999986
   238   1      7.2999999999999972      56.574999999999989      56.574999999999989
   239   1      9.1249999999999929      54.749999999999986      56.574999999999989
   240   1      9.1249999999999929      56.574999999999989      54.749999999999986
   241   1      7.2999999999999972      54.749999999999986      58.399999999999984
   242   1      7.2999999999999972      56.574999999999989      60.224999999999987
   243   1      9.1249999999999929      54.749999999999986      60.224999999999987
   244   1      9.1249999999999929      56.574999999999989      58.399999999999984
   245   1      7.2999999999999972      54.749999999999986      62.049999999999997
   246   1      9.1249999999999929      54.749999999999986                  63.875
   247   1      9.1249999999999929      56.574999999999989      62.049999999999997
   248   1      9.1249999999999929      58.399999999999984      38.324999999999996
   249   1      9.1249999999999929      58.399999999999984      41.974999999999994
   250   1      9.1249999999999929      60.224999999999987      40.149999999999991
   251   1      7.2999999999999972      58.399999999999984       43.79999999999999
   252   1      7.2999999999999972      60.224999999999987      45.624999999999993
   253   1      9.1249999999999929      58.399999999999984      45.624999999999993
   254   1      9.1249999999999929      60.224999999999987       43.79999999999999
   255   1      7.2999999999999972      58.399999999999984      47.449999999999996
   256   1      7.2999999999999972      60.224999999999987      49.274999999999999
   257   1      9.1249999999999929      58.399999999999984      49.274999999999999
   258   1      9.1249999999999929      60.224999999999987      47.449999999999996
   259   1      7.2999999999999972      58.399999999999984      51.099999999999987
   260   1      7.2999999999999972      60.224999999999987       52.92499999999999
   261   1      9.1249999999999929      58.399999999999984       52.92499999999999
   262   1      9.1249999999999929      60.224999999999987      51.099999999999987
   263   1      7.2999999999999972      58.399999999999984      54.749999999999986
   264   1      7.2999999999999972      60.224999999999987      56.574999999999989
   265   1      9.1249999999999929      58.399999999999984      56.574999999999989
   266   1      9.1249999999999929      60.224999999999987      54.749999999999986
   267   1      7.2999999999999972      58.399999999999984      58.399999999999984
   268   1      9.1249999999999929      58.399999999999984      60.224999999999987
   269   1      9.1249999999999929      60.224999999999987      58.399999999999984
   270   1      9.1249999999999929      58.399999999999984                  63.875
   271   1      9.1249999999999929      60.224999999999987      62.049999999999997
   272   1      9.1249999999999929      62.049999999999997      41.974999999999994
   273   1      9.1249999999999929      62.049999999999997      45.624999999999993
   274   1      9.1249999999999929                  63.875       43.79999999999999
   275   1      7.2999999999999972      62.049999999999997      47.449999999999996
   276   1      7.2999999999999972                  63.875      49.274999999999999
   277   1      9.1249999999999929      62.049999999999997      49.274999999999999
   278   1      9.1249999999999929                  63.875      47.449999999999996
   279   1      7.2999999999999972      62.049999999999997      51.099999999999987
   280   1      7.2999999999999972                  63.875       52.92499999999999
   281   1      9.1249999999999929      62.049999999999997       52.92499999999999
   282   1      9.1249999999999929                  63.875      51.099999999999987
   283   1      7.2999999999999972      62.049999999999997      54.749999999999986
   284   1      9.1249999999999929      62.049999999999997      56.574999999999989
   285   1      9.1249999999999929                  63.875      54.749999999999986
   286   1      9.1249999999999929      62.049999999999997      60.224999999999987
   287   1      9.1249999999999929                  63.875      58.399999999999984
   288   1      9.1249999999999929      65.699999999999989      49.274999999999999
   289   1      7.2999999999999972      65.699999999999989      51.099999999999987
   290   1      9.1249999999999929      65.699999999999989       52.92499999999999
   291   1      9.1249999999999929      67.524999999999991      51.099999999999987
   292   1      12.774999999999991      27.374999999999993      51.099999999999987
   293   1      12.774999999999991      29.199999999999992      49.274999999999999
   294   1      12.774999999999991      31.024999999999999      47.449999999999996
   295   1      12.774999999999991      29.199999999999992       52.92499999999999
   296   1      12.774999999999991      31.024999999999999      51.099999999999987
   297   1      12.774999999999991      31.024999999999999      54.749999999999986
   298   1      12.774999999999991      34.674999999999997      40.149999999999991
   299   1      10.949999999999996      34.674999999999997      45.624999999999993
   300   1      12.774999999999991      32.849999999999994      45.624999999999993
   301   1      12.774999999999991      34.674999999999997       43.79999999999999
   302   1      10.949999999999996      32.849999999999994      47.449999999999996
   303   1      10.949999999999996      34.674999999999997      49.274999999999999
   304   1      12.774999999999991      32.849999999999994      49.274999999999999
   305   1      12.774999999999991      34.674999999999997      47.449999999999996
   306   1      10.949999999999996      32.849999999999994      51.099999999999987
   307   1      10.949999999999996      34.674999999999997       52.92499999999999
   308   1      12.774999999999991      32.849999999999994       52.92499999999999
   309   1      12.774999999999991      34.674999999999997      51.099999999999987
   310   1      10.949999999999996      32.849999999999994      54.749999999999986
   311   1      10.949999999999996      34.674999999999997      56.574999999999989
   312   1      12.774999999999991      32.849999999999994      56.574999999999989
   313   1      12.774999999999991      34.674999999999997      54.749999999999986
   314   1      12.774999999999991      34.674999999999997      58.399999999999984
   315   1      12.774999999999991      34.674999999999997      62.049999999999997
   316   1      12.774999999999991      36.499999999999993      38.324999999999996
   317   1      12.774999999999991      38.324999999999996      36.499999999999993
   318   1      10.949999999999996      38.324999999999996      41.974999999999994
   319   1      12.774999999999991      36.499999999999993      41.974999999999994
   320   1      12.774999999999991      38.324999999999996      40.149999999999991
   321   1      10.949999999999996      36.499999999999993       43.79999999999999
   322   1      10.949999999999996      38.324999999999996      45.624999999999993
   323   1      12.774999999999991      36.499999999999993      45.624999999999993
   324   1      12.774999999999991      38.324999999999996       43.79999999999999
   325   1      10.949999999999996      36.499999999999993      47.449999999999996
   326   1      10.949999999999996      38.324999999999996      49.274999999999999
   327   1      12.774999999999991      36.499999999999993      49.274999999999999
   328   1      12.774999999999991      38.324999999999996      47.449999999999996
   329   1      10.949999999999996      36.499999999999993      51.099999999999987
   330   1      10.949999999999996      38.324999999999996       52.92499999999999
   331   1      12.774999999999991      36.499999999999993       52.92499999999999
   332   1      12.774999999999991      38.324999999999996      51.099999999999987
   333   1      10.949999999999996      36.499999999999993      54.749999999999986
   334   1      10.949999999999996      38.324999999999996      56.574999999999989
   335   1      12.774999999999991      36.499999999999993      56.574999999999989
   336   1      12.774999999999991      38.324999999999996      54.749999999999986
   337   1      10.949999999999996      36.499999999999993      58.399999999999984
   338   1      10.949999999999996      38.324999999999996      60.224999999999987
   339   1      12.774999999999991      36.499999999999993      60.224999999999987
   340   1      12.774999999999991      38.324999999999996      58.399999999999984
   341   1      12.774999999999991      36.499999999999993                  63.875
   342   1      12.774999999999991      38.324999999999996      62.049999999999997
   343   1      12.774999999999991      38.324999999999996      65.699999999999989
   344   1      12.774999999999991      40.149999999999991      34.674999999999997
   345   1      10.949999999999996      41.974999999999994      38.324999999999996
   346   1      12.774999999999991      40.149999999999991      38.324999999999996
   347   1      12.774999999999991      41.974999999999994      36.499999999999993
   348   1      10.949999999999996      40.149999999999991      40.149999999999991
   349   1      10.949999999999996      41.974999999999994      41.974999999999994
   350   1      12.774999999999991      40.149999999999991      41.974999999999994
   351   1      12.774999999999991      41.974999999999994      40.149999999999991
   352   1      10.949999999999996      40.149999999999991       43.79999999999999
   353   1      10.949999999999996      41.974999999999994      45.624999999999993
   354   1      12.774999999999991      40.149999999999991      45.624999999999993
   355   1      12.774999999999991      41.974999999999994       43.79999999999999
   356   1      10.949999999999996      40.149999999999991      47.449999999999996
   357   1      10.949999999999996      41.974999999999994      49.274999999999999
   358   1      12.774999999999991      40.149999999999991      49.274999999999999