model_files/PdCu/PdCu_30000/PdCu_100/PdCu_100_fcc_29659_temp.data (written by ASE) 

29659 	 atoms 
2  atom types
0.0                      73  xlo xhi
0.0                      73  ylo yhi
0.0                      73  zlo zhi


Atoms 

     1   1                       0                       0      1.8874999999999955
     2   1                       0                       0      5.6624999999999979
     3   1                       0                       0      9.4374999999999947
     4   1                       0                       0      13.212499999999997
     5   1                       0                       0      16.987499999999997
     6   1                       0                       0      20.762499999999996
     7   1                       0                       0      24.537499999999998
     8   1                       0                       0      28.312499999999993
     9   1                       0                       0      32.087499999999999
    10   1                       0                       0      35.862499999999997
    11   1                       0                       0      39.637499999999996
    12   1                       0                       0      43.412499999999987
    13   1                       0                       0      47.187499999999986
    14   1                       0                       0      50.962499999999999
    15   1                       0                       0      54.737499999999997
    16   1                       0                       0      58.512499999999996
    17   1                       0                       0      62.287499999999994
    18   1                       0                       0                 66.0625
    19   1                       0                       0      69.837499999999991
    20   1                       0      1.8874999999999955                       0
    21   1                       0      1.8874999999999955      3.7749999999999981
    22   1                       0      3.7749999999999981      1.8874999999999955
    23   1                       0      1.8874999999999955      7.5499999999999963
    24   1                       0      3.7749999999999981      5.6624999999999979
    25   1                       0      1.8874999999999955      11.324999999999996
    26   1                       0      3.7749999999999981      9.4374999999999947
    27   1                       0      1.8874999999999955      15.099999999999996
    28   1                       0      3.7749999999999981      13.212499999999997
    29   1                       0      1.8874999999999955      18.874999999999993
    30   1                       0      3.7749999999999981      16.987499999999997
    31   1                       0      1.8874999999999955      22.649999999999995
    32   1                       0      3.7749999999999981      20.762499999999996
    33   1                       0      1.8874999999999955      26.424999999999994
    34   1                       0      3.7749999999999981      24.537499999999998
    35   1                       0      1.8874999999999955      30.199999999999992
    36   1                       0      3.7749999999999981      28.312499999999993
    37   1                       0      1.8874999999999955      33.975000000000001
    38   1                       0      3.7749999999999981      32.087499999999999
    39   1                       0      1.8874999999999955                   37.75
    40   1                       0      3.7749999999999981      35.862499999999997
    41   1                       0      1.8874999999999955      41.524999999999999
    42   1                       0      3.7749999999999981      39.637499999999996
    43   1                       0      1.8874999999999955      45.299999999999997
    44   1                       0      3.7749999999999981      43.412499999999987
    45   1                       0      1.8874999999999955      49.074999999999996
    46   1                       0      3.7749999999999981      47.187499999999986
    47   1                       0      1.8874999999999955      52.849999999999994
    48   1                       0      3.7749999999999981      50.962499999999999
    49   1                       0      1.8874999999999955      56.624999999999993
    50   1                       0      3.7749999999999981      54.737499999999997
    51   1                       0      1.8874999999999955      60.399999999999991
    52   1                       0      3.7749999999999981      58.512499999999996
    53   1                       0      1.8874999999999955      64.174999999999997
    54   1                       0      3.7749999999999981      62.287499999999994
    55   1                       0      1.8874999999999955      67.950000000000003
    56   1                       0      3.7749999999999981                 66.0625
    57   1                       0      1.8874999999999955      71.724999999999994
    58   1                       0      3.7749999999999981      69.837499999999991
    59   1                       0      5.6624999999999979                       0
    60   1                       0      5.6624999999999979      3.7749999999999981
    61   1                       0      7.5499999999999963      1.8874999999999955
    62   1                       0      5.6624999999999979      7.5499999999999963
    63   1                       0      7.5499999999999963      5.6624999999999979
    64   1                       0      5.6624999999999979      11.324999999999996
    65   1                       0      7.5499999999999963      9.4374999999999947
    66   1                       0      5.6624999999999979      15.099999999999996
    67   1                       0      7.5499999999999963      13.212499999999997
    68   1                       0      5.6624999999999979      18.874999999999993
    69   1                       0      7.5499999999999963      16.987499999999997
    70   1                       0      5.6624999999999979      22.649999999999995
    71   1                       0      7.5499999999999963      20.762499999999996
    72   1                       0      5.6624999999999979      26.424999999999994
    73   1                       0      7.5499999999999963      24.537499999999998
    74   1                       0      5.6624999999999979      30.199999999999992
    75   1                       0      7.5499999999999963      28.312499999999993
    76   1                       0      5.6624999999999979      33.975000000000001
    77   1                       0      7.5499999999999963      32.087499999999999
    78   1                       0      5.6624999999999979                   37.75
    79   1                       0      7.5499999999999963      35.862499999999997
    80   1                       0      5.6624999999999979      41.524999999999999
    81   1                       0      7.5499999999999963      39.637499999999996
    82   1                       0      5.6624999999999979      45.299999999999997
    83   1                       0      7.5499999999999963      43.412499999999987
    84   1                       0      5.6624999999999979      49.074999999999996
    85   1                       0      7.5499999999999963      47.187499999999986
    86   1                       0      5.6624999999999979      52.849999999999994
    87   1                       0      7.5499999999999963      50.962499999999999
    88   1                       0      5.6624999999999979      56.624999999999993
    89   1                       0      7.5499999999999963      54.737499999999997
    90   1                       0      5.6624999999999979      60.399999999999991
    91   1                       0      7.5499999999999963      58.512499999999996
    92   1                       0      5.6624999999999979      64.174999999999997
    93   1                       0      7.5499999999999963      62.287499999999994
    94   1                       0      5.6624999999999979      67.950000000000003
    95   1                       0      7.5499999999999963                 66.0625
    96   1                       0      5.6624999999999979      71.724999999999994
    97   1                       0      7.5499999999999963      69.837499999999991
    98   1                       0      9.4374999999999947                       0
    99   1                       0      9.4374999999999947      3.7749999999999981
   100   1                       0      11.324999999999996      1.8874999999999955
   101   1                       0      9.4374999999999947      7.5499999999999963
   102   1                       0      11.324999999999996      5.6624999999999979
   103   1                       0      9.4374999999999947      11.324999999999996
   104   1                       0      11.324999999999996      9.4374999999999947
   105   1                       0      9.4374999999999947      15.099999999999996
   106   1                       0      11.324999999999996      13.212499999999997
   107   1                       0      9.4374999999999947      18.874999999999993
   108   1                       0      11.324999999999996      16.987499999999997
   109   1                       0      9.4374999999999947      22.649999999999995
   110   1                       0      11.324999999999996      20.762499999999996
   111   1                       0      9.4374999999999947      26.424999999999994
   112   1                       0      11.324999999999996      24.537499999999998
   113   1                       0      9.4374999999999947      30.199999999999992
   114   1                       0      11.324999999999996      28.312499999999993
   115   1                       0      9.4374999999999947      33.975000000000001
   116   1                       0      11.324999999999996      32.087499999999999
   117   1                       0      9.4374999999999947                   37.75
   118   1                       0      11.324999999999996      35.862499999999997
   119   1                       0      9.4374999999999947      41.524999999999999
   120   1                       0      11.324999999999996      39.637499999999996
   121   1                       0      9.4374999999999947      45.299999999999997
   122   1                       0      11.324999999999996      43.412499999999987
   123   1                       0      9.4374999999999947      49.074999999999996
   124   1                       0      11.324999999999996      47.187499999999986
   125   1                       0      9.4374999999999947      52.849999999999994
   126   1                       0      11.324999999999996      50.962499999999999
   127   1                       0      9.4374999999999947      56.624999999999993
   128   1                       0      11.324999999999996      54.737499999999997
   129   1                       0      9.4374999999999947      60.399999999999991
   130   1                       0      11.324999999999996      58.512499999999996
   131   1                       0      9.4374999999999947      64.174999999999997
   132   1                       0      11.324999999999996      62.287499999999994
   133   1                       0      9.4374999999999947      67.950000000000003
   134   1                       0      11.324999999999996                 66.0625
   135   1                       0      9.4374999999999947      71.724999999999994
   136   1                       0      11.324999999999996      69.837499999999991
   137   1                       0      13.212499999999997                       0
   138   1                       0      13.212499999999997      3.7749999999999981
   139   1                       0      15.099999999999996      1.8874999999999955
   140   1                       0      13.212499999999997      7.5499999999999963
   141   1                       0      15.099999999999996      5.6624999999999979
   142   1                       0      13.212499999999997      11.324999999999996
   143   1                       0      15.099999999999996      9.4374999999999947
   144   1                       0      13.212499999999997      15.099999999999996
   145   1                       0      15.099999999999996      13.212499999999997
   146   1                       0      13.212499999999997      18.874999999999993
   147   1                       0      15.099999999999996      16.987499999999997
   148   1                       0      13.212499999999997      22.649999999999995
   149   1                       0      15.099999999999996      20.762499999999996
   150   1                       0      13.212499999999997      26.424999999999994
   151   1                       0      15.099999999999996      24.537499999999998
   152   1                       0      13.212499999999997      30.199999999999992
   153   1                       0      15.099999999999996      28.312499999999993
   154   1                       0      13.212499999999997      33.975000000000001
   155   1                       0      15.099999999999996      32.087499999999999
   156   1                       0      13.212499999999997                   37.75
   157   1                       0      15.099999999999996      35.862499999999997
   158   1                       0      13.212499999999997      41.524999999999999
   159   1                       0      15.099999999999996      39.637499999999996
   160   1                       0      13.212499999999997      45.299999999999997
   161   1                       0      15.099999999999996      43.412499999999987
   162   1                       0      13.212499999999997      49.074999999999996
   163   1                       0      15.099999999999996      47.187499999999986
   164   1                       0      13.212499999999997      52.849999999999994
   165   1                       0      15.099999999999996      50.962499999999999
   166   1                       0      13.212499999999997      56.624999999999993
   167   1                       0      15.099999999999996      54.737499999999997
   168   1                       0      13.212499999999997      60.399999999999991
   169   1                       0      15.099999999999996      58.512499999999996
   170   1                       0      13.212499999999997      64.174999999999997
   171   1                       0      15.099999999999996      62.287499999999994
   172   1                       0      13.212499999999997      67.950000000000003
   173   1                       0      15.099999999999996                 66.0625
   174   1                       0      13.212499999999997      71.724999999999994
   175   1                       0      15.099999999999996      69.837499999999991
   176   1                       0      16.987499999999997                       0
   177   1                       0      16.987499999999997      3.7749999999999981
   178   1                       0      18.874999999999993      1.8874999999999955
   179   1                       0      16.987499999999997      7.5499999999999963
   180   1                       0      18.874999999999993      5.6624999999999979
   181   1                       0      16.987499999999997      11.324999999999996
   182   1                       0      18.874999999999993      9.4374999999999947
   183   1                       0      16.987499999999997      15.099999999999996
   184   1                       0      18.874999999999993      13.212499999999997
   185   1                       0      16.987499999999997      18.874999999999993
   186   1                       0      18.874999999999993      16.987499999999997
   187   1                       0      16.987499999999997      22.649999999999995
   188   1                       0      18.874999999999993      20.762499999999996
   189   1                       0      16.987499999999997      26.424999999999994
   190   1                       0      18.874999999999993      24.537499999999998
   191   1                       0      16.987499999999997      30.199999999999992
   192   1                       0      18.874999999999993      28.312499999999993
   193   1                       0      16.987499999999997      33.975000000000001
   194   1                       0      18.874999999999993      32.087499999999999
   195   1                       0      16.987499999999997                   37.75
   196   1                       0      18.874999999999993      35.862499999999997
   197   1                       0      16.987499999999997      41.524999999999999
   198   1                       0      18.874999999999993      39.637499999999996
   199   1                       0      16.987499999999997      45.299999999999997
   200   1                       0      18.874999999999993      43.412499999999987
   201   1                       0      16.987499999999997      49.074999999999996
   202   1                       0      18.874999999999993      47.187499999999986
   203   1                       0      16.987499999999997      52.849999999999994
   204   1                       0      18.874999999999993      50.962499999999999
   205   1                       0      16.987499999999997      56.624999999999993
   206   1                       0      18.874999999999993      54.737499999999997
   207   1                       0      16.987499999999997      60.399999999999991
   208   1                       0      18.874999999999993      58.512499999999996
   209   1                       0      16.987499999999997      64.174999999999997
   210   1                       0      18.874999999999993      62.287499999999994
   211   1                       0      16.987499999999997      67.950000000000003
   212   1                       0      18.874999999999993                 66.0625
   213   1                       0      16.987499999999997      71.724999999999994
   214   1                       0      18.874999999999993      69.837499999999991
   215   1                       0      20.762499999999996                       0
   216   1                       0      20.762499999999996      3.7749999999999981
   217   1                       0      22.649999999999995      1.8874999999999955
   218   1                       0      20.762499999999996      7.5499999999999963
   219   1                       0      22.649999999999995      5.6624999999999979
   220   1                       0      20.762499999999996      11.324999999999996
   221   1                       0      22.649999999999995      9.4374999999999947
   222   1                       0      20.762499999999996      15.099999999999996
   223   1                       0      22.649999999999995      13.212499999999997
   224   1                       0      20.762499999999996      18.874999999999993
   225   1                       0      22.649999999999995      16.987499999999997
   226   1                       0      20.762499999999996      22.649999999999995
   227   1                       0      22.649999999999995      20.762499999999996
   228   1                       0      20.762499999999996      26.424999999999994
   229   1                       0      22.649999999999995      24.537499999999998
   230   1                       0      20.762499999999996      30.199999999999992
   231   1                       0      22.649999999999995      28.312499999999993
   232   1                       0      20.762499999999996      33.975000000000001
   233   1                       0      22.649999999999995      32.087499999999999
   234   1                       0      20.762499999999996                   37.75
   235   1                       0      22.649999999999995      35.862499999999997
   236   1                       0      20.762499999999996      41.524999999999999
   237   1                       0      22.649999999999995      39.637499999999996
   238   1                       0      20.762499999999996      45.299999999999997
   239   1                       0      22.649999999999995      43.412499999999987
   240   1                       0      20.762499999999996      49.074999999999996
   241   1                       0      22.649999999999995      47.187499999999986
   242   1                       0      20.762499999999996      52.849999999999994
   243   1                       0      22.649999999999995      50.962499999999999
   244   1                       0      20.762499999999996      56.624999999999993
   245   1                       0      22.649999999999995      54.737499999999997
   246   1                       0      20.762499999999996      60.399999999999991
   247   1                       0      22.649999999999995      58.512499999999996
   248   1                       0      20.762499999999996      64.174999999999997
   249   1                       0      22.649999999999995      62.287499999999994
   250   1                       0      20.762499999999996      67.950000000000003
   251   1                       0      22.649999999999995                 66.0625
   252   1                       0      20.762499999999996      71.724999999999994
   253   1                       0      22.649999999999995      69.837499999999991
   254   1                       0      24.537499999999998                       0
   255   1                       0      24.537499999999998      3.7749999999999981
   256   1                       0      26.424999999999994      1.8874999999999955
   257   1                       0      24.537499999999998      7.5499999999999963
   258   1                       0      26.424999999999994      5.6624999999999979
   259   1                       0      24.537499999999998      11.324999999999996
   260   1                       0      26.424999999999994      9.4374999999999947
   261   1                       0      24.537499999999998      15.099999999999996
   262   1                       0      26.424999999999994      13.212499999999997
   263   1                       0      24.537499999999998      18.874999999999993
   264   1                       0      26.424999999999994      16.987499999999997
   265   1                       0      24.537499999999998      22.649999999999995
   266   1                       0      26.424999999999994      20.762499999999996
   267   1                       0      24.537499999999998      26.424999999999994
   268   1                       0      26.424999999999994      24.537499999999998
   269   1                       0      24.537499999999998      30.199999999999992
   270   1                       0      26.424999999999994      28.312499999999993
   271   1                       0      24.537499999999998      33.975000000000001
   272   1                       0      26.424999999999994      32.087499999999999
   273   1                       0      24.537499999999998                   37.75
   274   1                       0      26.424999999999994      35.862499999999997
   275   1                       0      24.537499999999998      41.524999999999999
   276   1                       0      26.424999999999994      39.637499999999996
   277   1                       0      24.537499999999998      45.299999999999997
   278   1                       0      26.424999999999994      43.412499999999987
   279   1                       0      24.537499999999998      49.074999999999996
   280   1                       0      26.424999999999994      47.187499999999986
   281   1                       0      24.537499999999998      52.849999999999994
   282   1                       0      26.424999999999994      50.962499999999999
   283   1                       0      24.537499999999998      56.624999999999993
   284   1                       0      26.424999999999994      54.737499999999997
   285   1                       0      24.537499999999998      60.399999999999991
   286   1                       0      26.424999999999994      58.512499999999996
   287   1                       0      24.537499999999998      64.174999999999997
   288   1                       0      26.424999999999994      62.287499999999994
   289   1                       0      24.537499999999998      67.950000000000003
   290   1                       0      26.424999999999994                 66.0625
   291   1                       0      24.537499999999998      71.724999999999994
   292   1                       0      26.424999999999994      69.837499999999991
   293   1                       0      28.312499999999993                       0
   294   1                       0      28.312499999999993      3.7749999999999981
   295   1                       0      30.199999999999992      1.8874999999999955
   296   1                       0      28.312499999999993      7.5499999999999963
   297   1                       0      30.199999999999992      5.6624999999999979
   298   1                       0      28.312499999999993      11.324999999999996
   299   1                       0      30.199999999999992      9.4374999999999947
   300   1                       0      28.312499999999993      15.099999999999996
   301   1                       0      30.199999999999992      13.212499999999997
   302   1                       0      28.312499999999993      18.874999999999993
   303   1                       0      30.199999999999992      16.987499999999997
   304   1                       0      28.312499999999993      22.649999999999995
   305   1                       0      30.199999999999992      20.762499999999996
   306   1                       0      28.312499999999993      26.424999999999994
   307   1                       0      30.199999999999992      24.537499999999998
   308   1                       0      28.312499999999993      30.199999999999992
   309   1                       0      30.199999999999992      28.312499999999993
   310   1                       0      28.312499999999993      33.975000000000001
   311   1                       0      30.199999999999992      32.087499999999999
   312   1                       0      28.312499999999993                   37.75
   313   1                       0      30.199999999999992      35.862499999999997
   314   1                       0      28.312499999999993      41.524999999999999
   315   1                       0      30.199999999999992      39.637499999999996
   316   1                       0      28.312499999999993      45.299999999999997
   317   1                       0      30.199999999999992      43.412499999999987
   318   1                       0      28.312499999999993      49.074999999999996
   319   1                       0      30.199999999999992      47.187499999999986
   320   1                       0      28.312499999999993      52.849999999999994
   321   1                       0      30.199999999999992      50.962499999999999
   322   1                       0      28.312499999999993      56.624999999999993
   323   1                       0      30.199999999999992      54.737499999999997
   324   1                       0      28.312499999999993      60.399999999999991
   325   1                       0      30.199999999999992      58.512499999999996
   326   1                       0      28.312499999999993      64.174999999999997
   327   1                       0      30.199999999999992      62.287499999999994
   328   1                       0      28.312499999999993      67.950000000000003
   329   1                       0      30.199999999999992                 66.0625
   330   1                       0      28.312499999999993      71.724999999999994
   331   1                       0      30.199999999999992      69.837499999999991
   332   1                       0      32.087499999999999                       0
   333   1                       0      32.087499999999999      3.7749999999999981
   334   1                       0      33.975000000000001      1.8874999999999955
   335   1                       0      32.087499999999999      7.5499999999999963
   336   1                       0      33.975000000000001      5.6624999999999979
   337   1                       0      32.087499999999999      11.324999999999996
   338   1                       0      33.975000000000001      9.4374999999999947
   339   1                       0      32.087499999999999      15.099999999999996
   340   1                       0      33.975000000000001      13.212499999999997
   341   1                       0      32.087499999999999      18.874999999999993
   342   1                       0      33.975000000000001      16.987499999999997
   343   1                       0      32.087499999999999      22.649999999999995
   344   1                       0      33.975000000000001      20.762499999999996
   345   1                       0      32.087499999999999      26.424999999999994
   346   1                       0      33.975000000000001      24.537499999999998
   347   1                       0      32.087499999999999      30.199999999999992
   348   1                       0      33.975000000000001      28.312499999999993
   349   1                       0      32.087499999999999      33.975000000000001
   350   1                       0      33.975000000000001      32.087499999999999
   351   1                       0      32.087499999999999                   37.75
   352   1                       0      33.975000000000001      35.862499999999997
   353   1                       0      32.087499999999999      41.524999999999999
   354   1                       0      33.975000000000001      39.637499999999996
   355   1                       0      32.087499999999999      45.299999999999997
   356   1                       0      33.975000000000001      43.412499999999987
   357   1                       0      32.087499999999999      49.074999999999996
   358   1                       0      33.975000000000001      47.187499999999986