model_files/Fe/Fe_30000/Fe_410/data.Fe_410_bcc_29755 (written by ASE) 

29755 	 atoms 
1  atom types
0.0                      65  xlo xhi
0.0                      65  ylo yhi
0.0                      65  zlo zhi


Atoms 

     1   1      1.4349999999999954      22.959999999999997      24.394999999999996
     2   1      1.4349999999999954      24.394999999999996      22.959999999999997
     3   1      1.4349999999999954      22.959999999999997       27.26499999999999
     4   1      1.4349999999999954      24.394999999999996      25.829999999999995
     5   1      1.4349999999999954      22.959999999999997      30.134999999999991
     6   1      1.4349999999999954      24.394999999999996      28.699999999999992
     7   1      1.4349999999999954      22.959999999999997      33.004999999999995
     8   1      1.4349999999999954      24.394999999999996      31.569999999999993
     9   1      1.4349999999999954      22.959999999999997      35.874999999999993
    10   1      1.4349999999999954      24.394999999999996      34.439999999999991
    11   1      1.4349999999999954      22.959999999999997       38.74499999999999
    12   1      1.4349999999999954      24.394999999999996      37.309999999999988
    13   1      1.4349999999999954      24.394999999999996      40.179999999999993
    14   1      1.4349999999999954      25.829999999999995      24.394999999999996
    15   1      1.4349999999999954       27.26499999999999      22.959999999999997
    16   1      1.4349999999999954      25.829999999999995       27.26499999999999
    17   1      1.4349999999999954       27.26499999999999      25.829999999999995
    18   1      1.4349999999999954      25.829999999999995      30.134999999999991
    19   1      1.4349999999999954       27.26499999999999      28.699999999999992
    20   1      1.4349999999999954      25.829999999999995      33.004999999999995
    21   1      1.4349999999999954       27.26499999999999      31.569999999999993
    22   1      1.4349999999999954      25.829999999999995      35.874999999999993
    23   1      1.4349999999999954       27.26499999999999      34.439999999999991
    24   1      1.4349999999999954      25.829999999999995       38.74499999999999
    25   1      1.4349999999999954       27.26499999999999      37.309999999999988
    26   1      1.4349999999999954       27.26499999999999      40.179999999999993
    27   1      1.4349999999999954      28.699999999999992      24.394999999999996
    28   1      1.4349999999999954      30.134999999999991      22.959999999999997
    29   1      1.4349999999999954      28.699999999999992       27.26499999999999
    30   1      1.4349999999999954      30.134999999999991      25.829999999999995
    31   1                      65      28.699999999999992      28.699999999999992
    32   1                      65      30.134999999999991      30.134999999999991
    33   1      1.4349999999999954      28.699999999999992      30.134999999999991
    34   1      1.4349999999999954      30.134999999999991      28.699999999999992
    35   1                      65      28.699999999999992      31.569999999999993
    36   1                      65      30.134999999999991      33.004999999999995
    37   1      1.4349999999999954      28.699999999999992      33.004999999999995
    38   1      1.4349999999999954      30.134999999999991      31.569999999999993
    39   1                      65      28.699999999999992      34.439999999999991
    40   1      1.4349999999999954      28.699999999999992      35.874999999999993
    41   1      1.4349999999999954      30.134999999999991      34.439999999999991
    42   1      1.4349999999999954      28.699999999999992       38.74499999999999
    43   1      1.4349999999999954      30.134999999999991      37.309999999999988
    44   1      1.4349999999999954      30.134999999999991      40.179999999999993
    45   1      1.4349999999999954      31.569999999999993      24.394999999999996
    46   1      1.4349999999999954      33.004999999999995      22.959999999999997
    47   1      1.4349999999999954      31.569999999999993       27.26499999999999
    48   1      1.4349999999999954      33.004999999999995      25.829999999999995
    49   1                      65      31.569999999999993      28.699999999999992
    50   1                      65      33.004999999999995      30.134999999999991
    51   1      1.4349999999999954      31.569999999999993      30.134999999999991
    52   1      1.4349999999999954      33.004999999999995      28.699999999999992
    53   1                      65      31.569999999999993      31.569999999999993
    54   1                      65      33.004999999999995      33.004999999999995
    55   1      1.4349999999999954      31.569999999999993      33.004999999999995
    56   1      1.4349999999999954      33.004999999999995      31.569999999999993
    57   1                      65      31.569999999999993      34.439999999999991
    58   1      1.4349999999999954      31.569999999999993      35.874999999999993
    59   1      1.4349999999999954      33.004999999999995      34.439999999999991
    60   1      1.4349999999999954      31.569999999999993       38.74499999999999
    61   1      1.4349999999999954      33.004999999999995      37.309999999999988
    62   1      1.4349999999999954      33.004999999999995      40.179999999999993
    63   1      1.4349999999999954      34.439999999999991      24.394999999999996
    64   1      1.4349999999999954      35.874999999999993      22.959999999999997
    65   1      1.4349999999999954      34.439999999999991       27.26499999999999
    66   1      1.4349999999999954      35.874999999999993      25.829999999999995
    67   1                      65      34.439999999999991      28.699999999999992
    68   1      1.4349999999999954      34.439999999999991      30.134999999999991
    69   1      1.4349999999999954      35.874999999999993      28.699999999999992
    70   1                      65      34.439999999999991      31.569999999999993
    71   1      1.4349999999999954      34.439999999999991      33.004999999999995
    72   1      1.4349999999999954      35.874999999999993      31.569999999999993
    73   1                      65      34.439999999999991      34.439999999999991
    74   1      1.4349999999999954      34.439999999999991      35.874999999999993
    75   1      1.4349999999999954      35.874999999999993      34.439999999999991
    76   1      1.4349999999999954      34.439999999999991       38.74499999999999
    77   1      1.4349999999999954      35.874999999999993      37.309999999999988
    78   1      1.4349999999999954      35.874999999999993      40.179999999999993
    79   1      1.4349999999999954      37.309999999999988      24.394999999999996
    80   1      1.4349999999999954       38.74499999999999      22.959999999999997
    81   1      1.4349999999999954      37.309999999999988       27.26499999999999
    82   1      1.4349999999999954       38.74499999999999      25.829999999999995
    83   1      1.4349999999999954      37.309999999999988      30.134999999999991
    84   1      1.4349999999999954       38.74499999999999      28.699999999999992
    85   1      1.4349999999999954      37.309999999999988      33.004999999999995
    86   1      1.4349999999999954       38.74499999999999      31.569999999999993
    87   1      1.4349999999999954      37.309999999999988      35.874999999999993
    88   1      1.4349999999999954       38.74499999999999      34.439999999999991
    89   1      1.4349999999999954      37.309999999999988       38.74499999999999
    90   1      1.4349999999999954       38.74499999999999      37.309999999999988
    91   1      1.4349999999999954       38.74499999999999      40.179999999999993
    92   1      1.4349999999999954      40.179999999999993      24.394999999999996
    93   1      1.4349999999999954      40.179999999999993       27.26499999999999
    94   1      1.4349999999999954      40.179999999999993      30.134999999999991
    95   1      1.4349999999999954      40.179999999999993      33.004999999999995
    96   1      1.4349999999999954      40.179999999999993      35.874999999999993
    97   1      1.4349999999999954      40.179999999999993       38.74499999999999
    98   1      4.3049999999999926      11.479999999999995      12.914999999999994
    99   1      4.3049999999999926      12.914999999999994      11.479999999999995
   100   1      4.3049999999999926      11.479999999999995      15.784999999999993
   101   1      4.3049999999999926      12.914999999999994      14.349999999999994
   102   1      4.3049999999999926      11.479999999999995       18.65499999999999
   103   1      4.3049999999999926      12.914999999999994      17.219999999999992
   104   1      4.3049999999999926      11.479999999999995      21.524999999999991
   105   1      4.3049999999999926      12.914999999999994      20.089999999999993
   106   1      4.3049999999999926      11.479999999999995      24.394999999999996
   107   1      4.3049999999999926      12.914999999999994      22.959999999999997
   108   1      4.3049999999999926      11.479999999999995       27.26499999999999
   109   1      4.3049999999999926      12.914999999999994      25.829999999999995
   110   1      4.3049999999999926      11.479999999999995      30.134999999999991
   111   1      4.3049999999999926      12.914999999999994      28.699999999999992
   112   1      4.3049999999999926      11.479999999999995      33.004999999999995
   113   1      4.3049999999999926      12.914999999999994      31.569999999999993
   114   1      4.3049999999999926      11.479999999999995      35.874999999999993
   115   1      4.3049999999999926      12.914999999999994      34.439999999999991
   116   1      4.3049999999999926      11.479999999999995       38.74499999999999
   117   1      4.3049999999999926      12.914999999999994      37.309999999999988
   118   1      4.3049999999999926      11.479999999999995      41.614999999999995
   119   1      4.3049999999999926      12.914999999999994      40.179999999999993
   120   1      4.3049999999999926      11.479999999999995      44.484999999999992
   121   1      4.3049999999999926      12.914999999999994       43.04999999999999
   122   1      4.3049999999999926      11.479999999999995      47.354999999999997
   123   1      4.3049999999999926      12.914999999999994      45.919999999999995
   124   1      4.3049999999999926      11.479999999999995      50.225000000000001
   125   1      4.3049999999999926      12.914999999999994      48.789999999999999
   126   1      4.3049999999999926      12.914999999999994      51.659999999999997
   127   1      4.3049999999999926      14.349999999999994      12.914999999999994
   128   1      4.3049999999999926      15.784999999999993      11.479999999999995
   129   1      4.3049999999999926      14.349999999999994      15.784999999999993
   130   1      4.3049999999999926      15.784999999999993      14.349999999999994
   131   1      4.3049999999999926      14.349999999999994       18.65499999999999
   132   1      4.3049999999999926      15.784999999999993      17.219999999999992
   133   1      4.3049999999999926      14.349999999999994      21.524999999999991
   134   1      4.3049999999999926      15.784999999999993      20.089999999999993
   135   1      4.3049999999999926      14.349999999999994      24.394999999999996
   136   1      4.3049999999999926      15.784999999999993      22.959999999999997
   137   1      4.3049999999999926      14.349999999999994       27.26499999999999
   138   1      4.3049999999999926      15.784999999999993      25.829999999999995
   139   1      4.3049999999999926      14.349999999999994      30.134999999999991
   140   1      4.3049999999999926      15.784999999999993      28.699999999999992
   141   1      4.3049999999999926      14.349999999999994      33.004999999999995
   142   1      4.3049999999999926      15.784999999999993      31.569999999999993
   143   1      4.3049999999999926      14.349999999999994      35.874999999999993
   144   1      4.3049999999999926      15.784999999999993      34.439999999999991
   145   1      4.3049999999999926      14.349999999999994       38.74499999999999
   146   1      4.3049999999999926      15.784999999999993      37.309999999999988
   147   1      4.3049999999999926      14.349999999999994      41.614999999999995
   148   1      4.3049999999999926      15.784999999999993      40.179999999999993
   149   1      4.3049999999999926      14.349999999999994      44.484999999999992
   150   1      4.3049999999999926      15.784999999999993       43.04999999999999
   151   1      4.3049999999999926      14.349999999999994      47.354999999999997
   152   1      4.3049999999999926      15.784999999999993      45.919999999999995
   153   1      4.3049999999999926      14.349999999999994      50.225000000000001
   154   1      4.3049999999999926      15.784999999999993      48.789999999999999
   155   1      4.3049999999999926      15.784999999999993      51.659999999999997
   156   1      4.3049999999999926      17.219999999999992      12.914999999999994
   157   1      4.3049999999999926       18.65499999999999      11.479999999999995
   158   1      4.3049999999999926      17.219999999999992      15.784999999999993
   159   1      4.3049999999999926       18.65499999999999      14.349999999999994
   160   1      2.8699999999999943      17.219999999999992      17.219999999999992
   161   1      2.8699999999999943       18.65499999999999       18.65499999999999
   162   1      4.3049999999999926      17.219999999999992       18.65499999999999
   163   1      4.3049999999999926       18.65499999999999      17.219999999999992
   164   1      2.8699999999999943      17.219999999999992      20.089999999999993
   165   1      2.8699999999999943       18.65499999999999      21.524999999999991
   166   1      4.3049999999999926      17.219999999999992      21.524999999999991
   167   1      4.3049999999999926       18.65499999999999      20.089999999999993
   168   1      2.8699999999999943      17.219999999999992      22.959999999999997
   169   1      2.8699999999999943       18.65499999999999      24.394999999999996
   170   1      4.3049999999999926      17.219999999999992      24.394999999999996
   171   1      4.3049999999999926       18.65499999999999      22.959999999999997
   172   1      2.8699999999999943      17.219999999999992      25.829999999999995
   173   1      2.8699999999999943       18.65499999999999       27.26499999999999
   174   1      4.3049999999999926      17.219999999999992       27.26499999999999
   175   1      4.3049999999999926       18.65499999999999      25.829999999999995
   176   1      2.8699999999999943      17.219999999999992      28.699999999999992
   177   1      2.8699999999999943       18.65499999999999      30.134999999999991
   178   1      4.3049999999999926      17.219999999999992      30.134999999999991
   179   1      4.3049999999999926       18.65499999999999      28.699999999999992
   180   1      2.8699999999999943      17.219999999999992      31.569999999999993
   181   1      2.8699999999999943       18.65499999999999      33.004999999999995
   182   1      4.3049999999999926      17.219999999999992      33.004999999999995
   183   1      4.3049999999999926       18.65499999999999      31.569999999999993
   184   1      2.8699999999999943      17.219999999999992      34.439999999999991
   185   1      2.8699999999999943       18.65499999999999      35.874999999999993
   186   1      4.3049999999999926      17.219999999999992      35.874999999999993
   187   1      4.3049999999999926       18.65499999999999      34.439999999999991
   188   1      2.8699999999999943      17.219999999999992      37.309999999999988
   189   1      2.8699999999999943       18.65499999999999       38.74499999999999
   190   1      4.3049999999999926      17.219999999999992       38.74499999999999
   191   1      4.3049999999999926       18.65499999999999      37.309999999999988
   192   1      2.8699999999999943      17.219999999999992      40.179999999999993
   193   1      2.8699999999999943       18.65499999999999      41.614999999999995
   194   1      4.3049999999999926      17.219999999999992      41.614999999999995
   195   1      4.3049999999999926       18.65499999999999      40.179999999999993
   196   1      2.8699999999999943      17.219999999999992       43.04999999999999
   197   1      2.8699999999999943       18.65499999999999      44.484999999999992
   198   1      4.3049999999999926      17.219999999999992      44.484999999999992
   199   1      4.3049999999999926       18.65499999999999       43.04999999999999
   200   1      2.8699999999999943      17.219999999999992      45.919999999999995
   201   1      4.3049999999999926      17.219999999999992      47.354999999999997
   202   1      4.3049999999999926       18.65499999999999      45.919999999999995
   203   1      4.3049999999999926      17.219999999999992      50.225000000000001
   204   1      4.3049999999999926       18.65499999999999      48.789999999999999
   205   1      4.3049999999999926       18.65499999999999      51.659999999999997
   206   1      4.3049999999999926      20.089999999999993      12.914999999999994
   207   1      4.3049999999999926      21.524999999999991      11.479999999999995
   208   1      4.3049999999999926      20.089999999999993      15.784999999999993
   209   1      4.3049999999999926      21.524999999999991      14.349999999999994
   210   1      2.8699999999999943      20.089999999999993      17.219999999999992
   211   1      2.8699999999999943      21.524999999999991       18.65499999999999
   212   1      4.3049999999999926      20.089999999999993       18.65499999999999
   213   1      4.3049999999999926      21.524999999999991      17.219999999999992
   214   1      2.8699999999999943      20.089999999999993      20.089999999999993
   215   1      2.8699999999999943      21.524999999999991      21.524999999999991
   216   1      4.3049999999999926      20.089999999999993      21.524999999999991
   217   1      4.3049999999999926      21.524999999999991      20.089999999999993
   218   1      2.8699999999999943      20.089999999999993      22.959999999999997
   219   1      2.8699999999999943      21.524999999999991      24.394999999999996
   220   1      4.3049999999999926      20.089999999999993      24.394999999999996
   221   1      4.3049999999999926      21.524999999999991      22.959999999999997
   222   1      2.8699999999999943      20.089999999999993      25.829999999999995
   223   1      2.8699999999999943      21.524999999999991       27.26499999999999
   224   1      4.3049999999999926      20.089999999999993       27.26499999999999
   225   1      4.3049999999999926      21.524999999999991      25.829999999999995
   226   1      2.8699999999999943      20.089999999999993      28.699999999999992
   227   1      2.8699999999999943      21.524999999999991      30.134999999999991
   228   1      4.3049999999999926      20.089999999999993      30.134999999999991
   229   1      4.3049999999999926      21.524999999999991      28.699999999999992
   230   1      2.8699999999999943      20.089999999999993      31.569999999999993
   231   1      2.8699999999999943      21.524999999999991      33.004999999999995
   232   1      4.3049999999999926      20.089999999999993      33.004999999999995
   233   1      4.3049999999999926      21.524999999999991      31.569999999999993
   234   1      2.8699999999999943      20.089999999999993      34.439999999999991
   235   1      2.8699999999999943      21.524999999999991      35.874999999999993
   236   1      4.3049999999999926      20.089999999999993      35.874999999999993
   237   1      4.3049999999999926      21.524999999999991      34.439999999999991
   238   1      2.8699999999999943      20.089999999999993      37.309999999999988
   239   1      2.8699999999999943      21.524999999999991       38.74499999999999
   240   1      4.3049999999999926      20.089999999999993       38.74499999999999
   241   1      4.3049999999999926      21.524999999999991      37.309999999999988
   242   1      2.8699999999999943      20.089999999999993      40.179999999999993
   243   1      2.8699999999999943      21.524999999999991      41.614999999999995
   244   1      4.3049999999999926      20.089999999999993      41.614999999999995
   245   1      4.3049999999999926      21.524999999999991      40.179999999999993
   246   1      2.8699999999999943      20.089999999999993       43.04999999999999
   247   1      2.8699999999999943      21.524999999999991      44.484999999999992
   248   1      4.3049999999999926      20.089999999999993      44.484999999999992
   249   1      4.3049999999999926      21.524999999999991       43.04999999999999
   250   1      2.8699999999999943      20.089999999999993      45.919999999999995
   251   1      4.3049999999999926      20.089999999999993      47.354999999999997
   252   1      4.3049999999999926      21.524999999999991      45.919999999999995
   253   1      4.3049999999999926      20.089999999999993      50.225000000000001
   254   1      4.3049999999999926      21.524999999999991      48.789999999999999
   255   1      4.3049999999999926      21.524999999999991      51.659999999999997
   256   1      4.3049999999999926      22.959999999999997      12.914999999999994
   257   1      4.3049999999999926      24.394999999999996      11.479999999999995
   258   1      4.3049999999999926      22.959999999999997      15.784999999999993
   259   1      4.3049999999999926      24.394999999999996      14.349999999999994
   260   1      2.8699999999999943      22.959999999999997      17.219999999999992
   261   1      2.8699999999999943      24.394999999999996       18.65499999999999
   262   1      4.3049999999999926      22.959999999999997       18.65499999999999
   263   1      4.3049999999999926      24.394999999999996      17.219999999999992
   264   1      2.8699999999999943      22.959999999999997      20.089999999999993
   265   1      2.8699999999999943      24.394999999999996      21.524999999999991
   266   1      4.3049999999999926      22.959999999999997      21.524999999999991
   267   1      4.3049999999999926      24.394999999999996      20.089999999999993
   268   1      2.8699999999999943      22.959999999999997      22.959999999999997
   269   1      2.8699999999999943      24.394999999999996      24.394999999999996
   270   1      4.3049999999999926      22.959999999999997      24.394999999999996
   271   1      4.3049999999999926      24.394999999999996      22.959999999999997
   272   1      2.8699999999999943      22.959999999999997      25.829999999999995
   273   1      2.8699999999999943      24.394999999999996       27.26499999999999
   274   1      4.3049999999999926      22.959999999999997       27.26499999999999
   275   1      4.3049999999999926      24.394999999999996      25.829999999999995
   276   1      2.8699999999999943      22.959999999999997      28.699999999999992
   277   1      2.8699999999999943      24.394999999999996      30.134999999999991
   278   1      4.3049999999999926      22.959999999999997      30.134999999999991
   279   1      4.3049999999999926      24.394999999999996      28.699999999999992
   280   1      2.8699999999999943      22.959999999999997      31.569999999999993
   281   1      2.8699999999999943      24.394999999999996      33.004999999999995
   282   1      4.3049999999999926      22.959999999999997      33.004999999999995
   283   1      4.3049999999999926      24.394999999999996      31.569999999999993
   284   1      2.8699999999999943      22.959999999999997      34.439999999999991
   285   1      2.8699999999999943      24.394999999999996      35.874999999999993
   286   1      4.3049999999999926      22.959999999999997      35.874999999999993
   287   1      4.3049999999999926      24.394999999999996      34.439999999999991
   288   1      2.8699999999999943      22.959999999999997      37.309999999999988
   289   1      2.8699999999999943      24.394999999999996       38.74499999999999
   290   1      4.3049999999999926      22.959999999999997       38.74499999999999
   291   1      4.3049999999999926      24.394999999999996      37.309999999999988
   292   1      2.8699999999999943      22.959999999999997      40.179999999999993
   293   1      2.8699999999999943      24.394999999999996      41.614999999999995
   294   1      4.3049999999999926      22.959999999999997      41.614999999999995
   295   1      4.3049999999999926      24.394999999999996      40.179999999999993
   296   1      2.8699999999999943      22.959999999999997       43.04999999999999
   297   1      2.8699999999999943      24.394999999999996      44.484999999999992
   298   1      4.3049999999999926      22.959999999999997      44.484999999999992
   299   1      4.3049999999999926      24.394999999999996       43.04999999999999
   300   1      2.8699999999999943      22.959999999999997      45.919999999999995
   301   1      4.3049999999999926      22.959999999999997      47.354999999999997
   302   1      4.3049999999999926      24.394999999999996      45.919999999999995
   303   1      4.3049999999999926      22.959999999999997      50.225000000000001
   304   1      4.3049999999999926      24.394999999999996      48.789999999999999
   305   1      4.3049999999999926      24.394999999999996      51.659999999999997
   306   1      4.3049999999999926      25.829999999999995      12.914999999999994
   307   1      4.3049999999999926       27.26499999999999      11.479999999999995
   308   1      4.3049999999999926      25.829999999999995      15.784999999999993
   309   1      4.3049999999999926       27.26499999999999      14.349999999999994
   310   1      2.8699999999999943      25.829999999999995      17.219999999999992
   311   1      2.8699999999999943       27.26499999999999       18.65499999999999
   312   1      4.3049999999999926      25.829999999999995       18.65499999999999
   313   1      4.3049999999999926       27.26499999999999      17.219999999999992
   314   1      2.8699999999999943      25.829999999999995      20.089999999999993
   315   1      2.8699999999999943       27.26499999999999      21.524999999999991
   316   1      4.3049999999999926      25.829999999999995      21.524999999999991
   317   1      4.3049999999999926       27.26499999999999      20.089999999999993
   318   1      2.8699999999999943      25.829999999999995      22.959999999999997
   319   1      2.8699999999999943       27.26499999999999      24.394999999999996
   320   1      4.3049999999999926      25.829999999999995      24.394999999999996
   321   1      4.3049999999999926       27.26499999999999      22.959999999999997
   322   1      2.8699999999999943      25.829999999999995      25.829999999999995
   323   1      2.8699999999999943       27.26499999999999       27.26499999999999
   324   1      4.3049999999999926      25.829999999999995       27.26499999999999
   325   1      4.3049999999999926       27.26499999999999      25.829999999999995
   326   1      2.8699999999999943      25.829999999999995      28.699999999999992
   327   1      2.8699999999999943       27.26499999999999      30.134999999999991
   328   1      4.3049999999999926      25.829999999999995      30.134999999999991
   329   1      4.3049999999999926       27.26499999999999      28.699999999999992
   330   1      2.8699999999999943      25.829999999999995      31.569999999999993
   331   1      2.8699999999999943       27.26499999999999      33.004999999999995
   332   1      4.3049999999999926      25.829999999999995      33.004999999999995
   333   1      4.3049999999999926       27.26499999999999      31.569999999999993
   334   1      2.8699999999999943      25.829999999999995      34.439999999999991
   335   1      2.8699999999999943       27.26499999999999      35.874999999999993
   336   1      4.3049999999999926      25.829999999999995      35.874999999999993
   337   1      4.3049999999999926       27.26499999999999      34.439999999999991
   338   1      2.8699999999999943      25.829999999999995      37.309999999999988
   339   1      2.8699999999999943       27.26499999999999       38.74499999999999
   340   1      4.3049999999999926      25.829999999999995       38.74499999999999
   341   1      4.3049999999999926       27.26499999999999      37.309999999999988
   342   1      2.8699999999999943      25.829999999999995      40.179999999999993
   343   1      2.8699999999999943       27.26499999999999      41.614999999999995
   344   1      4.3049999999999926      25.829999999999995      41.614999999999995
   345   1      4.3049999999999926       27.26499999999999      40.179999999999993
   346   1      2.8699999999999943      25.829999999999995       43.04999999999999
   347   1      2.8699999999999943       27.26499999999999      44.484999999999992
   348   1      4.3049999999999926      25.829999999999995      44.484999999999992
   349   1      4.3049999999999926       27.26499999999999       43.04999999999999
   350   1      2.8699999999999943      25.829999999999995      45.919999999999995
   351   1      4.3049999999999926      25.829999999999995      47.354999999999997
   352   1      4.3049999999999926       27.26499999999999      45.919999999999995
   353   1      4.3049999999999926      25.829999999999995      50.225000000000001
   354   1      4.3049999999999926       27.26499999999999      48.789999999999999
   355   1      4.3049999999999926       27.26499999999999      51.659999999999997
   356   1      4.3049999999999926      28.699999999999992      12.914999999999994
   357   1      4.3049999999999926      30.134999999999991      11.479999999999995
   358   1      4.3049999999999926      28.699999999999992      15.784999999999993