model_files/Fe/Fe_30000/Fe_111/data.Fe_111_fcc_29393 (written by ASE) 

29393 	 atoms 
1  atom types
0.0                     126  xlo xhi
0.0                     126  ylo yhi
0.0                     126  zlo zhi


Atoms 

     1   1                     126      63.139999999999979      63.139999999999979
     2   1      4.3049999999999926      61.704999999999977      61.704999999999977
     3   1      2.8699999999999974      60.269999999999989      63.139999999999979
     4   1      4.3049999999999926      61.704999999999977      64.574999999999974
     5   1      2.8699999999999974      63.139999999999979      60.269999999999989
     6   1      4.3049999999999926      64.574999999999974      61.704999999999977
     7   1      2.8699999999999974      63.139999999999979      63.139999999999979
     8   1      4.3049999999999926      64.574999999999974      64.574999999999974
     9   1      2.8699999999999974      63.139999999999979      66.009999999999977
    10   1      2.8699999999999974      66.009999999999977      63.139999999999979
    11   1      7.1749999999999963      58.834999999999994      61.704999999999977
    12   1      5.7399999999999949      57.399999999999984      63.139999999999979
    13   1      7.1749999999999963      58.834999999999994      64.574999999999974
    14   1      7.1749999999999963      61.704999999999977      58.834999999999994
    15   1      5.7399999999999949      60.269999999999989      60.269999999999989
    16   1      7.1749999999999963      61.704999999999977      61.704999999999977
    17   1      5.7399999999999949      60.269999999999989      63.139999999999979
    18   1      7.1749999999999963      61.704999999999977      64.574999999999974
    19   1      5.7399999999999949      60.269999999999989      66.009999999999977
    20   1      7.1749999999999963      61.704999999999977      67.444999999999993
    21   1      5.7399999999999949      63.139999999999979      57.399999999999984
    22   1      7.1749999999999963      64.574999999999974      58.834999999999994
    23   1      5.7399999999999949      63.139999999999979      60.269999999999989
    24   1      7.1749999999999963      64.574999999999974      61.704999999999977
    25   1      5.7399999999999949      63.139999999999979      63.139999999999979
    26   1      7.1749999999999963      64.574999999999974      64.574999999999974
    27   1      5.7399999999999949      63.139999999999979      66.009999999999977
    28   1      7.1749999999999963      64.574999999999974      67.444999999999993
    29   1      5.7399999999999949      63.139999999999979      68.879999999999981
    30   1      5.7399999999999949      66.009999999999977      60.269999999999989
    31   1      7.1749999999999963      67.444999999999993      61.704999999999977
    32   1      5.7399999999999949      66.009999999999977      63.139999999999979
    33   1      7.1749999999999963      67.444999999999993      64.574999999999974
    34   1      5.7399999999999949      66.009999999999977      66.009999999999977
    35   1      5.7399999999999949      68.879999999999981      63.139999999999979
    36   1      10.044999999999995      55.964999999999982      61.704999999999977
    37   1      8.6099999999999923      54.529999999999987      63.139999999999979
    38   1      10.044999999999995      55.964999999999982      64.574999999999974
    39   1      10.044999999999995      58.834999999999994      58.834999999999994
    40   1      8.6099999999999923      57.399999999999984      60.269999999999989
    41   1      10.044999999999995      58.834999999999994      61.704999999999977
    42   1      8.6099999999999923      57.399999999999984      63.139999999999979
    43   1      10.044999999999995      58.834999999999994      64.574999999999974
    44   1      8.6099999999999923      57.399999999999984      66.009999999999977
    45   1      10.044999999999995      58.834999999999994      67.444999999999993
    46   1      10.044999999999995      61.704999999999977      55.964999999999982
    47   1      8.6099999999999923      60.269999999999989      57.399999999999984
    48   1      10.044999999999995      61.704999999999977      58.834999999999994
    49   1      8.6099999999999923      60.269999999999989      60.269999999999989
    50   1      10.044999999999995      61.704999999999977      61.704999999999977
    51   1      8.6099999999999923      60.269999999999989      63.139999999999979
    52   1      10.044999999999995      61.704999999999977      64.574999999999974
    53   1      8.6099999999999923      60.269999999999989      66.009999999999977
    54   1      10.044999999999995      61.704999999999977      67.444999999999993
    55   1      8.6099999999999923      60.269999999999989      68.879999999999981
    56   1      10.044999999999995      61.704999999999977      70.314999999999984
    57   1      8.6099999999999923      63.139999999999979      54.529999999999987
    58   1      10.044999999999995      64.574999999999974      55.964999999999982
    59   1      8.6099999999999923      63.139999999999979      57.399999999999984
    60   1      10.044999999999995      64.574999999999974      58.834999999999994
    61   1      8.6099999999999923      63.139999999999979      60.269999999999989
    62   1      10.044999999999995      64.574999999999974      61.704999999999977
    63   1      8.6099999999999923      63.139999999999979      63.139999999999979
    64   1      10.044999999999995      64.574999999999974      64.574999999999974
    65   1      8.6099999999999923      63.139999999999979      66.009999999999977
    66   1      10.044999999999995      64.574999999999974      67.444999999999993
    67   1      8.6099999999999923      63.139999999999979      68.879999999999981
    68   1      10.044999999999995      64.574999999999974      70.314999999999984
    69   1      8.6099999999999923      63.139999999999979      71.749999999999986
    70   1      8.6099999999999923      66.009999999999977      57.399999999999984
    71   1      10.044999999999995      67.444999999999993      58.834999999999994
    72   1      8.6099999999999923      66.009999999999977      60.269999999999989
    73   1      10.044999999999995      67.444999999999993      61.704999999999977
    74   1      8.6099999999999923      66.009999999999977      63.139999999999979
    75   1      10.044999999999995      67.444999999999993      64.574999999999974
    76   1      8.6099999999999923      66.009999999999977      66.009999999999977
    77   1      10.044999999999995      67.444999999999993      67.444999999999993
    78   1      8.6099999999999923      66.009999999999977      68.879999999999981
    79   1      8.6099999999999923      68.879999999999981      60.269999999999989
    80   1      10.044999999999995      70.314999999999984      61.704999999999977
    81   1      8.6099999999999923      68.879999999999981      63.139999999999979
    82   1      10.044999999999995      70.314999999999984      64.574999999999974
    83   1      8.6099999999999923      68.879999999999981      66.009999999999977
    84   1      8.6099999999999923      71.749999999999986      63.139999999999979
    85   1       12.91499999999999      53.094999999999992      61.704999999999977
    86   1       11.47999999999999      51.659999999999989      63.139999999999979
    87   1       12.91499999999999      53.094999999999992      64.574999999999974
    88   1       12.91499999999999      55.964999999999982      58.834999999999994
    89   1       11.47999999999999      54.529999999999987      60.269999999999989
    90   1       12.91499999999999      55.964999999999982      61.704999999999977
    91   1       11.47999999999999      54.529999999999987      63.139999999999979
    92   1       12.91499999999999      55.964999999999982      64.574999999999974
    93   1       11.47999999999999      54.529999999999987      66.009999999999977
    94   1       12.91499999999999      55.964999999999982      67.444999999999993
    95   1       12.91499999999999      58.834999999999994      55.964999999999982
    96   1       11.47999999999999      57.399999999999984      57.399999999999984
    97   1       12.91499999999999      58.834999999999994      58.834999999999994
    98   1       11.47999999999999      57.399999999999984      60.269999999999989
    99   1       12.91499999999999      58.834999999999994      61.704999999999977
   100   1       11.47999999999999      57.399999999999984      63.139999999999979
   101   1       12.91499999999999      58.834999999999994      64.574999999999974
   102   1       11.47999999999999      57.399999999999984      66.009999999999977
   103   1       12.91499999999999      58.834999999999994      67.444999999999993
   104   1       11.47999999999999      57.399999999999984      68.879999999999981
   105   1       12.91499999999999      58.834999999999994      70.314999999999984
   106   1       12.91499999999999      61.704999999999977      53.094999999999992
   107   1       11.47999999999999      60.269999999999989      54.529999999999987
   108   1       12.91499999999999      61.704999999999977      55.964999999999982
   109   1       11.47999999999999      60.269999999999989      57.399999999999984
   110   1       12.91499999999999      61.704999999999977      58.834999999999994
   111   1       11.47999999999999      60.269999999999989      60.269999999999989
   112   1       12.91499999999999      61.704999999999977      61.704999999999977
   113   1       11.47999999999999      60.269999999999989      63.139999999999979
   114   1       12.91499999999999      61.704999999999977      64.574999999999974
   115   1       11.47999999999999      60.269999999999989      66.009999999999977
   116   1       12.91499999999999      61.704999999999977      67.444999999999993
   117   1       11.47999999999999      60.269999999999989      68.879999999999981
   118   1       12.91499999999999      61.704999999999977      70.314999999999984
   119   1       11.47999999999999      60.269999999999989      71.749999999999986
   120   1       12.91499999999999      61.704999999999977      73.184999999999988
   121   1       11.47999999999999      63.139999999999979      51.659999999999989
   122   1       12.91499999999999      64.574999999999974      53.094999999999992
   123   1       11.47999999999999      63.139999999999979      54.529999999999987
   124   1       12.91499999999999      64.574999999999974      55.964999999999982
   125   1       11.47999999999999      63.139999999999979      57.399999999999984
   126   1       12.91499999999999      64.574999999999974      58.834999999999994
   127   1       11.47999999999999      63.139999999999979      60.269999999999989
   128   1       12.91499999999999      64.574999999999974      61.704999999999977
   129   1       11.47999999999999      63.139999999999979      63.139999999999979
   130   1       12.91499999999999      64.574999999999974      64.574999999999974
   131   1       11.47999999999999      63.139999999999979      66.009999999999977
   132   1       12.91499999999999      64.574999999999974      67.444999999999993
   133   1       11.47999999999999      63.139999999999979      68.879999999999981
   134   1       12.91499999999999      64.574999999999974      70.314999999999984
   135   1       11.47999999999999      63.139999999999979      71.749999999999986
   136   1       12.91499999999999      64.574999999999974      73.184999999999988
   137   1       11.47999999999999      63.139999999999979       74.61999999999999
   138   1       11.47999999999999      66.009999999999977      54.529999999999987
   139   1       12.91499999999999      67.444999999999993      55.964999999999982
   140   1       11.47999999999999      66.009999999999977      57.399999999999984
   141   1       12.91499999999999      67.444999999999993      58.834999999999994
   142   1       11.47999999999999      66.009999999999977      60.269999999999989
   143   1       12.91499999999999      67.444999999999993      61.704999999999977
   144   1       11.47999999999999      66.009999999999977      63.139999999999979
   145   1       12.91499999999999      67.444999999999993      64.574999999999974
   146   1       11.47999999999999      66.009999999999977      66.009999999999977
   147   1       12.91499999999999      67.444999999999993      67.444999999999993
   148   1       11.47999999999999      66.009999999999977      68.879999999999981
   149   1       12.91499999999999      67.444999999999993      70.314999999999984
   150   1       11.47999999999999      66.009999999999977      71.749999999999986
   151   1       11.47999999999999      68.879999999999981      57.399999999999984
   152   1       12.91499999999999      70.314999999999984      58.834999999999994
   153   1       11.47999999999999      68.879999999999981      60.269999999999989
   154   1       12.91499999999999      70.314999999999984      61.704999999999977
   155   1       11.47999999999999      68.879999999999981      63.139999999999979
   156   1       12.91499999999999      70.314999999999984      64.574999999999974
   157   1       11.47999999999999      68.879999999999981      66.009999999999977
   158   1       12.91499999999999      70.314999999999984      67.444999999999993
   159   1       11.47999999999999      68.879999999999981      68.879999999999981
   160   1       11.47999999999999      71.749999999999986      60.269999999999989
   161   1       12.91499999999999      73.184999999999988      61.704999999999977
   162   1       11.47999999999999      71.749999999999986      63.139999999999979
   163   1       12.91499999999999      73.184999999999988      64.574999999999974
   164   1       11.47999999999999      71.749999999999986      66.009999999999977
   165   1       11.47999999999999       74.61999999999999      63.139999999999979
   166   1      15.784999999999995      50.224999999999987      61.704999999999977
   167   1      14.349999999999993      48.789999999999992      63.139999999999979
   168   1      15.784999999999995      50.224999999999987      64.574999999999974
   169   1      15.784999999999995      53.094999999999992      58.834999999999994
   170   1      14.349999999999993      51.659999999999989      60.269999999999989
   171   1      15.784999999999995      53.094999999999992      61.704999999999977
   172   1      14.349999999999993      51.659999999999989      63.139999999999979
   173   1      15.784999999999995      53.094999999999992      64.574999999999974
   174   1      14.349999999999993      51.659999999999989      66.009999999999977
   175   1      15.784999999999995      53.094999999999992      67.444999999999993
   176   1      15.784999999999995      55.964999999999982      55.964999999999982
   177   1      14.349999999999993      54.529999999999987      57.399999999999984
   178   1      15.784999999999995      55.964999999999982      58.834999999999994
   179   1      14.349999999999993      54.529999999999987      60.269999999999989
   180   1      15.784999999999995      55.964999999999982      61.704999999999977
   181   1      14.349999999999993      54.529999999999987      63.139999999999979
   182   1      15.784999999999995      55.964999999999982      64.574999999999974
   183   1      14.349999999999993      54.529999999999987      66.009999999999977
   184   1      15.784999999999995      55.964999999999982      67.444999999999993
   185   1      14.349999999999993      54.529999999999987      68.879999999999981
   186   1      15.784999999999995      55.964999999999982      70.314999999999984
   187   1      15.784999999999995      58.834999999999994      53.094999999999992
   188   1      14.349999999999993      57.399999999999984      54.529999999999987
   189   1      15.784999999999995      58.834999999999994      55.964999999999982
   190   1      14.349999999999993      57.399999999999984      57.399999999999984
   191   1      15.784999999999995      58.834999999999994      58.834999999999994
   192   1      14.349999999999993      57.399999999999984      60.269999999999989
   193   1      15.784999999999995      58.834999999999994      61.704999999999977
   194   1      14.349999999999993      57.399999999999984      63.139999999999979
   195   1      15.784999999999995      58.834999999999994      64.574999999999974
   196   1      14.349999999999993      57.399999999999984      66.009999999999977
   197   1      15.784999999999995      58.834999999999994      67.444999999999993
   198   1      14.349999999999993      57.399999999999984      68.879999999999981
   199   1      15.784999999999995      58.834999999999994      70.314999999999984
   200   1      14.349999999999993      57.399999999999984      71.749999999999986
   201   1      15.784999999999995      58.834999999999994      73.184999999999988
   202   1      15.784999999999995      61.704999999999977      50.224999999999987
   203   1      14.349999999999993      60.269999999999989      51.659999999999989
   204   1      15.784999999999995      61.704999999999977      53.094999999999992
   205   1      14.349999999999993      60.269999999999989      54.529999999999987
   206   1      15.784999999999995      61.704999999999977      55.964999999999982
   207   1      14.349999999999993      60.269999999999989      57.399999999999984
   208   1      15.784999999999995      61.704999999999977      58.834999999999994
   209   1      14.349999999999993      60.269999999999989      60.269999999999989
   210   1      15.784999999999995      61.704999999999977      61.704999999999977
   211   1      14.349999999999993      60.269999999999989      63.139999999999979
   212   1      15.784999999999995      61.704999999999977      64.574999999999974
   213   1      14.349999999999993      60.269999999999989      66.009999999999977
   214   1      15.784999999999995      61.704999999999977      67.444999999999993
   215   1      14.349999999999993      60.269999999999989      68.879999999999981
   216   1      15.784999999999995      61.704999999999977      70.314999999999984
   217   1      14.349999999999993      60.269999999999989      71.749999999999986
   218   1      15.784999999999995      61.704999999999977      73.184999999999988
   219   1      14.349999999999993      60.269999999999989       74.61999999999999
   220   1      15.784999999999995      61.704999999999977      76.054999999999978
   221   1      14.349999999999993      63.139999999999979      48.789999999999992
   222   1      15.784999999999995      64.574999999999974      50.224999999999987
   223   1      14.349999999999993      63.139999999999979      51.659999999999989
   224   1      15.784999999999995      64.574999999999974      53.094999999999992
   225   1      14.349999999999993      63.139999999999979      54.529999999999987
   226   1      15.784999999999995      64.574999999999974      55.964999999999982
   227   1      14.349999999999993      63.139999999999979      57.399999999999984
   228   1      15.784999999999995      64.574999999999974      58.834999999999994
   229   1      14.349999999999993      63.139999999999979      60.269999999999989
   230   1      15.784999999999995      64.574999999999974      61.704999999999977
   231   1      14.349999999999993      63.139999999999979      63.139999999999979
   232   1      15.784999999999995      64.574999999999974      64.574999999999974
   233   1      14.349999999999993      63.139999999999979      66.009999999999977
   234   1      15.784999999999995      64.574999999999974      67.444999999999993
   235   1      14.349999999999993      63.139999999999979      68.879999999999981
   236   1      15.784999999999995      64.574999999999974      70.314999999999984
   237   1      14.349999999999993      63.139999999999979      71.749999999999986
   238   1      15.784999999999995      64.574999999999974      73.184999999999988
   239   1      14.349999999999993      63.139999999999979       74.61999999999999
   240   1      15.784999999999995      64.574999999999974      76.054999999999978
   241   1      14.349999999999993      63.139999999999979      77.489999999999966
   242   1      14.349999999999993      66.009999999999977      51.659999999999989
   243   1      15.784999999999995      67.444999999999993      53.094999999999992
   244   1      14.349999999999993      66.009999999999977      54.529999999999987
   245   1      15.784999999999995      67.444999999999993      55.964999999999982
   246   1      14.349999999999993      66.009999999999977      57.399999999999984
   247   1      15.784999999999995      67.444999999999993      58.834999999999994
   248   1      14.349999999999993      66.009999999999977      60.269999999999989
   249   1      15.784999999999995      67.444999999999993      61.704999999999977
   250   1      14.349999999999993      66.009999999999977      63.139999999999979
   251   1      15.784999999999995      67.444999999999993      64.574999999999974
   252   1      14.349999999999993      66.009999999999977      66.009999999999977
   253   1      15.784999999999995      67.444999999999993      67.444999999999993
   254   1      14.349999999999993      66.009999999999977      68.879999999999981
   255   1      15.784999999999995      67.444999999999993      70.314999999999984
   256   1      14.349999999999993      66.009999999999977      71.749999999999986
   257   1      15.784999999999995      67.444999999999993      73.184999999999988
   258   1      14.349999999999993      66.009999999999977       74.61999999999999
   259   1      14.349999999999993      68.879999999999981      54.529999999999987
   260   1      15.784999999999995      70.314999999999984      55.964999999999982
   261   1      14.349999999999993      68.879999999999981      57.399999999999984
   262   1      15.784999999999995      70.314999999999984      58.834999999999994
   263   1      14.349999999999993      68.879999999999981      60.269999999999989
   264   1      15.784999999999995      70.314999999999984      61.704999999999977
   265   1      14.349999999999993      68.879999999999981      63.139999999999979
   266   1      15.784999999999995      70.314999999999984      64.574999999999974
   267   1      14.349999999999993      68.879999999999981      66.009999999999977
   268   1      15.784999999999995      70.314999999999984      67.444999999999993
   269   1      14.349999999999993      68.879999999999981      68.879999999999981
   270   1      15.784999999999995      70.314999999999984      70.314999999999984
   271   1      14.349999999999993      68.879999999999981      71.749999999999986
   272   1      14.349999999999993      71.749999999999986      57.399999999999984
   273   1      15.784999999999995      73.184999999999988      58.834999999999994
   274   1      14.349999999999993      71.749999999999986      60.269999999999989
   275   1      15.784999999999995      73.184999999999988      61.704999999999977
   276   1      14.349999999999993      71.749999999999986      63.139999999999979
   277   1      15.784999999999995      73.184999999999988      64.574999999999974
   278   1      14.349999999999993      71.749999999999986      66.009999999999977
   279   1      15.784999999999995      73.184999999999988      67.444999999999993
   280   1      14.349999999999993      71.749999999999986      68.879999999999981
   281   1      14.349999999999993       74.61999999999999      60.269999999999989
   282   1      15.784999999999995      76.054999999999978      61.704999999999977
   283   1      14.349999999999993       74.61999999999999      63.139999999999979
   284   1      15.784999999999995      76.054999999999978      64.574999999999974
   285   1      14.349999999999993       74.61999999999999      66.009999999999977
   286   1      14.349999999999993      77.489999999999966      63.139999999999979
   287   1      18.654999999999987       47.35499999999999      61.704999999999977
   288   1      17.219999999999992      45.919999999999987      63.139999999999979
   289   1      18.654999999999987       47.35499999999999      64.574999999999974
   290   1      18.654999999999987      50.224999999999987      58.834999999999994
   291   1      17.219999999999992      48.789999999999992      60.269999999999989
   292   1      18.654999999999987      50.224999999999987      61.704999999999977
   293   1      17.219999999999992      48.789999999999992      63.139999999999979
   294   1      18.654999999999987      50.224999999999987      64.574999999999974
   295   1      17.219999999999992      48.789999999999992      66.009999999999977
   296   1      18.654999999999987      50.224999999999987      67.444999999999993
   297   1      18.654999999999987      53.094999999999992      55.964999999999982
   298   1      17.219999999999992      51.659999999999989      57.399999999999984
   299   1      18.654999999999987      53.094999999999992      58.834999999999994
   300   1      17.219999999999992      51.659999999999989      60.269999999999989
   301   1      18.654999999999987      53.094999999999992      61.704999999999977
   302   1      17.219999999999992      51.659999999999989      63.139999999999979
   303   1      18.654999999999987      53.094999999999992      64.574999999999974
   304   1      17.219999999999992      51.659999999999989      66.009999999999977
   305   1      18.654999999999987      53.094999999999992      67.444999999999993
   306   1      17.219999999999992      51.659999999999989      68.879999999999981
   307   1      18.654999999999987      53.094999999999992      70.314999999999984
   308   1      18.654999999999987      55.964999999999982      53.094999999999992
   309   1      17.219999999999992      54.529999999999987      54.529999999999987
   310   1      18.654999999999987      55.964999999999982      55.964999999999982
   311   1      17.219999999999992      54.529999999999987      57.399999999999984
   312   1      18.654999999999987      55.964999999999982      58.834999999999994
   313   1      17.219999999999992      54.529999999999987      60.269999999999989
   314   1      18.654999999999987      55.964999999999982      61.704999999999977
   315   1      17.219999999999992      54.529999999999987      63.139999999999979
   316   1      18.654999999999987      55.964999999999982      64.574999999999974
   317   1      17.219999999999992      54.529999999999987      66.009999999999977
   318   1      18.654999999999987      55.964999999999982      67.444999999999993
   319   1      17.219999999999992      54.529999999999987      68.879999999999981
   320   1      18.654999999999987      55.964999999999982      70.314999999999984
   321   1      17.219999999999992      54.529999999999987      71.749999999999986
   322   1      18.654999999999987      55.964999999999982      73.184999999999988
   323   1      18.654999999999987      58.834999999999994      50.224999999999987
   324   1      17.219999999999992      57.399999999999984      51.659999999999989
   325   1      18.654999999999987      58.834999999999994      53.094999999999992
   326   1      17.219999999999992      57.399999999999984      54.529999999999987
   327   1      18.654999999999987      58.834999999999994      55.964999999999982
   328   1      17.219999999999992      57.399999999999984      57.399999999999984
   329   1      18.654999999999987      58.834999999999994      58.834999999999994
   330   1      17.219999999999992      57.399999999999984      60.269999999999989
   331   1      18.654999999999987      58.834999999999994      61.704999999999977
   332   1      17.219999999999992      57.399999999999984      63.139999999999979
   333   1      18.654999999999987      58.834999999999994      64.574999999999974
   334   1      17.219999999999992      57.399999999999984      66.009999999999977
   335   1      18.654999999999987      58.834999999999994      67.444999999999993
   336   1      17.219999999999992      57.399999999999984      68.879999999999981
   337   1      18.654999999999987      58.834999999999994      70.314999999999984
   338   1      17.219999999999992      57.399999999999984      71.749999999999986
   339   1      18.654999999999987      58.834999999999994      73.184999999999988
   340   1      17.219999999999992      57.399999999999984       74.61999999999999
   341   1      18.654999999999987      58.834999999999994      76.054999999999978
   342   1      18.654999999999987      61.704999999999977       47.35499999999999
   343   1      17.219999999999992      60.269999999999989      48.789999999999992
   344   1      18.654999999999987      61.704999999999977      50.224999999999987
   345   1      17.219999999999992      60.269999999999989      51.659999999999989
   346   1      18.654999999999987      61.704999999999977      53.094999999999992
   347   1      17.219999999999992      60.269999999999989      54.529999999999987
   348   1      18.654999999999987      61.704999999999977      55.964999999999982
   349   1      17.219999999999992      60.269999999999989      57.399999999999984
   350   1      18.654999999999987      61.704999999999977      58.834999999999994
   351   1      17.219999999999992      60.269999999999989      60.269999999999989
   352   1      18.654999999999987      61.704999999999977      61.704999999999977
   353   1      17.219999999999992      60.269999999999989      63.139999999999979
   354   1      18.654999999999987      61.704999999999977      64.574999999999974
   355   1      17.219999999999992      60.269999999999989      66.009999999999977
   356   1      18.654999999999987      61.704999999999977      67.444999999999993
   357   1      17.219999999999992      60.269999999999989      68.879999999999981
   358   1      18.654999999999987      61.704999999999977      70.314999999999984