model_files/Pd/Pd_30000/Pd_542/data.Pd_542_fcc_29823 (written by ASE) 

29823 	 atoms 
1  atom types
0.0                     116  xlo xhi
0.0                     116  ylo yhi
0.0                     116  zlo zhi


Atoms 

     1   1      1.9450000000000001      56.405000000000001      58.350000000000001
     2   1      1.9450000000000001      58.350000000000001      56.405000000000001
     3   1                       0      58.350000000000001      58.350000000000001
     4   1      1.9450000000000001      58.350000000000001      60.294999999999995
     5   1      1.9450000000000001      60.294999999999995      58.350000000000001
     6   1      3.8900000000000001      52.515000000000001      56.405000000000001
     7   1      5.8350000000000009                   50.57      56.405000000000001
     8   1      5.8350000000000009      52.515000000000001      54.460000000000001
     9   1      3.8900000000000001      52.515000000000001      60.294999999999995
    10   1      5.8350000000000009                   50.57      60.294999999999995
    11   1      5.8350000000000009      52.515000000000001      58.350000000000001
    12   1      5.8350000000000009      52.515000000000001      62.239999999999988
    13   1      3.8900000000000001      56.405000000000001      52.515000000000001
    14   1      5.8350000000000009      54.460000000000001      52.515000000000001
    15   1      5.8350000000000009      56.405000000000001                   50.57
    16   1      3.8900000000000001      54.460000000000001      54.460000000000001
    17   1      3.8900000000000001      56.405000000000001      56.405000000000001
    18   1      5.8350000000000009      54.460000000000001      56.405000000000001
    19   1      5.8350000000000009      56.405000000000001      54.460000000000001
    20   1      3.8900000000000001      54.460000000000001      58.350000000000001
    21   1      3.8900000000000001      56.405000000000001      60.294999999999995
    22   1      5.8350000000000009      54.460000000000001      60.294999999999995
    23   1      5.8350000000000009      56.405000000000001      58.350000000000001
    24   1      3.8900000000000001      54.460000000000001      62.239999999999988
    25   1      3.8900000000000001      56.405000000000001      64.184999999999988
    26   1      5.8350000000000009      54.460000000000001      64.184999999999988
    27   1      5.8350000000000009      56.405000000000001      62.239999999999988
    28   1      5.8350000000000009      56.405000000000001      66.129999999999995
    29   1      3.8900000000000001      60.294999999999995      52.515000000000001
    30   1      5.8350000000000009      58.350000000000001      52.515000000000001
    31   1      5.8350000000000009      60.294999999999995                   50.57
    32   1      3.8900000000000001      58.350000000000001      54.460000000000001
    33   1      3.8900000000000001      60.294999999999995      56.405000000000001
    34   1      5.8350000000000009      58.350000000000001      56.405000000000001
    35   1      5.8350000000000009      60.294999999999995      54.460000000000001
    36   1      3.8900000000000001      58.350000000000001      58.350000000000001
    37   1      3.8900000000000001      60.294999999999995      60.294999999999995
    38   1      5.8350000000000009      58.350000000000001      60.294999999999995
    39   1      5.8350000000000009      60.294999999999995      58.350000000000001
    40   1      3.8900000000000001      58.350000000000001      62.239999999999988
    41   1      3.8900000000000001      60.294999999999995      64.184999999999988
    42   1      5.8350000000000009      58.350000000000001      64.184999999999988
    43   1      5.8350000000000009      60.294999999999995      62.239999999999988
    44   1      5.8350000000000009      60.294999999999995      66.129999999999995
    45   1      5.8350000000000009      62.239999999999988      52.515000000000001
    46   1      3.8900000000000001      62.239999999999988      54.460000000000001
    47   1      3.8900000000000001      64.184999999999988      56.405000000000001
    48   1      5.8350000000000009      62.239999999999988      56.405000000000001
    49   1      5.8350000000000009      64.184999999999988      54.460000000000001
    50   1      3.8900000000000001      62.239999999999988      58.350000000000001
    51   1      3.8900000000000001      64.184999999999988      60.294999999999995
    52   1      5.8350000000000009      62.239999999999988      60.294999999999995
    53   1      5.8350000000000009      64.184999999999988      58.350000000000001
    54   1      3.8900000000000001      62.239999999999988      62.239999999999988
    55   1      5.8350000000000009      62.239999999999988      64.184999999999988
    56   1      5.8350000000000009      64.184999999999988      62.239999999999988
    57   1      5.8350000000000009      66.129999999999995      56.405000000000001
    58   1      5.8350000000000009      66.129999999999995      60.294999999999995
    59   1      9.7250000000000014      44.734999999999999      58.350000000000001
    60   1      9.7250000000000014                  48.625                   50.57
    61   1      7.7800000000000002                  48.625      56.405000000000001
    62   1      9.7250000000000014                   46.68      56.405000000000001
    63   1      9.7250000000000014                  48.625      54.460000000000001
    64   1      7.7800000000000002                   46.68      58.350000000000001
    65   1      7.7800000000000002                  48.625      60.294999999999995
    66   1      9.7250000000000014                   46.68      60.294999999999995
    67   1      9.7250000000000014                  48.625      58.350000000000001
    68   1      9.7250000000000014                  48.625      62.239999999999988
    69   1      9.7250000000000014                  48.625      66.129999999999995
    70   1      9.7250000000000014                   50.57                  48.625
    71   1      7.7800000000000002                   50.57                   50.57
    72   1      7.7800000000000002      52.515000000000001      52.515000000000001
    73   1      9.7250000000000014                   50.57      52.515000000000001
    74   1      9.7250000000000014      52.515000000000001                   50.57
    75   1      7.7800000000000002                   50.57      54.460000000000001
    76   1      7.7800000000000002      52.515000000000001      56.405000000000001
    77   1      9.7250000000000014                   50.57      56.405000000000001
    78   1      9.7250000000000014      52.515000000000001      54.460000000000001
    79   1      7.7800000000000002                   50.57      58.350000000000001
    80   1      7.7800000000000002      52.515000000000001      60.294999999999995
    81   1      9.7250000000000014                   50.57      60.294999999999995
    82   1      9.7250000000000014      52.515000000000001      58.350000000000001
    83   1      7.7800000000000002                   50.57      62.239999999999988
    84   1      7.7800000000000002      52.515000000000001      64.184999999999988
    85   1      9.7250000000000014                   50.57      64.184999999999988
    86   1      9.7250000000000014      52.515000000000001      62.239999999999988
    87   1      7.7800000000000002                   50.57      66.129999999999995
    88   1      9.7250000000000014                   50.57      68.074999999999989
    89   1      9.7250000000000014      52.515000000000001      66.129999999999995
    90   1      7.7800000000000002      56.405000000000001                  48.625
    91   1      9.7250000000000014      54.460000000000001                  48.625
    92   1      9.7250000000000014      56.405000000000001                   46.68
    93   1      7.7800000000000002      54.460000000000001                   50.57
    94   1      7.7800000000000002      56.405000000000001      52.515000000000001
    95   1      9.7250000000000014      54.460000000000001      52.515000000000001
    96   1      9.7250000000000014      56.405000000000001                   50.57
    97   1      7.7800000000000002      54.460000000000001      54.460000000000001
    98   1      7.7800000000000002      56.405000000000001      56.405000000000001
    99   1      9.7250000000000014      54.460000000000001      56.405000000000001
   100   1      9.7250000000000014      56.405000000000001      54.460000000000001
   101   1      7.7800000000000002      54.460000000000001      58.350000000000001
   102   1      7.7800000000000002      56.405000000000001      60.294999999999995
   103   1      9.7250000000000014      54.460000000000001      60.294999999999995
   104   1      9.7250000000000014      56.405000000000001      58.350000000000001
   105   1      7.7800000000000002      54.460000000000001      62.239999999999988
   106   1      7.7800000000000002      56.405000000000001      64.184999999999988
   107   1      9.7250000000000014      54.460000000000001      64.184999999999988
   108   1      9.7250000000000014      56.405000000000001      62.239999999999988
   109   1      7.7800000000000002      54.460000000000001      66.129999999999995
   110   1      7.7800000000000002      56.405000000000001      68.074999999999989
   111   1      9.7250000000000014      54.460000000000001      68.074999999999989
   112   1      9.7250000000000014      56.405000000000001      66.129999999999995
   113   1      9.7250000000000014      56.405000000000001      70.019999999999996
   114   1      9.7250000000000014      58.350000000000001      44.734999999999999
   115   1      7.7800000000000002      58.350000000000001                   46.68
   116   1      7.7800000000000002      60.294999999999995                  48.625
   117   1      9.7250000000000014      58.350000000000001                  48.625
   118   1      9.7250000000000014      60.294999999999995                   46.68
   119   1      7.7800000000000002      58.350000000000001                   50.57
   120   1      7.7800000000000002      60.294999999999995      52.515000000000001
   121   1      9.7250000000000014      58.350000000000001      52.515000000000001
   122   1      9.7250000000000014      60.294999999999995                   50.57
   123   1      7.7800000000000002      58.350000000000001      54.460000000000001
   124   1      7.7800000000000002      60.294999999999995      56.405000000000001
   125   1      9.7250000000000014      58.350000000000001      56.405000000000001
   126   1      9.7250000000000014      60.294999999999995      54.460000000000001
   127   1      7.7800000000000002      58.350000000000001      58.350000000000001
   128   1      7.7800000000000002      60.294999999999995      60.294999999999995
   129   1      9.7250000000000014      58.350000000000001      60.294999999999995
   130   1      9.7250000000000014      60.294999999999995      58.350000000000001
   131   1      7.7800000000000002      58.350000000000001      62.239999999999988
   132   1      7.7800000000000002      60.294999999999995      64.184999999999988
   133   1      9.7250000000000014      58.350000000000001      64.184999999999988
   134   1      9.7250000000000014      60.294999999999995      62.239999999999988
   135   1      7.7800000000000002      58.350000000000001      66.129999999999995
   136   1      7.7800000000000002      60.294999999999995      68.074999999999989
   137   1      9.7250000000000014      58.350000000000001      68.074999999999989
   138   1      9.7250000000000014      60.294999999999995      66.129999999999995
   139   1      7.7800000000000002      58.350000000000001      70.019999999999996
   140   1      9.7250000000000014      58.350000000000001      71.964999999999989
   141   1      9.7250000000000014      60.294999999999995      70.019999999999996
   142   1      9.7250000000000014      62.239999999999988                  48.625
   143   1      7.7800000000000002      62.239999999999988                   50.57
   144   1      7.7800000000000002      64.184999999999988      52.515000000000001
   145   1      9.7250000000000014      62.239999999999988      52.515000000000001
   146   1      9.7250000000000014      64.184999999999988                   50.57
   147   1      7.7800000000000002      62.239999999999988      54.460000000000001
   148   1      7.7800000000000002      64.184999999999988      56.405000000000001
   149   1      9.7250000000000014      62.239999999999988      56.405000000000001
   150   1      9.7250000000000014      64.184999999999988      54.460000000000001
   151   1      7.7800000000000002      62.239999999999988      58.350000000000001
   152   1      7.7800000000000002      64.184999999999988      60.294999999999995
   153   1      9.7250000000000014      62.239999999999988      60.294999999999995
   154   1      9.7250000000000014      64.184999999999988      58.350000000000001
   155   1      7.7800000000000002      62.239999999999988      62.239999999999988
   156   1      7.7800000000000002      64.184999999999988      64.184999999999988
   157   1      9.7250000000000014      62.239999999999988      64.184999999999988
   158   1      9.7250000000000014      64.184999999999988      62.239999999999988
   159   1      7.7800000000000002      62.239999999999988      66.129999999999995
   160   1      9.7250000000000014      62.239999999999988      68.074999999999989
   161   1      9.7250000000000014      64.184999999999988      66.129999999999995
   162   1      9.7250000000000014      66.129999999999995                  48.625
   163   1      7.7800000000000002      66.129999999999995                   50.57
   164   1      9.7250000000000014      66.129999999999995      52.515000000000001
   165   1      9.7250000000000014      68.074999999999989                   50.57
   166   1      7.7800000000000002      66.129999999999995      54.460000000000001
   167   1      7.7800000000000002      68.074999999999989      56.405000000000001
   168   1      9.7250000000000014      66.129999999999995      56.405000000000001
   169   1      9.7250000000000014      68.074999999999989      54.460000000000001
   170   1      7.7800000000000002      66.129999999999995      58.350000000000001
   171   1      7.7800000000000002      68.074999999999989      60.294999999999995
   172   1      9.7250000000000014      66.129999999999995      60.294999999999995
   173   1      9.7250000000000014      68.074999999999989      58.350000000000001
   174   1      7.7800000000000002      66.129999999999995      62.239999999999988
   175   1      9.7250000000000014      66.129999999999995      64.184999999999988
   176   1      9.7250000000000014      68.074999999999989      62.239999999999988
   177   1      7.7800000000000002      66.129999999999995      66.129999999999995
   178   1      9.7250000000000014      66.129999999999995      68.074999999999989
   179   1      9.7250000000000014      68.074999999999989      66.129999999999995
   180   1      9.7250000000000014      70.019999999999996      56.405000000000001
   181   1      7.7800000000000002      70.019999999999996      58.350000000000001
   182   1      9.7250000000000014      70.019999999999996      60.294999999999995
   183   1      9.7250000000000014      71.964999999999989      58.350000000000001
   184   1      13.615000000000002      40.844999999999999      58.350000000000001
   185   1      11.670000000000002      44.734999999999999      52.515000000000001
   186   1      13.615000000000002      42.789999999999999      52.515000000000001
   187   1      13.615000000000002      44.734999999999999                   50.57
   188   1      11.670000000000002      44.734999999999999      56.405000000000001
   189   1      13.615000000000002      42.789999999999999      56.405000000000001
   190   1      13.615000000000002      44.734999999999999      54.460000000000001
   191   1      11.670000000000002      42.789999999999999      58.350000000000001
   192   1      11.670000000000002      44.734999999999999      60.294999999999995
   193   1      13.615000000000002      42.789999999999999      60.294999999999995
   194   1      13.615000000000002      44.734999999999999      58.350000000000001
   195   1      11.670000000000002      44.734999999999999      64.184999999999988
   196   1      13.615000000000002      42.789999999999999      64.184999999999988
   197   1      13.615000000000002      44.734999999999999      62.239999999999988
   198   1      13.615000000000002      44.734999999999999      66.129999999999995
   199   1      11.670000000000002                  48.625                  48.625
   200   1      13.615000000000002                   46.68                  48.625
   201   1      13.615000000000002                  48.625                   46.68
   202   1      11.670000000000002                   46.68                   50.57
   203   1      11.670000000000002                  48.625      52.515000000000001
   204   1      13.615000000000002                   46.68      52.515000000000001
   205   1      13.615000000000002                  48.625                   50.57
   206   1      11.670000000000002                   46.68      54.460000000000001
   207   1      11.670000000000002                  48.625      56.405000000000001
   208   1      13.615000000000002                   46.68      56.405000000000001
   209   1      13.615000000000002                  48.625      54.460000000000001
   210   1      11.670000000000002                   46.68      58.350000000000001
   211   1      11.670000000000002                  48.625      60.294999999999995
   212   1      13.615000000000002                   46.68      60.294999999999995
   213   1      13.615000000000002                  48.625      58.350000000000001
   214   1      11.670000000000002                   46.68      62.239999999999988
   215   1      11.670000000000002                  48.625      64.184999999999988
   216   1      13.615000000000002                   46.68      64.184999999999988
   217   1      13.615000000000002                  48.625      62.239999999999988
   218   1      11.670000000000002                   46.68      66.129999999999995
   219   1      11.670000000000002                  48.625      68.074999999999989
   220   1      13.615000000000002                   46.68      68.074999999999989
   221   1      13.615000000000002                  48.625      66.129999999999995
   222   1      13.615000000000002                  48.625      70.019999999999996
   223   1      11.670000000000002      52.515000000000001      44.734999999999999
   224   1      13.615000000000002                   50.57      44.734999999999999
   225   1      13.615000000000002      52.515000000000001      42.789999999999999
   226   1      11.670000000000002                   50.57                   46.68
   227   1      11.670000000000002      52.515000000000001                  48.625
   228   1      13.615000000000002                   50.57                  48.625
   229   1      13.615000000000002      52.515000000000001                   46.68
   230   1      11.670000000000002                   50.57                   50.57
   231   1      11.670000000000002      52.515000000000001      52.515000000000001
   232   1      13.615000000000002                   50.57      52.515000000000001
   233   1      13.615000000000002      52.515000000000001                   50.57
   234   1      11.670000000000002                   50.57      54.460000000000001
   235   1      11.670000000000002      52.515000000000001      56.405000000000001
   236   1      13.615000000000002                   50.57      56.405000000000001
   237   1      13.615000000000002      52.515000000000001      54.460000000000001
   238   1      11.670000000000002                   50.57      58.350000000000001
   239   1      11.670000000000002      52.515000000000001      60.294999999999995
   240   1      13.615000000000002                   50.57      60.294999999999995
   241   1      13.615000000000002      52.515000000000001      58.350000000000001
   242   1      11.670000000000002                   50.57      62.239999999999988
   243   1      11.670000000000002      52.515000000000001      64.184999999999988
   244   1      13.615000000000002                   50.57      64.184999999999988
   245   1      13.615000000000002      52.515000000000001      62.239999999999988
   246   1      11.670000000000002                   50.57      66.129999999999995
   247   1      11.670000000000002      52.515000000000001      68.074999999999989
   248   1      13.615000000000002                   50.57      68.074999999999989
   249   1      13.615000000000002      52.515000000000001      66.129999999999995
   250   1      11.670000000000002                   50.57      70.019999999999996
   251   1      11.670000000000002      52.515000000000001      71.964999999999989
   252   1      13.615000000000002                   50.57      71.964999999999989
   253   1      13.615000000000002      52.515000000000001      70.019999999999996
   254   1      13.615000000000002      52.515000000000001      73.909999999999997
   255   1      11.670000000000002      56.405000000000001      44.734999999999999
   256   1      13.615000000000002      54.460000000000001      44.734999999999999
   257   1      13.615000000000002      56.405000000000001      42.789999999999999
   258   1      11.670000000000002      54.460000000000001                   46.68
   259   1      11.670000000000002      56.405000000000001                  48.625
   260   1      13.615000000000002      54.460000000000001                  48.625
   261   1      13.615000000000002      56.405000000000001                   46.68
   262   1      11.670000000000002      54.460000000000001                   50.57
   263   1      11.670000000000002      56.405000000000001      52.515000000000001
   264   1      13.615000000000002      54.460000000000001      52.515000000000001
   265   1      13.615000000000002      56.405000000000001                   50.57
   266   1      11.670000000000002      54.460000000000001      54.460000000000001
   267   1      11.670000000000002      56.405000000000001      56.405000000000001
   268   1      13.615000000000002      54.460000000000001      56.405000000000001
   269   1      13.615000000000002      56.405000000000001      54.460000000000001
   270   1      11.670000000000002      54.460000000000001      58.350000000000001
   271   1      11.670000000000002      56.405000000000001      60.294999999999995
   272   1      13.615000000000002      54.460000000000001      60.294999999999995
   273   1      13.615000000000002      56.405000000000001      58.350000000000001
   274   1      11.670000000000002      54.460000000000001      62.239999999999988
   275   1      11.670000000000002      56.405000000000001      64.184999999999988
   276   1      13.615000000000002      54.460000000000001      64.184999999999988
   277   1      13.615000000000002      56.405000000000001      62.239999999999988
   278   1      11.670000000000002      54.460000000000001      66.129999999999995
   279   1      11.670000000000002      56.405000000000001      68.074999999999989
   280   1      13.615000000000002      54.460000000000001      68.074999999999989
   281   1      13.615000000000002      56.405000000000001      66.129999999999995
   282   1      11.670000000000002      54.460000000000001      70.019999999999996
   283   1      11.670000000000002      56.405000000000001      71.964999999999989
   284   1      13.615000000000002      54.460000000000001      71.964999999999989
   285   1      13.615000000000002      56.405000000000001      70.019999999999996
   286   1      13.615000000000002      56.405000000000001      73.909999999999997
   287   1      13.615000000000002      58.350000000000001      40.844999999999999
   288   1      11.670000000000002      58.350000000000001      42.789999999999999
   289   1      11.670000000000002      60.294999999999995      44.734999999999999
   290   1      13.615000000000002      58.350000000000001      44.734999999999999
   291   1      13.615000000000002      60.294999999999995      42.789999999999999
   292   1      11.670000000000002      58.350000000000001                   46.68
   293   1      11.670000000000002      60.294999999999995                  48.625
   294   1      13.615000000000002      58.350000000000001                  48.625
   295   1      13.615000000000002      60.294999999999995                   46.68
   296   1      11.670000000000002      58.350000000000001                   50.57
   297   1      11.670000000000002      60.294999999999995      52.515000000000001
   298   1      13.615000000000002      58.350000000000001      52.515000000000001
   299   1      13.615000000000002      60.294999999999995                   50.57
   300   1      11.670000000000002      58.350000000000001      54.460000000000001
   301   1      11.670000000000002      60.294999999999995      56.405000000000001
   302   1      13.615000000000002      58.350000000000001      56.405000000000001
   303   1      13.615000000000002      60.294999999999995      54.460000000000001
   304   1      11.670000000000002      58.350000000000001      58.350000000000001
   305   1      11.670000000000002      60.294999999999995      60.294999999999995
   306   1      13.615000000000002      58.350000000000001      60.294999999999995
   307   1      13.615000000000002      60.294999999999995      58.350000000000001
   308   1      11.670000000000002      58.350000000000001      62.239999999999988
   309   1      11.670000000000002      60.294999999999995      64.184999999999988
   310   1      13.615000000000002      58.350000000000001      64.184999999999988
   311   1      13.615000000000002      60.294999999999995      62.239999999999988
   312   1      11.670000000000002      58.350000000000001      66.129999999999995
   313   1      11.670000000000002      60.294999999999995      68.074999999999989
   314   1      13.615000000000002      58.350000000000001      68.074999999999989
   315   1      13.615000000000002      60.294999999999995      66.129999999999995
   316   1      11.670000000000002      58.350000000000001      70.019999999999996
   317   1      11.670000000000002      60.294999999999995      71.964999999999989
   318   1      13.615000000000002      58.350000000000001      71.964999999999989
   319   1      13.615000000000002      60.294999999999995      70.019999999999996
   320   1      11.670000000000002      58.350000000000001      73.909999999999997
   321   1      13.615000000000002      58.350000000000001       75.85499999999999
   322   1      13.615000000000002      60.294999999999995      73.909999999999997
   323   1      11.670000000000002      64.184999999999988      44.734999999999999
   324   1      13.615000000000002      62.239999999999988      44.734999999999999
   325   1      13.615000000000002      64.184999999999988      42.789999999999999
   326   1      11.670000000000002      62.239999999999988                   46.68
   327   1      11.670000000000002      64.184999999999988                  48.625
   328   1      13.615000000000002      62.239999999999988                  48.625
   329   1      13.615000000000002      64.184999999999988                   46.68
   330   1      11.670000000000002      62.239999999999988                   50.57
   331   1      11.670000000000002      64.184999999999988      52.515000000000001
   332   1      13.615000000000002      62.239999999999988      52.515000000000001
   333   1      13.615000000000002      64.184999999999988                   50.57
   334   1      11.670000000000002      62.239999999999988      54.460000000000001
   335   1      11.670000000000002      64.184999999999988      56.405000000000001
   336   1      13.615000000000002      62.239999999999988      56.405000000000001
   337   1      13.615000000000002      64.184999999999988      54.460000000000001
   338   1      11.670000000000002      62.239999999999988      58.350000000000001
   339   1      11.670000000000002      64.184999999999988      60.294999999999995
   340   1      13.615000000000002      62.239999999999988      60.294999999999995
   341   1      13.615000000000002      64.184999999999988      58.350000000000001
   342   1      11.670000000000002      62.239999999999988      62.239999999999988
   343   1      11.670000000000002      64.184999999999988      64.184999999999988
   344   1      13.615000000000002      62.239999999999988      64.184999999999988
   345   1      13.615000000000002      64.184999999999988      62.239999999999988
   346   1      11.670000000000002      62.239999999999988      66.129999999999995
   347   1      11.670000000000002      64.184999999999988      68.074999999999989
   348   1      13.615000000000002      62.239999999999988      68.074999999999989
   349   1      13.615000000000002      64.184999999999988      66.129999999999995
   350   1      11.670000000000002      62.239999999999988      70.019999999999996
   351   1      11.670000000000002      64.184999999999988      71.964999999999989
   352   1      13.615000000000002      62.239999999999988      71.964999999999989
   353   1      13.615000000000002      64.184999999999988      70.019999999999996
   354   1      13.615000000000002      64.184999999999988      73.909999999999997
   355   1      13.615000000000002      66.129999999999995      44.734999999999999
   356   1      11.670000000000002      66.129999999999995                   46.68
   357   1      11.670000000000002      68.074999999999989                  48.625
   358   1      13.615000000000002      66.129999999999995                  48.625