LAMMPS data file via write_data, version 30 Nov 2020, timestep = 0

30115 atoms
5 atom types

0 122 xlo xhi
0 122 ylo yhi
0 122 zlo zhi

Masses

1 58.69
2 58.933
3 51.96
4 55.847
5 54.94

Atoms # atomic

7 2 3.5949999999999847 59.31749999999999 59.31749999999999 0 0 0
8 1 5.392499999999984 57.51999999999999 59.31749999999999 0 0 0
9 4 5.392499999999984 59.31749999999999 57.51999999999999 0 0 0
32 1 7.1899999999999835 55.72249999999999 59.31749999999999 0 0 0
33 4 8.987499999999983 53.92499999999999 59.31749999999999 0 0 0
34 5 8.987499999999983 55.72249999999999 57.51999999999999 0 0 0
40 5 7.1899999999999835 59.31749999999999 55.72249999999999 0 0 0
41 2 8.987499999999983 57.51999999999999 55.72249999999999 0 0 0
42 3 8.987499999999983 59.31749999999999 53.92499999999999 0 0 0
43 4 7.1899999999999835 57.51999999999999 57.51999999999999 0 0 0
44 2 7.1899999999999835 59.31749999999999 59.31749999999999 0 0 0
45 1 8.987499999999983 57.51999999999999 59.31749999999999 0 0 0
46 4 8.987499999999983 59.31749999999999 57.51999999999999 0 0 0
93 2 10.784999999999991 52.12749999999999 59.31749999999999 0 0 0
94 5 12.58249999999999 50.32999999999999 59.31749999999999 0 0 0
95 4 12.58249999999999 52.12749999999999 57.51999999999999 0 0 0
101 4 10.784999999999991 55.72249999999999 55.72249999999999 0 0 0
102 1 12.58249999999999 53.92499999999999 55.72249999999999 0 0 0
103 4 12.58249999999999 55.72249999999999 53.92499999999999 0 0 0
104 2 10.784999999999991 53.92499999999999 57.51999999999999 0 0 0
105 3 10.784999999999991 55.72249999999999 59.31749999999999 0 0 0
106 5 12.58249999999999 53.92499999999999 59.31749999999999 0 0 0
107 3 12.58249999999999 55.72249999999999 57.51999999999999 0 0 0
117 5 10.784999999999991 59.31749999999999 52.12749999999999 0 0 0
118 1 12.58249999999999 57.51999999999999 52.12749999999999 0 0 0
119 2 12.58249999999999 59.31749999999999 50.32999999999999 0 0 0
120 3 10.784999999999991 57.51999999999999 53.92499999999999 0 0 0
121 4 10.784999999999991 59.31749999999999 55.72249999999999 0 0 0
122 4 12.58249999999999 57.51999999999999 55.72249999999999 0 0 0
123 5 12.58249999999999 59.31749999999999 53.92499999999999 0 0 0
124 1 10.784999999999991 57.51999999999999 57.51999999999999 0 0 0
125 5 10.784999999999991 59.31749999999999 59.31749999999999 0 0 0
126 3 12.58249999999999 57.51999999999999 59.31749999999999 0 0 0
127 3 12.58249999999999 59.31749999999999 57.51999999999999 0 0 0
206 3 14.37999999999999 48.53249999999999 59.31749999999999 0 0 0
207 1 16.177499999999988 46.735 59.31749999999999 0 0 0
208 1 16.177499999999988 48.53249999999999 57.51999999999999 0 0 0
214 3 14.37999999999999 52.12749999999999 55.72249999999999 0 0 0
215 4 16.177499999999988 50.32999999999999 55.72249999999999 0 0 0
216 2 16.177499999999988 52.12749999999999 53.92499999999999 0 0 0
217 4 14.37999999999999 50.32999999999999 57.51999999999999 0 0 0
218 5 14.37999999999999 52.12749999999999 59.31749999999999 0 0 0
219 2 16.177499999999988 50.32999999999999 59.31749999999999 0 0 0
220 1 16.177499999999988 52.12749999999999 57.51999999999999 0 0 0
230 5 14.37999999999999 55.72249999999999 52.12749999999999 0 0 0
231 3 16.177499999999988 53.92499999999999 52.12749999999999 0 0 0
232 3 16.177499999999988 55.72249999999999 50.32999999999999 0 0 0
233 5 14.37999999999999 53.92499999999999 53.92499999999999 0 0 0
234 3 14.37999999999999 55.72249999999999 55.72249999999999 0 0 0
235 1 16.177499999999988 53.92499999999999 55.72249999999999 0 0 0
236 3 16.177499999999988 55.72249999999999 53.92499999999999 0 0 0
237 4 14.37999999999999 53.92499999999999 57.51999999999999 0 0 0
238 3 14.37999999999999 55.72249999999999 59.31749999999999 0 0 0
239 2 16.177499999999988 53.92499999999999 59.31749999999999 0 0 0
240 2 16.177499999999988 55.72249999999999 57.51999999999999 0 0 0
254 3 14.37999999999999 59.31749999999999 48.53249999999999 0 0 0
255 1 16.177499999999988 57.51999999999999 48.53249999999999 0 0 0
256 1 16.177499999999988 59.31749999999999 46.735 0 0 0
257 3 14.37999999999999 57.51999999999999 50.32999999999999 0 0 0
258 3 14.37999999999999 59.31749999999999 52.12749999999999 0 0 0
259 3 16.177499999999988 57.51999999999999 52.12749999999999 0 0 0
260 4 16.177499999999988 59.31749999999999 50.32999999999999 0 0 0
261 2 14.37999999999999 57.51999999999999 53.92499999999999 0 0 0
262 3 14.37999999999999 59.31749999999999 55.72249999999999 0 0 0
263 1 16.177499999999988 57.51999999999999 55.72249999999999 0 0 0
264 5 16.177499999999988 59.31749999999999 53.92499999999999 0 0 0
265 2 14.37999999999999 57.51999999999999 57.51999999999999 0 0 0
266 4 14.37999999999999 59.31749999999999 59.31749999999999 0 0 0
267 5 16.177499999999988 57.51999999999999 59.31749999999999 0 0 0
268 5 16.177499999999988 59.31749999999999 57.51999999999999 0 0 0
387 4 17.97499999999999 44.93749999999999 59.31749999999999 0 0 0
388 4 19.77249999999999 43.13999999999999 59.31749999999999 0 0 0
389 3 19.77249999999999 44.93749999999999 57.51999999999999 0 0 0
395 4 19.77249999999999 48.53249999999999 50.32999999999999 0 0 0
396 3 17.97499999999999 48.53249999999999 55.72249999999999 0 0 0
397 4 19.77249999999999 46.735 55.72249999999999 0 0 0
398 3 19.77249999999999 48.53249999999999 53.92499999999999 0 0 0
399 1 17.97499999999999 46.735 57.51999999999999 0 0 0
400 4 17.97499999999999 48.53249999999999 59.31749999999999 0 0 0
401 4 19.77249999999999 46.735 59.31749999999999 0 0 0
402 1 19.77249999999999 48.53249999999999 57.51999999999999 0 0 0
413 4 19.77249999999999 50.32999999999999 48.53249999999999 0 0 0
414 3 17.97499999999999 50.32999999999999 50.32999999999999 0 0 0
415 1 17.97499999999999 52.12749999999999 52.12749999999999 0 0 0
416 2 19.77249999999999 50.32999999999999 52.12749999999999 0 0 0
417 4 19.77249999999999 52.12749999999999 50.32999999999999 0 0 0
418 4 17.97499999999999 50.32999999999999 53.92499999999999 0 0 0
419 2 17.97499999999999 52.12749999999999 55.72249999999999 0 0 0
420 1 19.77249999999999 50.32999999999999 55.72249999999999 0 0 0
421 2 19.77249999999999 52.12749999999999 53.92499999999999 0 0 0
422 5 17.97499999999999 50.32999999999999 57.51999999999999 0 0 0
423 2 17.97499999999999 52.12749999999999 59.31749999999999 0 0 0
424 3 19.77249999999999 50.32999999999999 59.31749999999999 0 0 0
425 1 19.77249999999999 52.12749999999999 57.51999999999999 0 0 0
441 5 17.97499999999999 55.72249999999999 48.53249999999999 0 0 0
442 3 19.77249999999999 53.92499999999999 48.53249999999999 0 0 0
443 5 19.77249999999999 55.72249999999999 46.735 0 0 0
444 5 17.97499999999999 53.92499999999999 50.32999999999999 0 0 0
445 4 17.97499999999999 55.72249999999999 52.12749999999999 0 0 0
446 5 19.77249999999999 53.92499999999999 52.12749999999999 0 0 0
447 3 19.77249999999999 55.72249999999999 50.32999999999999 0 0 0
448 2 17.97499999999999 53.92499999999999 53.92499999999999 0 0 0
449 2 17.97499999999999 55.72249999999999 55.72249999999999 0 0 0
450 2 19.77249999999999 53.92499999999999 55.72249999999999 0 0 0
451 1 19.77249999999999 55.72249999999999 53.92499999999999 0 0 0
452 2 17.97499999999999 53.92499999999999 57.51999999999999 0 0 0
453 5 17.97499999999999 55.72249999999999 59.31749999999999 0 0 0
454 1 19.77249999999999 53.92499999999999 59.31749999999999 0 0 0
455 4 19.77249999999999 55.72249999999999 57.51999999999999 0 0 0
473 5 17.97499999999999 59.31749999999999 44.93749999999999 0 0 0
474 5 19.77249999999999 57.51999999999999 44.93749999999999 0 0 0
475 1 19.77249999999999 59.31749999999999 43.13999999999999 0 0 0
476 1 17.97499999999999 57.51999999999999 46.735 0 0 0
477 1 17.97499999999999 59.31749999999999 48.53249999999999 0 0 0
478 1 19.77249999999999 57.51999999999999 48.53249999999999 0 0 0
479 5 19.77249999999999 59.31749999999999 46.735 0 0 0
480 2 17.97499999999999 57.51999999999999 50.32999999999999 0 0 0
481 1 17.97499999999999 59.31749999999999 52.12749999999999 0 0 0
482 2 19.77249999999999 57.51999999999999 52.12749999999999 0 0 0
483 5 19.77249999999999 59.31749999999999 50.32999999999999 0 0 0
484 5 17.97499999999999 57.51999999999999 53.92499999999999 0 0 0
485 3 17.97499999999999 59.31749999999999 55.72249999999999 0 0 0
486 5 19.77249999999999 57.51999999999999 55.72249999999999 0 0 0
487 3 19.77249999999999 59.31749999999999 53.92499999999999 0 0 0
488 1 17.97499999999999 57.51999999999999 57.51999999999999 0 0 0
489 3 17.97499999999999 59.31749999999999 59.31749999999999 0 0 0
490 4 19.77249999999999 57.51999999999999 59.31749999999999 0 0 0
491 5 19.77249999999999 59.31749999999999 57.51999999999999 0 0 0
664 1 21.569999999999997 41.342499999999994 59.31749999999999 0 0 0
665 3 23.367499999999996 39.544999999999995 59.31749999999999 0 0 0
666 1 23.367499999999996 41.342499999999994 57.51999999999999 0 0 0
672 2 23.367499999999996 44.93749999999999 50.32999999999999 0 0 0
673 3 21.569999999999997 44.93749999999999 55.72249999999999 0 0 0
674 5 23.367499999999996 43.13999999999999 55.72249999999999 0 0 0
675 5 23.367499999999996 44.93749999999999 53.92499999999999 0 0 0
676 1 21.569999999999997 43.13999999999999 57.51999999999999 0 0 0
677 1 21.569999999999997 44.93749999999999 59.31749999999999 0 0 0
678 1 23.367499999999996 43.13999999999999 59.31749999999999 0 0 0
679 5 23.367499999999996 44.93749999999999 57.51999999999999 0 0 0
690 2 21.569999999999997 48.53249999999999 48.53249999999999 0 0 0
691 2 23.367499999999996 46.735 48.53249999999999 0 0 0
692 2 23.367499999999996 48.53249999999999 46.735 0 0 0
693 4 21.569999999999997 46.735 50.32999999999999 0 0 0
694 1 21.569999999999997 48.53249999999999 52.12749999999999 0 0 0
695 5 23.367499999999996 46.735 52.12749999999999 0 0 0
696 1 23.367499999999996 48.53249999999999 50.32999999999999 0 0 0
697 2 21.569999999999997 46.735 53.92499999999999 0 0 0
698 5 21.569999999999997 48.53249999999999 55.72249999999999 0 0 0
699 2 23.367499999999996 46.735 55.72249999999999 0 0 0
700 3 23.367499999999996 48.53249999999999 53.92499999999999 0 0 0
701 1 21.569999999999997 46.735 57.51999999999999 0 0 0
702 2 21.569999999999997 48.53249999999999 59.31749999999999 0 0 0
703 3 23.367499999999996 46.735 59.31749999999999 0 0 0
704 2 23.367499999999996 48.53249999999999 57.51999999999999 0 0 0
722 2 23.367499999999996 50.32999999999999 44.93749999999999 0 0 0
723 2 21.569999999999997 50.32999999999999 46.735 0 0 0
724 4 21.569999999999997 52.12749999999999 48.53249999999999 0 0 0
725 4 23.367499999999996 50.32999999999999 48.53249999999999 0 0 0
726 1 23.367499999999996 52.12749999999999 46.735 0 0 0
727 4 21.569999999999997 50.32999999999999 50.32999999999999 0 0 0
728 1 21.569999999999997 52.12749999999999 52.12749999999999 0 0 0
729 1 23.367499999999996 50.32999999999999 52.12749999999999 0 0 0
730 5 23.367499999999996 52.12749999999999 50.32999999999999 0 0 0
731 3 21.569999999999997 50.32999999999999 53.92499999999999 0 0 0
732 5 21.569999999999997 52.12749999999999 55.72249999999999 0 0 0
733 3 23.367499999999996 50.32999999999999 55.72249999999999 0 0 0
734 5 23.367499999999996 52.12749999999999 53.92499999999999 0 0 0
735 5 21.569999999999997 50.32999999999999 57.51999999999999 0 0 0
736 4 21.569999999999997 52.12749999999999 59.31749999999999 0 0 0
737 2 23.367499999999996 50.32999999999999 59.31749999999999 0 0 0
738 4 23.367499999999996 52.12749999999999 57.51999999999999 0 0 0
758 1 21.569999999999997 55.72249999999999 44.93749999999999 0 0 0
759 4 23.367499999999996 53.92499999999999 44.93749999999999 0 0 0
760 1 23.367499999999996 55.72249999999999 43.13999999999999 0 0 0
761 3 21.569999999999997 53.92499999999999 46.735 0 0 0
762 2 21.569999999999997 55.72249999999999 48.53249999999999 0 0 0
763 4 23.367499999999996 53.92499999999999 48.53249999999999 0 0 0
764 5 23.367499999999996 55.72249999999999 46.735 0 0 0
765 2 21.569999999999997 53.92499999999999 50.32999999999999 0 0 0
766 1 21.569999999999997 55.72249999999999 52.12749999999999 0 0 0
767 3 23.367499999999996 53.92499999999999 52.12749999999999 0 0 0
768 5 23.367499999999996 55.72249999999999 50.32999999999999 0 0 0
769 5 21.569999999999997 53.92499999999999 53.92499999999999 0 0 0
770 2 21.569999999999997 55.72249999999999 55.72249999999999 0 0 0
771 3 23.367499999999996 53.92499999999999 55.72249999999999 0 0 0
772 3 23.367499999999996 55.72249999999999 53.92499999999999 0 0 0
773 1 21.569999999999997 53.92499999999999 57.51999999999999 0 0 0
774 4 21.569999999999997 55.72249999999999 59.31749999999999 0 0 0
775 5 23.367499999999996 53.92499999999999 59.31749999999999 0 0 0
776 4 23.367499999999996 55.72249999999999 57.51999999999999 0 0 0
798 1 21.569999999999997 59.31749999999999 41.342499999999994 0 0 0
799 2 23.367499999999996 57.51999999999999 41.342499999999994 0 0 0
800 2 23.367499999999996 59.31749999999999 39.544999999999995 0 0 0
801 3 21.569999999999997 57.51999999999999 43.13999999999999 0 0 0
802 5 21.569999999999997 59.31749999999999 44.93749999999999 0 0 0
803 1 23.367499999999996 57.51999999999999 44.93749999999999 0 0 0
804 5 23.367499999999996 59.31749999999999 43.13999999999999 0 0 0
805 3 21.569999999999997 57.51999999999999 46.735 0 0 0
806 3 21.569999999999997 59.31749999999999 48.53249999999999 0 0 0
807 2 23.367499999999996 57.51999999999999 48.53249999999999 0 0 0
808 3 23.367499999999996 59.31749999999999 46.735 0 0 0
809 2 21.569999999999997 57.51999999999999 50.32999999999999 0 0 0
810 1 21.569999999999997 59.31749999999999 52.12749999999999 0 0 0
811 4 23.367499999999996 57.51999999999999 52.12749999999999 0 0 0
812 3 23.367499999999996 59.31749999999999 50.32999999999999 0 0 0
813 1 21.569999999999997 57.51999999999999 53.92499999999999 0 0 0
814 2 21.569999999999997 59.31749999999999 55.72249999999999 0 0 0
815 2 23.367499999999996 57.51999999999999 55.72249999999999 0 0 0
816 5 23.367499999999996 59.31749999999999 53.92499999999999 0 0 0
817 2 21.569999999999997 57.51999999999999 57.51999999999999 0 0 0
818 1 21.569999999999997 59.31749999999999 59.31749999999999 0 0 0
819 5 23.367499999999996 57.51999999999999 59.31749999999999 0 0 0
820 5 23.367499999999996 59.31749999999999 57.51999999999999 0 0 0
1057 2 25.164999999999996 37.747499999999995 59.31749999999999 0 0 0
1058 2 26.96249999999999 35.949999999999996 59.31749999999999 0 0 0
1059 3 26.96249999999999 37.747499999999995 57.51999999999999 0 0 0
1065 5 26.96249999999999 41.342499999999994 50.32999999999999 0 0 0
1066 5 25.164999999999996 41.342499999999994 55.72249999999999 0 0 0
1067 5 26.96249999999999 39.544999999999995 55.72249999999999 0 0 0
1068 1 26.96249999999999 41.342499999999994 53.92499999999999 0 0 0
1069 2 25.164999999999996 39.544999999999995 57.51999999999999 0 0 0
1070 1 25.164999999999996 41.342499999999994 59.31749999999999 0 0 0
1071 4 26.96249999999999 39.544999999999995 59.31749999999999 0 0 0
1072 5 26.96249999999999 41.342499999999994 57.51999999999999 0 0 0
1083 4 25.164999999999996 44.93749999999999 48.53249999999999 0 0 0
1084 3 26.96249999999999 43.13999999999999 48.53249999999999 0 0 0
1085 5 26.96249999999999 44.93749999999999 46.735 0 0 0
1086 2 25.164999999999996 43.13999999999999 50.32999999999999 0 0 0
1087 2 25.164999999999996 44.93749999999999 52.12749999999999 0 0 0
1088 4 26.96249999999999 43.13999999999999 52.12749999999999 0 0 0
1089 4 26.96249999999999 44.93749999999999 50.32999999999999 0 0 0
1090 5 25.164999999999996 43.13999999999999 53.92499999999999 0 0 0
1091 2 25.164999999999996 44.93749999999999 55.72249999999999 0 0 0
1092 5 26.96249999999999 43.13999999999999 55.72249999999999 0 0 0
1093 3 26.96249999999999 44.93749999999999 53.92499999999999 0 0 0
1094 2 25.164999999999996 43.13999999999999 57.51999999999999 0 0 0
1095 2 25.164999999999996 44.93749999999999 59.31749999999999 0 0 0
1096 4 26.96249999999999 43.13999999999999 59.31749999999999 0 0 0
1097 1 26.96249999999999 44.93749999999999 57.51999999999999 0 0 0
1115 3 25.164999999999996 48.53249999999999 44.93749999999999 0 0 0
1116 2 26.96249999999999 46.735 44.93749999999999 0 0 0
1117 1 26.96249999999999 48.53249999999999 43.13999999999999 0 0 0
1118 5 25.164999999999996 46.735 46.735 0 0 0
1119 1 25.164999999999996 48.53249999999999 48.53249999999999 0 0 0
1120 4 26.96249999999999 46.735 48.53249999999999 0 0 0
1121 4 26.96249999999999 48.53249999999999 46.735 0 0 0
1122 3 25.164999999999996 46.735 50.32999999999999 0 0 0
1123 4 25.164999999999996 48.53249999999999 52.12749999999999 0 0 0
1124 5 26.96249999999999 46.735 52.12749999999999 0 0 0
1125 4 26.96249999999999 48.53249999999999 50.32999999999999 0 0 0
1126 5 25.164999999999996 46.735 53.92499999999999 0 0 0
1127 2 25.164999999999996 48.53249999999999 55.72249999999999 0 0 0
1128 4 26.96249999999999 46.735 55.72249999999999 0 0 0
1129 3 26.96249999999999 48.53249999999999 53.92499999999999 0 0 0
1130 5 25.164999999999996 46.735 57.51999999999999 0 0 0
1131 1 25.164999999999996 48.53249999999999 59.31749999999999 0 0 0
1132 5 26.96249999999999 46.735 59.31749999999999 0 0 0
1133 5 26.96249999999999 48.53249999999999 57.51999999999999 0 0 0
1155 2 26.96249999999999 50.32999999999999 41.342499999999994 0 0 0
1156 2 25.164999999999996 50.32999999999999 43.13999999999999 0 0 0
1157 1 25.164999999999996 52.12749999999999 44.93749999999999 0 0 0
1158 3 26.96249999999999 50.32999999999999 44.93749999999999 0 0 0
1159 4 26.96249999999999 52.12749999999999 43.13999999999999 0 0 0
1160 2 25.164999999999996 50.32999999999999 46.735 0 0 0
1161 4 25.164999999999996 52.12749999999999 48.53249999999999 0 0 0
1162 3 26.96249999999999 50.32999999999999 48.53249999999999 0 0 0
1163 4 26.96249999999999 52.12749999999999 46.735 0 0 0
1164 1 25.164999999999996 50.32999999999999 50.32999999999999 0 0 0
1165 1 25.164999999999996 52.12749999999999 52.12749999999999 0 0 0
1166 5 26.96249999999999 50.32999999999999 52.12749999999999 0 0 0
1167 4 26.96249999999999 52.12749999999999 50.32999999999999 0 0 0
1168 1 25.164999999999996 50.32999999999999 53.92499999999999 0 0 0
1169 2 25.164999999999996 52.12749999999999 55.72249999999999 0 0 0
1170 3 26.96249999999999 50.32999999999999 55.72249999999999 0 0 0
1171 2 26.96249999999999 52.12749999999999 53.92499999999999 0 0 0
1172 3 25.164999999999996 50.32999999999999 57.51999999999999 0 0 0
1173 2 25.164999999999996 52.12749999999999 59.31749999999999 0 0 0
1174 5 26.96249999999999 50.32999999999999 59.31749999999999 0 0 0
1175 4 26.96249999999999 52.12749999999999 57.51999999999999 0 0 0
1199 2 25.164999999999996 55.72249999999999 41.342499999999994 0 0 0
1200 2 26.96249999999999 53.92499999999999 41.342499999999994 0 0 0
1201 1 26.96249999999999 55.72249999999999 39.544999999999995 0 0 0
1202 3 25.164999999999996 53.92499999999999 43.13999999999999 0 0 0
1203 1 25.164999999999996 55.72249999999999 44.93749999999999 0 0 0
1204 2 26.96249999999999 53.92499999999999 44.93749999999999 0 0 0
1205 3 26.96249999999999 55.72249999999999 43.13999999999999 0 0 0
1206 4 25.164999999999996 53.92499999999999 46.735 0 0 0
1207 5 25.164999999999996 55.72249999999999 48.53249999999999 0 0 0
1208 3 26.96249999999999 53.92499999999999 48.53249999999999 0 0 0
1209 5 26.96249999999999 55.72249999999999 46.735 0 0 0
1210 1 25.164999999999996 53.92499999999999 50.32999999999999 0 0 0
1211 3 25.164999999999996 55.72249999999999 52.12749999999999 0 0 0
1212 2 26.96249999999999 53.92499999999999 52.12749999999999 0 0 0
1213 4 26.96249999999999 55.72249999999999 50.32999999999999 0 0 0
1214 3 25.164999999999996 53.92499999999999 53.92499999999999 0 0 0
1215 5 25.164999999999996 55.72249999999999 55.72249999999999 0 0 0
1216 3 26.96249999999999 53.92499999999999 55.72249999999999 0 0 0
1217 5 26.96249999999999 55.72249999999999 53.92499999999999 0 0 0
1218 1 25.164999999999996 53.92499999999999 57.51999999999999 0 0 0
1219 4 25.164999999999996 55.72249999999999 59.31749999999999 0 0 0
1220 5 26.96249999999999 53.92499999999999 59.31749999999999 0 0 0
1221 5 26.96249999999999 55.72249999999999 57.51999999999999 0 0 0
1247 2 25.164999999999996 59.31749999999999 37.747499999999995 0 0 0
1248 1 26.96249999999999 57.51999999999999 37.747499999999995 0 0 0
1249 4 26.96249999999999 59.31749999999999 35.949999999999996 0 0 0
1250 2 25.164999999999996 57.51999999999999 39.544999999999995 0 0 0
1251 2 25.164999999999996 59.31749999999999 41.342499999999994 0 0 0
1252 2 26.96249999999999 57.51999999999999 41.342499999999994 0 0 0
1253 3 26.96249999999999 59.31749999999999 39.544999999999995 0 0 0
1254 2 25.164999999999996 57.51999999999999 43.13999999999999 0 0 0
1255 2 25.164999999999996 59.31749999999999 44.93749999999999 0 0 0
1256 4 26.96249999999999 57.51999999999999 44.93749999999999 0 0 0
1257 5 26.96249999999999 59.31749999999999 43.13999999999999 0 0 0
1258 3 25.164999999999996 57.51999999999999 46.735 0 0 0
1259 1 25.164999999999996 59.31749999999999 48.53249999999999 0 0 0
1260 5 26.96249999999999 57.51999999999999 48.53249999999999 0 0 0
1261 1 26.96249999999999 59.31749999999999 46.735 0 0 0
1262 4 25.164999999999996 57.51999999999999 50.32999999999999 0 0 0
1263 2 25.164999999999996 59.31749999999999 52.12749999999999 0 0 0
1264 5 26.96249999999999 57.51999999999999 52.12749999999999 0 0 0
1265 5 26.96249999999999 59.31749999999999 50.32999999999999 0 0 0
1266 3 25.164999999999996 57.51999999999999 53.92499999999999 0 0 0
1267 3 25.164999999999996 59.31749999999999 55.72249999999999 0 0 0
1268 5 26.96249999999999 57.51999999999999 55.72249999999999 0 0 0
1269 1 26.96249999999999 59.31749999999999 53.92499999999999 0 0 0
1270 2 25.164999999999996 57.51999999999999 57.51999999999999 0 0 0
1271 4 25.164999999999996 59.31749999999999 59.31749999999999 0 0 0
1272 4 26.96249999999999 57.51999999999999 59.31749999999999 0 0 0
1273 1 26.96249999999999 59.31749999999999 57.51999999999999 0 0 0
1582 2 28.75999999999999 34.152499999999996 59.31749999999999 0 0 0
1583 1 30.557499999999994 32.355 59.31749999999999 0 0 0
1584 4 30.557499999999994 34.152499999999996 57.51999999999999 0 0 0
1590 1 30.557499999999994 37.747499999999995 50.32999999999999 0 0 0
1591 2 28.75999999999999 37.747499999999995 55.72249999999999 0 0 0
1592 3 30.557499999999994 35.949999999999996 55.72249999999999 0 0 0
1593 1 30.557499999999994 37.747499999999995 53.92499999999999 0 0 0
1594 3 28.75999999999999 35.949999999999996 57.51999999999999 0 0 0
1595 1 28.75999999999999 37.747499999999995 59.31749999999999 0 0 0
1596 5 30.557499999999994 35.949999999999996 59.31749999999999 0 0 0
1597 4 30.557499999999994 37.747499999999995 57.51999999999999 0 0 0
1608 4 28.75999999999999 41.342499999999994 48.53249999999999 0 0 0
1609 5 30.557499999999994 39.544999999999995 48.53249999999999 0 0 0
1610 1 30.557499999999994 41.342499999999994 46.735 0 0 0
1611 5 28.75999999999999 39.544999999999995 50.32999999999999 0 0 0
1612 2 28.75999999999999 41.342499999999994 52.12749999999999 0 0 0
1613 5 30.557499999999994 39.544999999999995 52.12749999999999 0 0 0
1614 1 30.557499999999994 41.342499999999994 50.32999999999999 0 0 0
1615 2 28.75999999999999 39.544999999999995 53.92499999999999 0 0 0
1616 3 28.75999999999999 41.342499999999994 55.72249999999999 0 0 0
1617 3 30.557499999999994 39.544999999999995 55.72249999999999 0 0 0
1618 5 30.557499999999994 41.342499999999994 53.92499999999999 0 0 0
1619 3 28.75999999999999 39.544999999999995 57.51999999999999 0 0 0
1620 3 28.75999999999999 41.342499999999994 59.31749999999999 0 0 0
1621 5 30.557499999999994 39.544999999999995 59.31749999999999 0 0 0
1622 1 30.557499999999994 41.342499999999994 57.51999999999999 0 0 0
1640 2 28.75999999999999 44.93749999999999 44.93749999999999 0 0 0
1641 4 30.557499999999994 43.13999999999999 44.93749999999999 0 0 0
1642 3 30.557499999999994 44.93749999999999 43.13999999999999 0 0 0
1643 2 28.75999999999999 43.13999999999999 46.735 0 0 0
1644 3 28.75999999999999 44.93749999999999 48.53249999999999 0 0 0
1645 1 30.557499999999994 43.13999999999999 48.53249999999999 0 0 0
1646 1 30.557499999999994 44.93749999999999 46.735 0 0 0
1647 3 28.75999999999999 43.13999999999999 50.32999999999999 0 0 0
1648 1 28.75999999999999 44.93749999999999 52.12749999999999 0 0 0
1649 5 30.557499999999994 43.13999999999999 52.12749999999999 0 0 0
1650 2 30.557499999999994 44.93749999999999 50.32999999999999 0 0 0
1651 4 28.75999999999999 43.13999999999999 53.92499999999999 0 0 0
1652 4 28.75999999999999 44.93749999999999 55.72249999999999 0 0 0
1653 5 30.557499999999994 43.13999999999999 55.72249999999999 0 0 0
1654 4 30.557499999999994 44.93749999999999 53.92499999999999 0 0 0
1655 1 28.75999999999999 43.13999999999999 57.51999999999999 0 0 0
1656 2 28.75999999999999 44.93749999999999 59.31749999999999 0 0 0
1657 1 30.557499999999994 43.13999999999999 59.31749999999999 0 0 0
1658 5 30.557499999999994 44.93749999999999 57.51999999999999 0 0 0
1680 1 28.75999999999999 48.53249999999999 41.342499999999994 0 0 0
1681 2 30.557499999999994 46.735 41.342499999999994 0 0 0
1682 3 30.557499999999994 48.53249999999999 39.544999999999995 0 0 0
1683 5 28.75999999999999 46.735 43.13999999999999 0 0 0
1684 1 28.75999999999999 48.53249999999999 44.93749999999999 0 0 0
1685 2 30.557499999999994 46.735 44.93749999999999 0 0 0
1686 1 30.557499999999994 48.53249999999999 43.13999999999999 0 0 0
1687 1 28.75999999999999 46.735 46.735 0 0 0
1688 2 28.75999999999999 48.53249999999999 48.53249999999999 0 0 0
1689 3 30.557499999999994 46.735 48.53249999999999 0 0 0
1690 3 30.557499999999994 48.53249999999999 46.735 0 0 0
1691 2 28.75999999999999 46.735 50.32999999999999 0 0 0
1692 5 28.75999999999999 48.53249999999999 52.12749999999999 0 0 0
1693 2 30.557499999999994 46.735 52.12749999999999 0 0 0
1694 4 30.557499999999994 48.53249999999999 50.32999999999999 0 0 0
1695 2 28.75999999999999 46.735 53.92499999999999 0 0 0
1696 4 28.75999999999999 48.53249999999999 55.72249999999999 0 0 0
1697 4 30.557499999999994 46.735 55.72249999999999 0 0 0
1698 2 30.557499999999994 48.53249999999999 53.92499999999999 0 0 0
1699 5 28.75999999999999 46.735 57.51999999999999 0 0 0
1700 3 28.75999999999999 48.53249999999999 59.31749999999999 0 0 0
1701 1 30.557499999999994 46.735 59.31749999999999 0 0 0
1702 4 30.557499999999994 48.53249999999999 57.51999999999999 0 0 0
1728 5 30.557499999999994 50.32999999999999 37.747499999999995 0 0 0
1729 4 28.75999999999999 50.32999999999999 39.544999999999995 0 0 0
1730 1 28.75999999999999 52.12749999999999 41.342499999999994 0 0 0
1731 2 30.557499999999994 50.32999999999999 41.342499999999994 0 0 0
1732 5 30.557499999999994 52.12749999999999 39.544999999999995 0 0 0
1733 3 28.75999999999999 50.32999999999999 43.13999999999999 0 0 0
1734 5 28.75999999999999 52.12749999999999 44.93749999999999 0 0 0
1735 4 30.557499999999994 50.32999999999999 44.93749999999999 0 0 0
1736 4 30.557499999999994 52.12749999999999 43.13999999999999 0 0 0
1737 5 28.75999999999999 50.32999999999999 46.735 0 0 0
1738 3 28.75999999999999 52.12749999999999 48.53249999999999 0 0 0
1739 3 30.557499999999994 50.32999999999999 48.53249999999999 0 0 0
1740 5 30.557499999999994 52.12749999999999 46.735 0 0 0
1741 4 28.75999999999999 50.32999999999999 50.32999999999999 0 0 0
1742 5 28.75999999999999 52.12749999999999 52.12749999999999 0 0 0
1743 5 30.557499999999994 50.32999999999999 52.12749999999999 0 0 0
1744 4 30.557499999999994 52.12749999999999 50.32999999999999 0 0 0
1745 1 28.75999999999999 50.32999999999999 53.92499999999999 0 0 0
1746 4 28.75999999999999 52.12749999999999 55.72249999999999 0 0 0
1747 2 30.557499999999994 50.32999999999999 55.72249999999999 0 0 0
1748 4 30.557499999999994 52.12749999999999 53.92499999999999 0 0 0
1749 1 28.75999999999999 50.32999999999999 57.51999999999999 0 0 0
1750 4 28.75999999999999 52.12749999999999 59.31749999999999 0 0 0
1751 1 30.557499999999994 50.32999999999999 59.31749999999999 0 0 0
1752 2 30.557499999999994 52.12749999999999 57.51999999999999 0 0 0
1780 3 28.75999999999999 55.72249999999999 37.747499999999995 0 0 0
1781 2 30.557499999999994 53.92499999999999 37.747499999999995 0 0 0
1782 2 30.557499999999994 55.72249999999999 35.949999999999996 0 0 0
1783 1 28.75999999999999 53.92499999999999 39.544999999999995 0 0 0
1784 1 28.75999999999999 55.72249999999999 41.342499999999994 0 0 0
1785 1 30.557499999999994 53.92499999999999 41.342499999999994 0 0 0
1786 4 30.557499999999994 55.72249999999999 39.544999999999995 0 0 0
1787 2 28.75999999999999 53.92499999999999 43.13999999999999 0 0 0
1788 5 28.75999999999999 55.72249999999999 44.93749999999999 0 0 0
1789 1 30.557499999999994 53.92499999999999 44.93749999999999 0 0 0
1790 5 30.557499999999994 55.72249999999999 43.13999999999999 0 0 0
1791 3 28.75999999999999 53.92499999999999 46.735 0 0 0
1792 2 28.75999999999999 55.72249999999999 48.53249999999999 0 0 0
1793 5 30.557499999999994 53.92499999999999 48.53249999999999 0 0 0
1794 4 30.557499999999994 55.72249999999999 46.735 0 0 0
1795 3 28.75999999999999 53.92499999999999 50.32999999999999 0 0 0
1796 4 28.75999999999999 55.72249999999999 52.12749999999999 0 0 0
1797 3 30.557499999999994 53.92499999999999 52.12749999999999 0 0 0
1798 4 30.557499999999994 55.72249999999999 50.32999999999999 0 0 0
1799 1 28.75999999999999 53.92499999999999 53.92499999999999 0 0 0
1800 3 28.75999999999999 55.72249999999999 55.72249999999999 0 0 0
1801 1 30.557499999999994 53.92499999999999 55.72249999999999 0 0 0
1802 4 30.557499999999994 55.72249999999999 53.92499999999999 0 0 0
1803 2 28.75999999999999 53.92499999999999 57.51999999999999 0 0 0
1804 4 28.75999999999999 55.72249999999999 59.31749999999999 0 0 0
1805 5 30.557499999999994 53.92499999999999 59.31749999999999 0 0 0
1806 2 30.557499999999994 55.72249999999999 57.51999999999999 0 0 0
1836 1 28.75999999999999 59.31749999999999 34.152499999999996 0 0 0
1837 4 30.557499999999994 57.51999999999999 34.152499999999996 0 0 0
1838 1 30.557499999999994 59.31749999999999 32.355 0 0 0
1839 3 28.75999999999999 57.51999999999999 35.949999999999996 0 0 0