model_files/PdCo/PdCo_30000/PdCo_533/PdCo_533_fcc_30085_temp.data (written by ASE) 

30085 	 atoms 
2  atom types
0.0                     108  xlo xhi
0.0                     108  ylo yhi
0.0                     108  zlo zhi


Atoms 

     1   1                       0                    52.5                  54.375
     2   1                       0                  54.375                    52.5
     3   1                       0                  54.375      56.249999999999993
     4   1                       0      56.249999999999993                  54.375
     5   1                    3.75      48.749999999999993                  54.375
     6   1                   1.875                    52.5                    52.5
     7   1                    3.75                  50.625                    52.5
     8   1                    3.75                    52.5                  50.625
     9   1                   1.875                  50.625                  54.375
    10   1                   1.875                    52.5      56.249999999999993
    11   1                    3.75                  50.625      56.249999999999993
    12   1                    3.75                    52.5                  54.375
    13   1                    3.75                    52.5                  58.125
    14   1                    3.75                  54.375      48.749999999999993
    15   1                   1.875                  54.375                  50.625
    16   1                   1.875      56.249999999999993                    52.5
    17   1                    3.75                  54.375                    52.5
    18   1                    3.75      56.249999999999993                  50.625
    19   1                   1.875                  54.375                  54.375
    20   1                   1.875      56.249999999999993      56.249999999999993
    21   1                    3.75                  54.375      56.249999999999993
    22   1                    3.75      56.249999999999993                  54.375
    23   1                   1.875                  54.375                  58.125
    24   1                    3.75                  54.375                      60
    25   1                    3.75      56.249999999999993                  58.125
    26   1                    3.75                  58.125                    52.5
    27   1                   1.875                  58.125                  54.375
    28   1                    3.75                  58.125      56.249999999999993
    29   1                    3.75                      60                  54.375
    30   1                     7.5                   41.25                  54.375
    31   1      5.6249999999999991      44.999999999999993                    52.5
    32   1                     7.5                  43.125                    52.5
    33   1                     7.5      44.999999999999993                  50.625
    34   1      5.6249999999999991                  43.125                  54.375
    35   1      5.6249999999999991      44.999999999999993      56.249999999999993
    36   1                     7.5                  43.125      56.249999999999993
    37   1                     7.5      44.999999999999993                  54.375
    38   1                     7.5      44.999999999999993                  58.125
    39   1      5.6249999999999991      48.749999999999993      48.749999999999993
    40   1                     7.5      46.874999999999993      48.749999999999993
    41   1                     7.5      48.749999999999993      46.874999999999993
    42   1      5.6249999999999991      46.874999999999993                  50.625
    43   1      5.6249999999999991      48.749999999999993                    52.5
    44   1                     7.5      46.874999999999993                    52.5
    45   1                     7.5      48.749999999999993                  50.625
    46   1      5.6249999999999991      46.874999999999993                  54.375
    47   1      5.6249999999999991      48.749999999999993      56.249999999999993
    48   1                     7.5      46.874999999999993      56.249999999999993
    49   1                     7.5      48.749999999999993                  54.375
    50   1      5.6249999999999991      46.874999999999993                  58.125
    51   1      5.6249999999999991      48.749999999999993                      60
    52   1                     7.5      46.874999999999993                      60
    53   1                     7.5      48.749999999999993                  58.125
    54   1                     7.5      48.749999999999993      61.874999999999993
    55   1      5.6249999999999991                    52.5      44.999999999999993
    56   1                     7.5                  50.625      44.999999999999993
    57   1                     7.5                    52.5                  43.125
    58   1      5.6249999999999991                  50.625      46.874999999999993
    59   1      5.6249999999999991                    52.5      48.749999999999993
    60   1                     7.5                  50.625      48.749999999999993
    61   1                     7.5                    52.5      46.874999999999993
    62   1      5.6249999999999991                  50.625                  50.625
    63   1      5.6249999999999991                    52.5                    52.5
    64   1                     7.5                  50.625                    52.5
    65   1                     7.5                    52.5                  50.625
    66   1      5.6249999999999991                  50.625                  54.375
    67   1      5.6249999999999991                    52.5      56.249999999999993
    68   1                     7.5                  50.625      56.249999999999993
    69   1                     7.5                    52.5                  54.375
    70   1      5.6249999999999991                  50.625                  58.125
    71   1      5.6249999999999991                    52.5                      60
    72   1                     7.5                  50.625                      60
    73   1                     7.5                    52.5                  58.125
    74   1      5.6249999999999991                  50.625      61.874999999999993
    75   1      5.6249999999999991                    52.5                   63.75
    76   1                     7.5                  50.625                   63.75
    77   1                     7.5                    52.5      61.874999999999993
    78   1                     7.5                    52.5                  65.625
    79   1                     7.5                  54.375                   41.25
    80   1      5.6249999999999991                  54.375                  43.125
    81   1      5.6249999999999991      56.249999999999993      44.999999999999993
    82   1                     7.5                  54.375      44.999999999999993
    83   1                     7.5      56.249999999999993                  43.125
    84   1      5.6249999999999991                  54.375      46.874999999999993
    85   1      5.6249999999999991      56.249999999999993      48.749999999999993
    86   1                     7.5                  54.375      48.749999999999993
    87   1                     7.5      56.249999999999993      46.874999999999993
    88   1      5.6249999999999991                  54.375                  50.625
    89   1      5.6249999999999991      56.249999999999993                    52.5
    90   1                     7.5                  54.375                    52.5
    91   1                     7.5      56.249999999999993                  50.625
    92   1      5.6249999999999991                  54.375                  54.375
    93   1      5.6249999999999991      56.249999999999993      56.249999999999993
    94   1                     7.5                  54.375      56.249999999999993
    95   1                     7.5      56.249999999999993                  54.375
    96   1      5.6249999999999991                  54.375                  58.125
    97   1      5.6249999999999991      56.249999999999993                      60
    98   1                     7.5                  54.375                      60
    99   1                     7.5      56.249999999999993                  58.125
   100   1      5.6249999999999991                  54.375      61.874999999999993
   101   1      5.6249999999999991      56.249999999999993                   63.75
   102   1                     7.5                  54.375                   63.75
   103   1                     7.5      56.249999999999993      61.874999999999993
   104   1      5.6249999999999991                  54.375                  65.625
   105   1                     7.5                  54.375                    67.5
   106   1                     7.5      56.249999999999993                  65.625
   107   1                     7.5                  58.125      44.999999999999993
   108   1      5.6249999999999991                  58.125      46.874999999999993
   109   1      5.6249999999999991                      60      48.749999999999993
   110   1                     7.5                  58.125      48.749999999999993
   111   1                     7.5                      60      46.874999999999993
   112   1      5.6249999999999991                  58.125                  50.625
   113   1      5.6249999999999991                      60                    52.5
   114   1                     7.5                  58.125                    52.5
   115   1                     7.5                      60                  50.625
   116   1      5.6249999999999991                  58.125                  54.375
   117   1      5.6249999999999991                      60      56.249999999999993
   118   1                     7.5                  58.125      56.249999999999993
   119   1                     7.5                      60                  54.375
   120   1      5.6249999999999991                  58.125                  58.125
   121   1      5.6249999999999991                      60                      60
   122   1                     7.5                  58.125                      60
   123   1                     7.5                      60                  58.125
   124   1      5.6249999999999991                  58.125      61.874999999999993
   125   1                     7.5                  58.125                   63.75
   126   1                     7.5                      60      61.874999999999993
   127   1                     7.5      61.874999999999993      48.749999999999993
   128   1      5.6249999999999991      61.874999999999993                  50.625
   129   1      5.6249999999999991                   63.75                    52.5
   130   1                     7.5      61.874999999999993                    52.5
   131   1                     7.5                   63.75                  50.625
   132   1      5.6249999999999991      61.874999999999993                  54.375
   133   1      5.6249999999999991                   63.75      56.249999999999993
   134   1                     7.5      61.874999999999993      56.249999999999993
   135   1                     7.5                   63.75                  54.375
   136   1      5.6249999999999991      61.874999999999993                  58.125
   137   1                     7.5      61.874999999999993                      60
   138   1                     7.5                   63.75                  58.125
   139   1                     7.5                  65.625                    52.5
   140   1      5.6249999999999991                  65.625                  54.375
   141   1                     7.5                  65.625      56.249999999999993
   142   1                     7.5                    67.5                  54.375
   143   1      11.249999999999998                   33.75                  54.375
   144   1      11.249999999999998                  35.625                    52.5
   145   1      11.249999999999998                    37.5                  50.625
   146   1      11.249999999999998                  35.625      56.249999999999993
   147   1      11.249999999999998                    37.5                  54.375
   148   1      11.249999999999998                    37.5                  58.125
   149   1      11.249999999999998                  39.375      48.749999999999993
   150   1      11.249999999999998                   41.25      46.874999999999993
   151   1                   9.375                   41.25                    52.5
   152   1      11.249999999999998                  39.375                    52.5
   153   1      11.249999999999998                   41.25                  50.625
   154   1                   9.375                  39.375                  54.375
   155   1                   9.375                   41.25      56.249999999999993
   156   1      11.249999999999998                  39.375      56.249999999999993
   157   1      11.249999999999998                   41.25                  54.375
   158   1      11.249999999999998                  39.375                      60
   159   1      11.249999999999998                   41.25                  58.125
   160   1      11.249999999999998                   41.25      61.874999999999993
   161   1      11.249999999999998                  43.125      44.999999999999993
   162   1      11.249999999999998      44.999999999999993                  43.125
   163   1                   9.375      44.999999999999993      48.749999999999993
   164   1      11.249999999999998                  43.125      48.749999999999993
   165   1      11.249999999999998      44.999999999999993      46.874999999999993
   166   1                   9.375                  43.125                  50.625
   167   1                   9.375      44.999999999999993                    52.5
   168   1      11.249999999999998                  43.125                    52.5
   169   1      11.249999999999998      44.999999999999993                  50.625
   170   1                   9.375                  43.125                  54.375
   171   1                   9.375      44.999999999999993      56.249999999999993
   172   1      11.249999999999998                  43.125      56.249999999999993
   173   1      11.249999999999998      44.999999999999993                  54.375
   174   1                   9.375                  43.125                  58.125
   175   1                   9.375      44.999999999999993                      60
   176   1      11.249999999999998                  43.125                      60
   177   1      11.249999999999998      44.999999999999993                  58.125
   178   1      11.249999999999998                  43.125                   63.75
   179   1      11.249999999999998      44.999999999999993      61.874999999999993
   180   1      11.249999999999998      44.999999999999993                  65.625
   181   1      11.249999999999998      46.874999999999993                   41.25
   182   1      11.249999999999998      48.749999999999993                  39.375
   183   1                   9.375      48.749999999999993      44.999999999999993
   184   1      11.249999999999998      46.874999999999993      44.999999999999993
   185   1      11.249999999999998      48.749999999999993                  43.125
   186   1                   9.375      46.874999999999993      46.874999999999993
   187   1                   9.375      48.749999999999993      48.749999999999993
   188   1      11.249999999999998      46.874999999999993      48.749999999999993
   189   1      11.249999999999998      48.749999999999993      46.874999999999993
   190   1                   9.375      46.874999999999993                  50.625
   191   1                   9.375      48.749999999999993                    52.5
   192   1      11.249999999999998      46.874999999999993                    52.5
   193   1      11.249999999999998      48.749999999999993                  50.625
   194   1                   9.375      46.874999999999993                  54.375
   195   1                   9.375      48.749999999999993      56.249999999999993
   196   1      11.249999999999998      46.874999999999993      56.249999999999993
   197   1      11.249999999999998      48.749999999999993                  54.375
   198   1                   9.375      46.874999999999993                  58.125
   199   1                   9.375      48.749999999999993                      60
   200   1      11.249999999999998      46.874999999999993                      60
   201   1      11.249999999999998      48.749999999999993                  58.125
   202   1                   9.375      46.874999999999993      61.874999999999993
   203   1                   9.375      48.749999999999993                   63.75
   204   1      11.249999999999998      46.874999999999993                   63.75
   205   1      11.249999999999998      48.749999999999993      61.874999999999993
   206   1      11.249999999999998      46.874999999999993                    67.5
   207   1      11.249999999999998      48.749999999999993                  65.625
   208   1      11.249999999999998      48.749999999999993                  69.375
   209   1      11.249999999999998                  50.625                    37.5
   210   1      11.249999999999998                    52.5                  35.625
   211   1                   9.375                    52.5                   41.25
   212   1      11.249999999999998                  50.625                   41.25
   213   1      11.249999999999998                    52.5                  39.375
   214   1                   9.375                  50.625                  43.125
   215   1                   9.375                    52.5      44.999999999999993
   216   1      11.249999999999998                  50.625      44.999999999999993
   217   1      11.249999999999998                    52.5                  43.125
   218   1                   9.375                  50.625      46.874999999999993
   219   1                   9.375                    52.5      48.749999999999993
   220   1      11.249999999999998                  50.625      48.749999999999993
   221   1      11.249999999999998                    52.5      46.874999999999993
   222   1                   9.375                  50.625                  50.625
   223   1                   9.375                    52.5                    52.5
   224   1      11.249999999999998                  50.625                    52.5
   225   1      11.249999999999998                    52.5                  50.625
   226   1                   9.375                  50.625                  54.375
   227   1                   9.375                    52.5      56.249999999999993
   228   1      11.249999999999998                  50.625      56.249999999999993
   229   1      11.249999999999998                    52.5                  54.375
   230   1                   9.375                  50.625                  58.125
   231   1                   9.375                    52.5                      60
   232   1      11.249999999999998                  50.625                      60
   233   1      11.249999999999998                    52.5                  58.125
   234   1                   9.375                  50.625      61.874999999999993
   235   1                   9.375                    52.5                   63.75
   236   1      11.249999999999998                  50.625                   63.75
   237   1      11.249999999999998                    52.5      61.874999999999993
   238   1                   9.375                  50.625                  65.625
   239   1                   9.375                    52.5                    67.5
   240   1      11.249999999999998                  50.625                    67.5
   241   1      11.249999999999998                    52.5                  65.625
   242   1      11.249999999999998                  50.625                   71.25
   243   1      11.249999999999998                    52.5                  69.375
   244   1      11.249999999999998                    52.5      73.124999999999986
   245   1      11.249999999999998                  54.375                   33.75
   246   1      11.249999999999998                  54.375                    37.5
   247   1      11.249999999999998      56.249999999999993                  35.625
   248   1                   9.375                  54.375                  39.375
   249   1                   9.375      56.249999999999993                   41.25
   250   1      11.249999999999998                  54.375                   41.25
   251   1      11.249999999999998      56.249999999999993                  39.375
   252   1                   9.375                  54.375                  43.125
   253   1                   9.375      56.249999999999993      44.999999999999993
   254   1      11.249999999999998                  54.375      44.999999999999993
   255   1      11.249999999999998      56.249999999999993                  43.125
   256   1                   9.375                  54.375      46.874999999999993
   257   1                   9.375      56.249999999999993      48.749999999999993
   258   1      11.249999999999998                  54.375      48.749999999999993
   259   1      11.249999999999998      56.249999999999993      46.874999999999993
   260   1                   9.375                  54.375                  50.625
   261   1                   9.375      56.249999999999993                    52.5
   262   1      11.249999999999998                  54.375                    52.5
   263   1      11.249999999999998      56.249999999999993                  50.625
   264   1                   9.375                  54.375                  54.375
   265   1                   9.375      56.249999999999993      56.249999999999993
   266   1      11.249999999999998                  54.375      56.249999999999993
   267   1      11.249999999999998      56.249999999999993                  54.375
   268   1                   9.375                  54.375                  58.125
   269   1                   9.375      56.249999999999993                      60
   270   1      11.249999999999998                  54.375                      60
   271   1      11.249999999999998      56.249999999999993                  58.125
   272   1                   9.375                  54.375      61.874999999999993
   273   1                   9.375      56.249999999999993                   63.75
   274   1      11.249999999999998                  54.375                   63.75
   275   1      11.249999999999998      56.249999999999993      61.874999999999993
   276   1                   9.375                  54.375                  65.625
   277   1                   9.375      56.249999999999993                    67.5
   278   1      11.249999999999998                  54.375                    67.5
   279   1      11.249999999999998      56.249999999999993                  65.625
   280   1                   9.375                  54.375                  69.375
   281   1      11.249999999999998                  54.375                   71.25
   282   1      11.249999999999998      56.249999999999993                  69.375
   283   1      11.249999999999998                  54.375                      75
   284   1      11.249999999999998      56.249999999999993      73.124999999999986
   285   1      11.249999999999998                  58.125                    37.5
   286   1      11.249999999999998                  58.125                   41.25
   287   1      11.249999999999998                      60                  39.375
   288   1                   9.375                  58.125                  43.125
   289   1                   9.375                      60      44.999999999999993
   290   1      11.249999999999998                  58.125      44.999999999999993
   291   1      11.249999999999998                      60                  43.125
   292   1                   9.375                  58.125      46.874999999999993
   293   1                   9.375                      60      48.749999999999993
   294   1      11.249999999999998                  58.125      48.749999999999993
   295   1      11.249999999999998                      60      46.874999999999993
   296   1                   9.375                  58.125                  50.625
   297   1                   9.375                      60                    52.5
   298   1      11.249999999999998                  58.125                    52.5
   299   1      11.249999999999998                      60                  50.625
   300   1                   9.375                  58.125                  54.375
   301   1                   9.375                      60      56.249999999999993
   302   1      11.249999999999998                  58.125      56.249999999999993
   303   1      11.249999999999998                      60                  54.375
   304   1                   9.375                  58.125                  58.125
   305   1                   9.375                      60                      60
   306   1      11.249999999999998                  58.125                      60
   307   1      11.249999999999998                      60                  58.125
   308   1                   9.375                  58.125      61.874999999999993
   309   1                   9.375                      60                   63.75
   310   1      11.249999999999998                  58.125                   63.75
   311   1      11.249999999999998                      60      61.874999999999993
   312   1                   9.375                  58.125                  65.625
   313   1      11.249999999999998                  58.125                    67.5
   314   1      11.249999999999998                      60                  65.625
   315   1      11.249999999999998                  58.125                   71.25
   316   1      11.249999999999998                      60                  69.375
   317   1      11.249999999999998      61.874999999999993                   41.25
   318   1      11.249999999999998      61.874999999999993      44.999999999999993
   319   1      11.249999999999998                   63.75                  43.125
   320   1                   9.375      61.874999999999993      46.874999999999993
   321   1                   9.375                   63.75      48.749999999999993
   322   1      11.249999999999998      61.874999999999993      48.749999999999993
   323   1      11.249999999999998                   63.75      46.874999999999993
   324   1                   9.375      61.874999999999993                  50.625
   325   1                   9.375                   63.75                    52.5
   326   1      11.249999999999998      61.874999999999993                    52.5
   327   1      11.249999999999998                   63.75                  50.625
   328   1                   9.375      61.874999999999993                  54.375
   329   1                   9.375                   63.75      56.249999999999993
   330   1      11.249999999999998      61.874999999999993      56.249999999999993
   331   1      11.249999999999998                   63.75                  54.375
   332   1                   9.375      61.874999999999993                  58.125
   333   1                   9.375                   63.75                      60
   334   1      11.249999999999998      61.874999999999993                      60
   335   1      11.249999999999998                   63.75                  58.125
   336   1                   9.375      61.874999999999993      61.874999999999993
   337   1      11.249999999999998      61.874999999999993                   63.75
   338   1      11.249999999999998                   63.75      61.874999999999993
   339   1      11.249999999999998      61.874999999999993                    67.5
   340   1      11.249999999999998                   63.75                  65.625
   341   1      11.249999999999998                  65.625      44.999999999999993
   342   1      11.249999999999998                  65.625      48.749999999999993
   343   1      11.249999999999998                    67.5      46.874999999999993
   344   1                   9.375                  65.625                  50.625
   345   1                   9.375                    67.5                    52.5
   346   1      11.249999999999998                  65.625                    52.5
   347   1      11.249999999999998                    67.5                  50.625
   348   1                   9.375                  65.625                  54.375
   349   1                   9.375                    67.5      56.249999999999993
   350   1      11.249999999999998                  65.625      56.249999999999993
   351   1      11.249999999999998                    67.5                  54.375
   352   1                   9.375                  65.625                  58.125
   353   1      11.249999999999998                  65.625                      60
   354   1      11.249999999999998                    67.5                  58.125
   355   1      11.249999999999998                  65.625                   63.75
   356   1      11.249999999999998                    67.5      61.874999999999993
   357   1      11.249999999999998                  69.375      48.749999999999993
   358   1      11.249999999999998                  69.375                    52.5