model_files/Co/Co_30000/Co_543/data.Co_543_hcp_30079 (written by ASE) 

30079 	 atoms 
1  atom types
0.0                      79  xlo xhi
0.0                      79  ylo yhi
0.0                      79  zlo zhi


Atoms 

     1   1      78.999999999999986      37.649999999999991      38.904999999999987
     2   1      78.999999999999986      38.904999999999987      37.649999999999991
     3   1      78.999999999999986      38.904999999999987      40.159999999999989
     4   1      78.999999999999986      40.159999999999989      38.904999999999987
     5   1      2.5099999999999909      35.139999999999993      38.904999999999987
     6   1      1.2549999999999883      37.649999999999991      37.649999999999991
     7   1      2.5099999999999909      36.394999999999989      37.649999999999991
     8   1      2.5099999999999909      37.649999999999991      36.394999999999989
     9   1      1.2549999999999883      36.394999999999989      38.904999999999987
    10   1      1.2549999999999883      37.649999999999991      40.159999999999989
    11   1      2.5099999999999909      36.394999999999989      40.159999999999989
    12   1      2.5099999999999909      37.649999999999991      38.904999999999987
    13   1      2.5099999999999909      37.649999999999991      41.414999999999978
    14   1      2.5099999999999909      38.904999999999987      35.139999999999993
    15   1      1.2549999999999883      38.904999999999987      36.394999999999989
    16   1      1.2549999999999883      40.159999999999989      37.649999999999991
    17   1      2.5099999999999909      38.904999999999987      37.649999999999991
    18   1      2.5099999999999909      40.159999999999989      36.394999999999989
    19   1      1.2549999999999883      38.904999999999987      38.904999999999987
    20   1      1.2549999999999883      40.159999999999989      40.159999999999989
    21   1      2.5099999999999909      38.904999999999987      40.159999999999989
    22   1      2.5099999999999909      40.159999999999989      38.904999999999987
    23   1      1.2549999999999883      38.904999999999987      41.414999999999978
    24   1      2.5099999999999909      38.904999999999987      42.669999999999987
    25   1      2.5099999999999909      40.159999999999989      41.414999999999978
    26   1      2.5099999999999909      41.414999999999978      37.649999999999991
    27   1      1.2549999999999883      41.414999999999978      38.904999999999987
    28   1      2.5099999999999909      41.414999999999978      40.159999999999989
    29   1      2.5099999999999909      42.669999999999987      38.904999999999987
    30   1      5.0199999999999889      32.629999999999988      38.904999999999987
    31   1      3.7649999999999864      35.139999999999993      37.649999999999991
    32   1      5.0199999999999889      33.884999999999991      37.649999999999991
    33   1      5.0199999999999889      35.139999999999993      36.394999999999989
    34   1      3.7649999999999864      33.884999999999991      38.904999999999987
    35   1      3.7649999999999864      35.139999999999993      40.159999999999989
    36   1      5.0199999999999889      33.884999999999991      40.159999999999989
    37   1      5.0199999999999889      35.139999999999993      38.904999999999987
    38   1      5.0199999999999889      35.139999999999993      41.414999999999978
    39   1      3.7649999999999864      37.649999999999991      35.139999999999993
    40   1      5.0199999999999889      36.394999999999989      35.139999999999993
    41   1      5.0199999999999889      37.649999999999991      33.884999999999991
    42   1      3.7649999999999864      36.394999999999989      36.394999999999989
    43   1      3.7649999999999864      37.649999999999991      37.649999999999991
    44   1      5.0199999999999889      36.394999999999989      37.649999999999991
    45   1      5.0199999999999889      37.649999999999991      36.394999999999989
    46   1      3.7649999999999864      36.394999999999989      38.904999999999987
    47   1      3.7649999999999864      37.649999999999991      40.159999999999989
    48   1      5.0199999999999889      36.394999999999989      40.159999999999989
    49   1      5.0199999999999889      37.649999999999991      38.904999999999987
    50   1      3.7649999999999864      36.394999999999989      41.414999999999978
    51   1      3.7649999999999864      37.649999999999991      42.669999999999987
    52   1      5.0199999999999889      36.394999999999989      42.669999999999987
    53   1      5.0199999999999889      37.649999999999991      41.414999999999978
    54   1      5.0199999999999889      37.649999999999991      43.924999999999983
    55   1      5.0199999999999889      38.904999999999987      32.629999999999988
    56   1      3.7649999999999864      38.904999999999987      33.884999999999991
    57   1      3.7649999999999864      40.159999999999989      35.139999999999993
    58   1      5.0199999999999889      38.904999999999987      35.139999999999993
    59   1      5.0199999999999889      40.159999999999989      33.884999999999991
    60   1      3.7649999999999864      38.904999999999987      36.394999999999989
    61   1      3.7649999999999864      40.159999999999989      37.649999999999991
    62   1      5.0199999999999889      38.904999999999987      37.649999999999991
    63   1      5.0199999999999889      40.159999999999989      36.394999999999989
    64   1      3.7649999999999864      38.904999999999987      38.904999999999987
    65   1      3.7649999999999864      40.159999999999989      40.159999999999989
    66   1      5.0199999999999889      38.904999999999987      40.159999999999989
    67   1      5.0199999999999889      40.159999999999989      38.904999999999987
    68   1      3.7649999999999864      38.904999999999987      41.414999999999978
    69   1      3.7649999999999864      40.159999999999989      42.669999999999987
    70   1      5.0199999999999889      38.904999999999987      42.669999999999987
    71   1      5.0199999999999889      40.159999999999989      41.414999999999978
    72   1      3.7649999999999864      38.904999999999987      43.924999999999983
    73   1      5.0199999999999889      38.904999999999987      45.179999999999986
    74   1      5.0199999999999889      40.159999999999989      43.924999999999983
    75   1      5.0199999999999889      41.414999999999978      35.139999999999993
    76   1      3.7649999999999864      41.414999999999978      36.394999999999989
    77   1      3.7649999999999864      42.669999999999987      37.649999999999991
    78   1      5.0199999999999889      41.414999999999978      37.649999999999991
    79   1      5.0199999999999889      42.669999999999987      36.394999999999989
    80   1      3.7649999999999864      41.414999999999978      38.904999999999987
    81   1      3.7649999999999864      42.669999999999987      40.159999999999989
    82   1      5.0199999999999889      41.414999999999978      40.159999999999989
    83   1      5.0199999999999889      42.669999999999987      38.904999999999987
    84   1      3.7649999999999864      41.414999999999978      41.414999999999978
    85   1      5.0199999999999889      41.414999999999978      42.669999999999987
    86   1      5.0199999999999889      42.669999999999987      41.414999999999978
    87   1      5.0199999999999889      43.924999999999983      37.649999999999991
    88   1      3.7649999999999864      43.924999999999983      38.904999999999987
    89   1      5.0199999999999889      43.924999999999983      40.159999999999989
    90   1      5.0199999999999889      45.179999999999986      38.904999999999987
    91   1      7.5299999999999905      30.119999999999987      36.394999999999989
    92   1      7.5299999999999905      30.119999999999987      38.904999999999987
    93   1      7.5299999999999905      30.119999999999987      41.414999999999978
    94   1      6.2749999999999915      32.629999999999988      35.139999999999993
    95   1      7.5299999999999905      31.374999999999986      35.139999999999993
    96   1      7.5299999999999905      32.629999999999988      33.884999999999991
    97   1      6.2749999999999915      32.629999999999988      37.649999999999991
    98   1      7.5299999999999905      31.374999999999986      37.649999999999991
    99   1      7.5299999999999905      32.629999999999988      36.394999999999989
   100   1      6.2749999999999915      31.374999999999986      38.904999999999987
   101   1      6.2749999999999915      32.629999999999988      40.159999999999989
   102   1      7.5299999999999905      31.374999999999986      40.159999999999989
   103   1      7.5299999999999905      32.629999999999988      38.904999999999987
   104   1      6.2749999999999915      32.629999999999988      42.669999999999987
   105   1      7.5299999999999905      31.374999999999986      42.669999999999987
   106   1      7.5299999999999905      32.629999999999988      41.414999999999978
   107   1      7.5299999999999905      32.629999999999988      43.924999999999983
   108   1      6.2749999999999915      35.139999999999993      32.629999999999988
   109   1      7.5299999999999905      33.884999999999991      32.629999999999988
   110   1      7.5299999999999905      35.139999999999993      31.374999999999986
   111   1      6.2749999999999915      33.884999999999991      33.884999999999991
   112   1      6.2749999999999915      35.139999999999993      35.139999999999993
   113   1      7.5299999999999905      33.884999999999991      35.139999999999993
   114   1      7.5299999999999905      35.139999999999993      33.884999999999991
   115   1      6.2749999999999915      33.884999999999991      36.394999999999989
   116   1      6.2749999999999915      35.139999999999993      37.649999999999991
   117   1      7.5299999999999905      33.884999999999991      37.649999999999991
   118   1      7.5299999999999905      35.139999999999993      36.394999999999989
   119   1      6.2749999999999915      33.884999999999991      38.904999999999987
   120   1      6.2749999999999915      35.139999999999993      40.159999999999989
   121   1      7.5299999999999905      33.884999999999991      40.159999999999989
   122   1      7.5299999999999905      35.139999999999993      38.904999999999987
   123   1      6.2749999999999915      33.884999999999991      41.414999999999978
   124   1      6.2749999999999915      35.139999999999993      42.669999999999987
   125   1      7.5299999999999905      33.884999999999991      42.669999999999987
   126   1      7.5299999999999905      35.139999999999993      41.414999999999978
   127   1      6.2749999999999915      33.884999999999991      43.924999999999983
   128   1      6.2749999999999915      35.139999999999993      45.179999999999986
   129   1      7.5299999999999905      33.884999999999991      45.179999999999986
   130   1      7.5299999999999905      35.139999999999993      43.924999999999983
   131   1      7.5299999999999905      35.139999999999993      46.434999999999988
   132   1      7.5299999999999905      36.394999999999989      30.119999999999987
   133   1      6.2749999999999915      37.649999999999991      32.629999999999988
   134   1      7.5299999999999905      36.394999999999989      32.629999999999988
   135   1      7.5299999999999905      37.649999999999991      31.374999999999986
   136   1      6.2749999999999915      36.394999999999989      33.884999999999991
   137   1      6.2749999999999915      37.649999999999991      35.139999999999993
   138   1      7.5299999999999905      36.394999999999989      35.139999999999993
   139   1      7.5299999999999905      37.649999999999991      33.884999999999991
   140   1      6.2749999999999915      36.394999999999989      36.394999999999989
   141   1      6.2749999999999915      37.649999999999991      37.649999999999991
   142   1      7.5299999999999905      36.394999999999989      37.649999999999991
   143   1      7.5299999999999905      37.649999999999991      36.394999999999989
   144   1      6.2749999999999915      36.394999999999989      38.904999999999987
   145   1      6.2749999999999915      37.649999999999991      40.159999999999989
   146   1      7.5299999999999905      36.394999999999989      40.159999999999989
   147   1      7.5299999999999905      37.649999999999991      38.904999999999987
   148   1      6.2749999999999915      36.394999999999989      41.414999999999978
   149   1      6.2749999999999915      37.649999999999991      42.669999999999987
   150   1      7.5299999999999905      36.394999999999989      42.669999999999987
   151   1      7.5299999999999905      37.649999999999991      41.414999999999978
   152   1      6.2749999999999915      36.394999999999989      43.924999999999983
   153   1      6.2749999999999915      37.649999999999991      45.179999999999986
   154   1      7.5299999999999905      36.394999999999989      45.179999999999986
   155   1      7.5299999999999905      37.649999999999991      43.924999999999983
   156   1      7.5299999999999905      36.394999999999989      47.689999999999991
   157   1      7.5299999999999905      37.649999999999991      46.434999999999988
   158   1      7.5299999999999905      38.904999999999987      30.119999999999987
   159   1      6.2749999999999915      38.904999999999987      31.374999999999986
   160   1      6.2749999999999915      40.159999999999989      32.629999999999988
   161   1      7.5299999999999905      38.904999999999987      32.629999999999988
   162   1      7.5299999999999905      40.159999999999989      31.374999999999986
   163   1      6.2749999999999915      38.904999999999987      33.884999999999991
   164   1      6.2749999999999915      40.159999999999989      35.139999999999993
   165   1      7.5299999999999905      38.904999999999987      35.139999999999993
   166   1      7.5299999999999905      40.159999999999989      33.884999999999991
   167   1      6.2749999999999915      38.904999999999987      36.394999999999989
   168   1      6.2749999999999915      40.159999999999989      37.649999999999991
   169   1      7.5299999999999905      38.904999999999987      37.649999999999991
   170   1      7.5299999999999905      40.159999999999989      36.394999999999989
   171   1      6.2749999999999915      38.904999999999987      38.904999999999987
   172   1      6.2749999999999915      40.159999999999989      40.159999999999989
   173   1      7.5299999999999905      38.904999999999987      40.159999999999989
   174   1      7.5299999999999905      40.159999999999989      38.904999999999987
   175   1      6.2749999999999915      38.904999999999987      41.414999999999978
   176   1      6.2749999999999915      40.159999999999989      42.669999999999987
   177   1      7.5299999999999905      38.904999999999987      42.669999999999987
   178   1      7.5299999999999905      40.159999999999989      41.414999999999978
   179   1      6.2749999999999915      38.904999999999987      43.924999999999983
   180   1      6.2749999999999915      40.159999999999989      45.179999999999986
   181   1      7.5299999999999905      38.904999999999987      45.179999999999986
   182   1      7.5299999999999905      40.159999999999989      43.924999999999983
   183   1      6.2749999999999915      38.904999999999987      46.434999999999988
   184   1      7.5299999999999905      38.904999999999987      47.689999999999991
   185   1      7.5299999999999905      40.159999999999989      46.434999999999988
   186   1      7.5299999999999905      41.414999999999978      30.119999999999987
   187   1      6.2749999999999915      42.669999999999987      32.629999999999988
   188   1      7.5299999999999905      41.414999999999978      32.629999999999988
   189   1      7.5299999999999905      42.669999999999987      31.374999999999986
   190   1      6.2749999999999915      41.414999999999978      33.884999999999991
   191   1      6.2749999999999915      42.669999999999987      35.139999999999993
   192   1      7.5299999999999905      41.414999999999978      35.139999999999993
   193   1      7.5299999999999905      42.669999999999987      33.884999999999991
   194   1      6.2749999999999915      41.414999999999978      36.394999999999989
   195   1      6.2749999999999915      42.669999999999987      37.649999999999991
   196   1      7.5299999999999905      41.414999999999978      37.649999999999991
   197   1      7.5299999999999905      42.669999999999987      36.394999999999989
   198   1      6.2749999999999915      41.414999999999978      38.904999999999987
   199   1      6.2749999999999915      42.669999999999987      40.159999999999989
   200   1      7.5299999999999905      41.414999999999978      40.159999999999989
   201   1      7.5299999999999905      42.669999999999987      38.904999999999987
   202   1      6.2749999999999915      41.414999999999978      41.414999999999978
   203   1      6.2749999999999915      42.669999999999987      42.669999999999987
   204   1      7.5299999999999905      41.414999999999978      42.669999999999987
   205   1      7.5299999999999905      42.669999999999987      41.414999999999978
   206   1      6.2749999999999915      41.414999999999978      43.924999999999983
   207   1      6.2749999999999915      42.669999999999987      45.179999999999986
   208   1      7.5299999999999905      41.414999999999978      45.179999999999986
   209   1      7.5299999999999905      42.669999999999987      43.924999999999983
   210   1      7.5299999999999905      41.414999999999978      47.689999999999991
   211   1      7.5299999999999905      42.669999999999987      46.434999999999988
   212   1      7.5299999999999905      43.924999999999983      32.629999999999988
   213   1      6.2749999999999915      43.924999999999983      33.884999999999991
   214   1      6.2749999999999915      45.179999999999986      35.139999999999993
   215   1      7.5299999999999905      43.924999999999983      35.139999999999993
   216   1      7.5299999999999905      45.179999999999986      33.884999999999991
   217   1      6.2749999999999915      43.924999999999983      36.394999999999989
   218   1      6.2749999999999915      45.179999999999986      37.649999999999991
   219   1      7.5299999999999905      43.924999999999983      37.649999999999991
   220   1      7.5299999999999905      45.179999999999986      36.394999999999989
   221   1      6.2749999999999915      43.924999999999983      38.904999999999987
   222   1      6.2749999999999915      45.179999999999986      40.159999999999989
   223   1      7.5299999999999905      43.924999999999983      40.159999999999989
   224   1      7.5299999999999905      45.179999999999986      38.904999999999987
   225   1      6.2749999999999915      43.924999999999983      41.414999999999978
   226   1      6.2749999999999915      45.179999999999986      42.669999999999987
   227   1      7.5299999999999905      43.924999999999983      42.669999999999987
   228   1      7.5299999999999905      45.179999999999986      41.414999999999978
   229   1      6.2749999999999915      43.924999999999983      43.924999999999983
   230   1      7.5299999999999905      43.924999999999983      45.179999999999986
   231   1      7.5299999999999905      45.179999999999986      43.924999999999983
   232   1      7.5299999999999905      46.434999999999988      35.139999999999993
   233   1      7.5299999999999905      46.434999999999988      37.649999999999991
   234   1      7.5299999999999905      47.689999999999991      36.394999999999989
   235   1      6.2749999999999915      46.434999999999988      38.904999999999987
   236   1      7.5299999999999905      46.434999999999988      40.159999999999989
   237   1      7.5299999999999905      47.689999999999991      38.904999999999987
   238   1      7.5299999999999905      46.434999999999988      42.669999999999987
   239   1      7.5299999999999905      47.689999999999991      41.414999999999978
   240   1      10.039999999999988      25.099999999999984      38.904999999999987
   241   1      8.7849999999999895      27.609999999999989      37.649999999999991
   242   1      10.039999999999988       26.35499999999999      37.649999999999991
   243   1      10.039999999999988      27.609999999999989      36.394999999999989
   244   1      8.7849999999999895      27.609999999999989      40.159999999999989
   245   1      10.039999999999988       26.35499999999999      40.159999999999989
   246   1      10.039999999999988      27.609999999999989      38.904999999999987
   247   1      10.039999999999988      27.609999999999989      41.414999999999978
   248   1      8.7849999999999895      30.119999999999987      35.139999999999993
   249   1      10.039999999999988      28.864999999999988      35.139999999999993
   250   1      10.039999999999988      30.119999999999987      33.884999999999991
   251   1      8.7849999999999895      28.864999999999988      36.394999999999989
   252   1      8.7849999999999895      30.119999999999987      37.649999999999991
   253   1      10.039999999999988      28.864999999999988      37.649999999999991
   254   1      10.039999999999988      30.119999999999987      36.394999999999989
   255   1      8.7849999999999895      28.864999999999988      38.904999999999987
   256   1      8.7849999999999895      30.119999999999987      40.159999999999989
   257   1      10.039999999999988      28.864999999999988      40.159999999999989
   258   1      10.039999999999988      30.119999999999987      38.904999999999987
   259   1      8.7849999999999895      28.864999999999988      41.414999999999978
   260   1      8.7849999999999895      30.119999999999987      42.669999999999987
   261   1      10.039999999999988      28.864999999999988      42.669999999999987
   262   1      10.039999999999988      30.119999999999987      41.414999999999978
   263   1      10.039999999999988      30.119999999999987      43.924999999999983
   264   1      8.7849999999999895      32.629999999999988      32.629999999999988
   265   1      10.039999999999988      31.374999999999986      32.629999999999988
   266   1      10.039999999999988      32.629999999999988      31.374999999999986
   267   1      8.7849999999999895      31.374999999999986      33.884999999999991
   268   1      8.7849999999999895      32.629999999999988      35.139999999999993
   269   1      10.039999999999988      31.374999999999986      35.139999999999993
   270   1      10.039999999999988      32.629999999999988      33.884999999999991
   271   1      8.7849999999999895      31.374999999999986      36.394999999999989
   272   1      8.7849999999999895      32.629999999999988      37.649999999999991
   273   1      10.039999999999988      31.374999999999986      37.649999999999991
   274   1      10.039999999999988      32.629999999999988      36.394999999999989
   275   1      8.7849999999999895      31.374999999999986      38.904999999999987
   276   1      8.7849999999999895      32.629999999999988      40.159999999999989
   277   1      10.039999999999988      31.374999999999986      40.159999999999989
   278   1      10.039999999999988      32.629999999999988      38.904999999999987
   279   1      8.7849999999999895      31.374999999999986      41.414999999999978
   280   1      8.7849999999999895      32.629999999999988      42.669999999999987
   281   1      10.039999999999988      31.374999999999986      42.669999999999987
   282   1      10.039999999999988      32.629999999999988      41.414999999999978
   283   1      8.7849999999999895      31.374999999999986      43.924999999999983
   284   1      8.7849999999999895      32.629999999999988      45.179999999999986
   285   1      10.039999999999988      31.374999999999986      45.179999999999986
   286   1      10.039999999999988      32.629999999999988      43.924999999999983
   287   1      10.039999999999988      32.629999999999988      46.434999999999988
   288   1      8.7849999999999895      35.139999999999993      30.119999999999987
   289   1      10.039999999999988      33.884999999999991      30.119999999999987
   290   1      10.039999999999988      35.139999999999993      28.864999999999988
   291   1      8.7849999999999895      33.884999999999991      31.374999999999986
   292   1      8.7849999999999895      35.139999999999993      32.629999999999988
   293   1      10.039999999999988      33.884999999999991      32.629999999999988
   294   1      10.039999999999988      35.139999999999993      31.374999999999986
   295   1      8.7849999999999895      33.884999999999991      33.884999999999991
   296   1      8.7849999999999895      35.139999999999993      35.139999999999993
   297   1      10.039999999999988      33.884999999999991      35.139999999999993
   298   1      10.039999999999988      35.139999999999993      33.884999999999991
   299   1      8.7849999999999895      33.884999999999991      36.394999999999989
   300   1      8.7849999999999895      35.139999999999993      37.649999999999991
   301   1      10.039999999999988      33.884999999999991      37.649999999999991
   302   1      10.039999999999988      35.139999999999993      36.394999999999989
   303   1      8.7849999999999895      33.884999999999991      38.904999999999987
   304   1      8.7849999999999895      35.139999999999993      40.159999999999989
   305   1      10.039999999999988      33.884999999999991      40.159999999999989
   306   1      10.039999999999988      35.139999999999993      38.904999999999987
   307   1      8.7849999999999895      33.884999999999991      41.414999999999978
   308   1      8.7849999999999895      35.139999999999993      42.669999999999987
   309   1      10.039999999999988      33.884999999999991      42.669999999999987
   310   1      10.039999999999988      35.139999999999993      41.414999999999978
   311   1      8.7849999999999895      33.884999999999991      43.924999999999983
   312   1      8.7849999999999895      35.139999999999993      45.179999999999986
   313   1      10.039999999999988      33.884999999999991      45.179999999999986
   314   1      10.039999999999988      35.139999999999993      43.924999999999983
   315   1      8.7849999999999895      33.884999999999991      46.434999999999988
   316   1      8.7849999999999895      35.139999999999993      47.689999999999991
   317   1      10.039999999999988      33.884999999999991      47.689999999999991
   318   1      10.039999999999988      35.139999999999993      46.434999999999988
   319   1      10.039999999999988      35.139999999999993      48.944999999999986
   320   1      8.7849999999999895      37.649999999999991      27.609999999999989
   321   1      10.039999999999988      36.394999999999989      27.609999999999989
   322   1      10.039999999999988      37.649999999999991       26.35499999999999
   323   1      8.7849999999999895      36.394999999999989      28.864999999999988
   324   1      8.7849999999999895      37.649999999999991      30.119999999999987
   325   1      10.039999999999988      36.394999999999989      30.119999999999987
   326   1      10.039999999999988      37.649999999999991      28.864999999999988
   327   1      8.7849999999999895      36.394999999999989      31.374999999999986
   328   1      8.7849999999999895      37.649999999999991      32.629999999999988
   329   1      10.039999999999988      36.394999999999989      32.629999999999988
   330   1      10.039999999999988      37.649999999999991      31.374999999999986
   331   1      8.7849999999999895      36.394999999999989      33.884999999999991
   332   1      8.7849999999999895      37.649999999999991      35.139999999999993
   333   1      10.039999999999988      36.394999999999989      35.139999999999993
   334   1      10.039999999999988      37.649999999999991      33.884999999999991
   335   1      8.7849999999999895      36.394999999999989      36.394999999999989
   336   1      8.7849999999999895      37.649999999999991      37.649999999999991
   337   1      10.039999999999988      36.394999999999989      37.649999999999991
   338   1      10.039999999999988      37.649999999999991      36.394999999999989
   339   1      8.7849999999999895      36.394999999999989      38.904999999999987
   340   1      8.7849999999999895      37.649999999999991      40.159999999999989
   341   1      10.039999999999988      36.394999999999989      40.159999999999989
   342   1      10.039999999999988      37.649999999999991      38.904999999999987
   343   1      8.7849999999999895      36.394999999999989      41.414999999999978
   344   1      8.7849999999999895      37.649999999999991      42.669999999999987
   345   1      10.039999999999988      36.394999999999989      42.669999999999987
   346   1      10.039999999999988      37.649999999999991      41.414999999999978
   347   1      8.7849999999999895      36.394999999999989      43.924999999999983
   348   1      8.7849999999999895      37.649999999999991      45.179999999999986
   349   1      10.039999999999988      36.394999999999989      45.179999999999986
   350   1      10.039999999999988      37.649999999999991      43.924999999999983
   351   1      8.7849999999999895      36.394999999999989      46.434999999999988
   352   1      8.7849999999999895      37.649999999999991      47.689999999999991
   353   1      10.039999999999988      36.394999999999989      47.689999999999991
   354   1      10.039999999999988      37.649999999999991      46.434999999999988
   355   1      8.7849999999999895      36.394999999999989      48.944999999999986
   356   1      8.7849999999999895      37.649999999999991      50.199999999999989
   357   1      10.039999999999988      36.394999999999989      50.199999999999989
   358   1      10.039999999999988      37.649999999999991      48.944999999999986