model_files/PdCu/PdCu_30000/PdCu_311/PdCu_311_fcc_30453_temp.data (written by ASE) 

30453 	 atoms 
2  atom types
0.0                      94  xlo xhi
0.0                      94  ylo yhi
0.0                      94  zlo zhi


Atoms 

     1   1  1.4210854715202004e-14      45.300000000000011      47.187500000000007
     2   1  1.4210854715202004e-14      47.187500000000007      45.300000000000011
     3   1  1.4210854715202004e-14      47.187500000000007       49.07500000000001
     4   1  1.4210854715202004e-14       49.07500000000001      47.187500000000007
     5   1      3.7750000000000128      33.975000000000016      47.187500000000007
     6   1      3.7750000000000128      35.862500000000011      45.300000000000011
     7   1      3.7750000000000128      37.750000000000014      43.412500000000009
     8   1      3.7750000000000128      35.862500000000011       49.07500000000001
     9   1      3.7750000000000128      37.750000000000014      47.187500000000007
    10   1      3.7750000000000128      37.750000000000014      50.962500000000013
    11   1      3.7750000000000128       39.63750000000001      41.525000000000013
    12   1      3.7750000000000128      41.525000000000013       39.63750000000001
    13   1      1.8875000000000099      41.525000000000013      45.300000000000011
    14   1      3.7750000000000128       39.63750000000001      45.300000000000011
    15   1      3.7750000000000128      41.525000000000013      43.412500000000009
    16   1      1.8875000000000099       39.63750000000001      47.187500000000007
    17   1      1.8875000000000099      41.525000000000013       49.07500000000001
    18   1      3.7750000000000128       39.63750000000001       49.07500000000001
    19   1      3.7750000000000128      41.525000000000013      47.187500000000007
    20   1      3.7750000000000128       39.63750000000001      52.850000000000016
    21   1      3.7750000000000128      41.525000000000013      50.962500000000013
    22   1      3.7750000000000128      41.525000000000013      54.737500000000004
    23   1      3.7750000000000128      43.412500000000009      37.750000000000014
    24   1      3.7750000000000128      45.300000000000011      35.862500000000011
    25   1      1.8875000000000099      45.300000000000011      41.525000000000013
    26   1      3.7750000000000128      43.412500000000009      41.525000000000013
    27   1      3.7750000000000128      45.300000000000011       39.63750000000001
    28   1      1.8875000000000099      43.412500000000009      43.412500000000009
    29   1      1.8875000000000099      45.300000000000011      45.300000000000011
    30   1      3.7750000000000128      43.412500000000009      45.300000000000011
    31   1      3.7750000000000128      45.300000000000011      43.412500000000009
    32   1      1.8875000000000099      43.412500000000009      47.187500000000007
    33   1      1.8875000000000099      45.300000000000011       49.07500000000001
    34   1      3.7750000000000128      43.412500000000009       49.07500000000001
    35   1      3.7750000000000128      45.300000000000011      47.187500000000007
    36   1      1.8875000000000099      43.412500000000009      50.962500000000013
    37   1      1.8875000000000099      45.300000000000011      52.850000000000016
    38   1      3.7750000000000128      43.412500000000009      52.850000000000016
    39   1      3.7750000000000128      45.300000000000011      50.962500000000013
    40   1      3.7750000000000128      43.412500000000009      56.625000000000007
    41   1      3.7750000000000128      45.300000000000011      54.737500000000004
    42   1      3.7750000000000128      45.300000000000011       58.51250000000001
    43   1      3.7750000000000128      47.187500000000007      33.975000000000016
    44   1      3.7750000000000128      47.187500000000007      37.750000000000014
    45   1      3.7750000000000128       49.07500000000001      35.862500000000011
    46   1      1.8875000000000099      47.187500000000007       39.63750000000001
    47   1      1.8875000000000099       49.07500000000001      41.525000000000013
    48   1      3.7750000000000128      47.187500000000007      41.525000000000013
    49   1      3.7750000000000128       49.07500000000001       39.63750000000001
    50   1      1.8875000000000099      47.187500000000007      43.412500000000009
    51   1      1.8875000000000099       49.07500000000001      45.300000000000011
    52   1      3.7750000000000128      47.187500000000007      45.300000000000011
    53   1      3.7750000000000128       49.07500000000001      43.412500000000009
    54   1      1.8875000000000099      47.187500000000007      47.187500000000007
    55   1      1.8875000000000099       49.07500000000001       49.07500000000001
    56   1      3.7750000000000128      47.187500000000007       49.07500000000001
    57   1      3.7750000000000128       49.07500000000001      47.187500000000007
    58   1      1.8875000000000099      47.187500000000007      50.962500000000013
    59   1      1.8875000000000099       49.07500000000001      52.850000000000016
    60   1      3.7750000000000128      47.187500000000007      52.850000000000016
    61   1      3.7750000000000128       49.07500000000001      50.962500000000013
    62   1      1.8875000000000099      47.187500000000007      54.737500000000004
    63   1      3.7750000000000128      47.187500000000007      56.625000000000007
    64   1      3.7750000000000128       49.07500000000001      54.737500000000004
    65   1      3.7750000000000128      47.187500000000007      60.400000000000013
    66   1      3.7750000000000128       49.07500000000001       58.51250000000001
    67   1      3.7750000000000128      50.962500000000013      37.750000000000014
    68   1      3.7750000000000128      50.962500000000013      41.525000000000013
    69   1      3.7750000000000128      52.850000000000016       39.63750000000001
    70   1      1.8875000000000099      50.962500000000013      43.412500000000009
    71   1      1.8875000000000099      52.850000000000016      45.300000000000011
    72   1      3.7750000000000128      50.962500000000013      45.300000000000011
    73   1      3.7750000000000128      52.850000000000016      43.412500000000009
    74   1      1.8875000000000099      50.962500000000013      47.187500000000007
    75   1      1.8875000000000099      52.850000000000016       49.07500000000001
    76   1      3.7750000000000128      50.962500000000013       49.07500000000001
    77   1      3.7750000000000128      52.850000000000016      47.187500000000007
    78   1      1.8875000000000099      50.962500000000013      50.962500000000013
    79   1      3.7750000000000128      50.962500000000013      52.850000000000016
    80   1      3.7750000000000128      52.850000000000016      50.962500000000013
    81   1      3.7750000000000128      50.962500000000013      56.625000000000007
    82   1      3.7750000000000128      52.850000000000016      54.737500000000004
    83   1      3.7750000000000128      54.737500000000004      41.525000000000013
    84   1      3.7750000000000128      54.737500000000004      45.300000000000011
    85   1      3.7750000000000128      56.625000000000007      43.412500000000009
    86   1      1.8875000000000099      54.737500000000004      47.187500000000007
    87   1      3.7750000000000128      54.737500000000004       49.07500000000001
    88   1      3.7750000000000128      56.625000000000007      47.187500000000007
    89   1      3.7750000000000128      54.737500000000004      52.850000000000016
    90   1      3.7750000000000128      56.625000000000007      50.962500000000013
    91   1      3.7750000000000128       58.51250000000001      45.300000000000011
    92   1      3.7750000000000128       58.51250000000001       49.07500000000001
    93   1      3.7750000000000128      60.400000000000013      47.187500000000007
    94   1      7.5500000000000105      22.650000000000009      47.187500000000007
    95   1      7.5500000000000105      24.537500000000009      45.300000000000011
    96   1      7.5500000000000105      26.425000000000011      43.412500000000009
    97   1      7.5500000000000105      24.537500000000009       49.07500000000001
    98   1      7.5500000000000105      26.425000000000011      47.187500000000007
    99   1      7.5500000000000105      26.425000000000011      50.962500000000013
   100   1      7.5500000000000105      28.312500000000011      41.525000000000013
   101   1      7.5500000000000105      30.200000000000006       39.63750000000001
   102   1      5.6625000000000085      30.200000000000006      45.300000000000011
   103   1      7.5500000000000105      28.312500000000011      45.300000000000011
   104   1      7.5500000000000105      30.200000000000006      43.412500000000009
   105   1      5.6625000000000085      28.312500000000011      47.187500000000007
   106   1      5.6625000000000085      30.200000000000006       49.07500000000001
   107   1      7.5500000000000105      28.312500000000011       49.07500000000001
   108   1      7.5500000000000105      30.200000000000006      47.187500000000007
   109   1      7.5500000000000105      28.312500000000011      52.850000000000016
   110   1      7.5500000000000105      30.200000000000006      50.962500000000013
   111   1      7.5500000000000105      30.200000000000006      54.737500000000004
   112   1      7.5500000000000105      32.087500000000013      37.750000000000014
   113   1      7.5500000000000105      33.975000000000016      35.862500000000011
   114   1      5.6625000000000085      33.975000000000016      41.525000000000013
   115   1      7.5500000000000105      32.087500000000013      41.525000000000013
   116   1      7.5500000000000105      33.975000000000016       39.63750000000001
   117   1      5.6625000000000085      32.087500000000013      43.412500000000009
   118   1      5.6625000000000085      33.975000000000016      45.300000000000011
   119   1      7.5500000000000105      32.087500000000013      45.300000000000011
   120   1      7.5500000000000105      33.975000000000016      43.412500000000009
   121   1      5.6625000000000085      32.087500000000013      47.187500000000007
   122   1      5.6625000000000085      33.975000000000016       49.07500000000001
   123   1      7.5500000000000105      32.087500000000013       49.07500000000001
   124   1      7.5500000000000105      33.975000000000016      47.187500000000007
   125   1      5.6625000000000085      32.087500000000013      50.962500000000013
   126   1      5.6625000000000085      33.975000000000016      52.850000000000016
   127   1      7.5500000000000105      32.087500000000013      52.850000000000016
   128   1      7.5500000000000105      33.975000000000016      50.962500000000013
   129   1      7.5500000000000105      32.087500000000013      56.625000000000007
   130   1      7.5500000000000105      33.975000000000016      54.737500000000004
   131   1      7.5500000000000105      33.975000000000016       58.51250000000001
   132   1      7.5500000000000105      35.862500000000011      33.975000000000016
   133   1      7.5500000000000105      37.750000000000014      32.087500000000013
   134   1      5.6625000000000085      37.750000000000014      37.750000000000014
   135   1      7.5500000000000105      35.862500000000011      37.750000000000014
   136   1      7.5500000000000105      37.750000000000014      35.862500000000011
   137   1      5.6625000000000085      35.862500000000011       39.63750000000001
   138   1      5.6625000000000085      37.750000000000014      41.525000000000013
   139   1      7.5500000000000105      35.862500000000011      41.525000000000013
   140   1      7.5500000000000105      37.750000000000014       39.63750000000001
   141   1      5.6625000000000085      35.862500000000011      43.412500000000009
   142   1      5.6625000000000085      37.750000000000014      45.300000000000011
   143   1      7.5500000000000105      35.862500000000011      45.300000000000011
   144   1      7.5500000000000105      37.750000000000014      43.412500000000009
   145   1      5.6625000000000085      35.862500000000011      47.187500000000007
   146   1      5.6625000000000085      37.750000000000014       49.07500000000001
   147   1      7.5500000000000105      35.862500000000011       49.07500000000001
   148   1      7.5500000000000105      37.750000000000014      47.187500000000007
   149   1      5.6625000000000085      35.862500000000011      50.962500000000013
   150   1      5.6625000000000085      37.750000000000014      52.850000000000016
   151   1      7.5500000000000105      35.862500000000011      52.850000000000016
   152   1      7.5500000000000105      37.750000000000014      50.962500000000013
   153   1      5.6625000000000085      35.862500000000011      54.737500000000004
   154   1      5.6625000000000085      37.750000000000014      56.625000000000007
   155   1      7.5500000000000105      35.862500000000011      56.625000000000007
   156   1      7.5500000000000105      37.750000000000014      54.737500000000004
   157   1      7.5500000000000105      35.862500000000011      60.400000000000013
   158   1      7.5500000000000105      37.750000000000014       58.51250000000001
   159   1      7.5500000000000105      37.750000000000014      62.287500000000009
   160   1      7.5500000000000105       39.63750000000001      30.200000000000006
   161   1      7.5500000000000105      41.525000000000013      28.312500000000011
   162   1      5.6625000000000085      41.525000000000013      33.975000000000016
   163   1      7.5500000000000105       39.63750000000001      33.975000000000016
   164   1      7.5500000000000105      41.525000000000013      32.087500000000013
   165   1      5.6625000000000085       39.63750000000001      35.862500000000011
   166   1      5.6625000000000085      41.525000000000013      37.750000000000014
   167   1      7.5500000000000105       39.63750000000001      37.750000000000014
   168   1      7.5500000000000105      41.525000000000013      35.862500000000011
   169   1      5.6625000000000085       39.63750000000001       39.63750000000001
   170   1      5.6625000000000085      41.525000000000013      41.525000000000013
   171   1      7.5500000000000105       39.63750000000001      41.525000000000013
   172   1      7.5500000000000105      41.525000000000013       39.63750000000001
   173   1      5.6625000000000085       39.63750000000001      43.412500000000009
   174   1      5.6625000000000085      41.525000000000013      45.300000000000011
   175   1      7.5500000000000105       39.63750000000001      45.300000000000011
   176   1      7.5500000000000105      41.525000000000013      43.412500000000009
   177   1      5.6625000000000085       39.63750000000001      47.187500000000007
   178   1      5.6625000000000085      41.525000000000013       49.07500000000001
   179   1      7.5500000000000105       39.63750000000001       49.07500000000001
   180   1      7.5500000000000105      41.525000000000013      47.187500000000007
   181   1      5.6625000000000085       39.63750000000001      50.962500000000013
   182   1      5.6625000000000085      41.525000000000013      52.850000000000016
   183   1      7.5500000000000105       39.63750000000001      52.850000000000016
   184   1      7.5500000000000105      41.525000000000013      50.962500000000013
   185   1      5.6625000000000085       39.63750000000001      54.737500000000004
   186   1      5.6625000000000085      41.525000000000013      56.625000000000007
   187   1      7.5500000000000105       39.63750000000001      56.625000000000007
   188   1      7.5500000000000105      41.525000000000013      54.737500000000004
   189   1      5.6625000000000085       39.63750000000001       58.51250000000001
   190   1      5.6625000000000085      41.525000000000013      60.400000000000013
   191   1      7.5500000000000105       39.63750000000001      60.400000000000013
   192   1      7.5500000000000105      41.525000000000013       58.51250000000001
   193   1      7.5500000000000105       39.63750000000001      64.175000000000011
   194   1      7.5500000000000105      41.525000000000013      62.287500000000009
   195   1      7.5500000000000105      41.525000000000013      66.062500000000014
   196   1      7.5500000000000105      43.412500000000009      26.425000000000011
   197   1      7.5500000000000105      45.300000000000011      24.537500000000009
   198   1      5.6625000000000085      45.300000000000011      30.200000000000006
   199   1      7.5500000000000105      43.412500000000009      30.200000000000006
   200   1      7.5500000000000105      45.300000000000011      28.312500000000011
   201   1      5.6625000000000085      43.412500000000009      32.087500000000013
   202   1      5.6625000000000085      45.300000000000011      33.975000000000016
   203   1      7.5500000000000105      43.412500000000009      33.975000000000016
   204   1      7.5500000000000105      45.300000000000011      32.087500000000013
   205   1      5.6625000000000085      43.412500000000009      35.862500000000011
   206   1      5.6625000000000085      45.300000000000011      37.750000000000014
   207   1      7.5500000000000105      43.412500000000009      37.750000000000014
   208   1      7.5500000000000105      45.300000000000011      35.862500000000011
   209   1      5.6625000000000085      43.412500000000009       39.63750000000001
   210   1      5.6625000000000085      45.300000000000011      41.525000000000013
   211   1      7.5500000000000105      43.412500000000009      41.525000000000013
   212   1      7.5500000000000105      45.300000000000011       39.63750000000001
   213   1      5.6625000000000085      43.412500000000009      43.412500000000009
   214   1      5.6625000000000085      45.300000000000011      45.300000000000011
   215   1      7.5500000000000105      43.412500000000009      45.300000000000011
   216   1      7.5500000000000105      45.300000000000011      43.412500000000009
   217   1      5.6625000000000085      43.412500000000009      47.187500000000007
   218   1      5.6625000000000085      45.300000000000011       49.07500000000001
   219   1      7.5500000000000105      43.412500000000009       49.07500000000001
   220   1      7.5500000000000105      45.300000000000011      47.187500000000007
   221   1      5.6625000000000085      43.412500000000009      50.962500000000013
   222   1      5.6625000000000085      45.300000000000011      52.850000000000016
   223   1      7.5500000000000105      43.412500000000009      52.850000000000016
   224   1      7.5500000000000105      45.300000000000011      50.962500000000013
   225   1      5.6625000000000085      43.412500000000009      54.737500000000004
   226   1      5.6625000000000085      45.300000000000011      56.625000000000007
   227   1      7.5500000000000105      43.412500000000009      56.625000000000007
   228   1      7.5500000000000105      45.300000000000011      54.737500000000004
   229   1      5.6625000000000085      43.412500000000009       58.51250000000001
   230   1      5.6625000000000085      45.300000000000011      60.400000000000013
   231   1      7.5500000000000105      43.412500000000009      60.400000000000013
   232   1      7.5500000000000105      45.300000000000011       58.51250000000001
   233   1      5.6625000000000085      43.412500000000009      62.287500000000009
   234   1      5.6625000000000085      45.300000000000011      64.175000000000011
   235   1      7.5500000000000105      43.412500000000009      64.175000000000011
   236   1      7.5500000000000105      45.300000000000011      62.287500000000009
   237   1      7.5500000000000105      43.412500000000009      67.950000000000017
   238   1      7.5500000000000105      45.300000000000011      66.062500000000014
   239   1      7.5500000000000105      45.300000000000011      69.837500000000006
   240   1      7.5500000000000105      47.187500000000007      22.650000000000009
   241   1      7.5500000000000105      47.187500000000007      26.425000000000011
   242   1      7.5500000000000105       49.07500000000001      24.537500000000009
   243   1      5.6625000000000085      47.187500000000007      28.312500000000011
   244   1      5.6625000000000085       49.07500000000001      30.200000000000006
   245   1      7.5500000000000105      47.187500000000007      30.200000000000006
   246   1      7.5500000000000105       49.07500000000001      28.312500000000011
   247   1      5.6625000000000085      47.187500000000007      32.087500000000013
   248   1      5.6625000000000085       49.07500000000001      33.975000000000016
   249   1      7.5500000000000105      47.187500000000007      33.975000000000016
   250   1      7.5500000000000105       49.07500000000001      32.087500000000013
   251   1      5.6625000000000085      47.187500000000007      35.862500000000011
   252   1      5.6625000000000085       49.07500000000001      37.750000000000014
   253   1      7.5500000000000105      47.187500000000007      37.750000000000014
   254   1      7.5500000000000105       49.07500000000001      35.862500000000011
   255   1      5.6625000000000085      47.187500000000007       39.63750000000001
   256   1      5.6625000000000085       49.07500000000001      41.525000000000013
   257   1      7.5500000000000105      47.187500000000007      41.525000000000013
   258   1      7.5500000000000105       49.07500000000001       39.63750000000001
   259   1      5.6625000000000085      47.187500000000007      43.412500000000009
   260   1      5.6625000000000085       49.07500000000001      45.300000000000011
   261   1      7.5500000000000105      47.187500000000007      45.300000000000011
   262   1      7.5500000000000105       49.07500000000001      43.412500000000009
   263   1      5.6625000000000085      47.187500000000007      47.187500000000007
   264   1      5.6625000000000085       49.07500000000001       49.07500000000001
   265   1      7.5500000000000105      47.187500000000007       49.07500000000001
   266   1      7.5500000000000105       49.07500000000001      47.187500000000007
   267   1      5.6625000000000085      47.187500000000007      50.962500000000013
   268   1      5.6625000000000085       49.07500000000001      52.850000000000016
   269   1      7.5500000000000105      47.187500000000007      52.850000000000016
   270   1      7.5500000000000105       49.07500000000001      50.962500000000013
   271   1      5.6625000000000085      47.187500000000007      54.737500000000004
   272   1      5.6625000000000085       49.07500000000001      56.625000000000007
   273   1      7.5500000000000105      47.187500000000007      56.625000000000007
   274   1      7.5500000000000105       49.07500000000001      54.737500000000004
   275   1      5.6625000000000085      47.187500000000007       58.51250000000001
   276   1      5.6625000000000085       49.07500000000001      60.400000000000013
   277   1      7.5500000000000105      47.187500000000007      60.400000000000013
   278   1      7.5500000000000105       49.07500000000001       58.51250000000001
   279   1      5.6625000000000085      47.187500000000007      62.287500000000009
   280   1      5.6625000000000085       49.07500000000001      64.175000000000011
   281   1      7.5500000000000105      47.187500000000007      64.175000000000011
   282   1      7.5500000000000105       49.07500000000001      62.287500000000009
   283   1      5.6625000000000085      47.187500000000007      66.062500000000014
   284   1      7.5500000000000105      47.187500000000007      67.950000000000017
   285   1      7.5500000000000105       49.07500000000001      66.062500000000014
   286   1      7.5500000000000105      47.187500000000007      71.725000000000009
   287   1      7.5500000000000105       49.07500000000001      69.837500000000006
   288   1      7.5500000000000105      50.962500000000013      26.425000000000011
   289   1      7.5500000000000105      50.962500000000013      30.200000000000006
   290   1      7.5500000000000105      52.850000000000016      28.312500000000011
   291   1      5.6625000000000085      50.962500000000013      32.087500000000013
   292   1      5.6625000000000085      52.850000000000016      33.975000000000016
   293   1      7.5500000000000105      50.962500000000013      33.975000000000016
   294   1      7.5500000000000105      52.850000000000016      32.087500000000013
   295   1      5.6625000000000085      50.962500000000013      35.862500000000011
   296   1      5.6625000000000085      52.850000000000016      37.750000000000014
   297   1      7.5500000000000105      50.962500000000013      37.750000000000014
   298   1      7.5500000000000105      52.850000000000016      35.862500000000011
   299   1      5.6625000000000085      50.962500000000013       39.63750000000001
   300   1      5.6625000000000085      52.850000000000016      41.525000000000013
   301   1      7.5500000000000105      50.962500000000013      41.525000000000013
   302   1      7.5500000000000105      52.850000000000016       39.63750000000001
   303   1      5.6625000000000085      50.962500000000013      43.412500000000009
   304   1      5.6625000000000085      52.850000000000016      45.300000000000011
   305   1      7.5500000000000105      50.962500000000013      45.300000000000011
   306   1      7.5500000000000105      52.850000000000016      43.412500000000009
   307   1      5.6625000000000085      50.962500000000013      47.187500000000007
   308   1      5.6625000000000085      52.850000000000016       49.07500000000001
   309   1      7.5500000000000105      50.962500000000013       49.07500000000001
   310   1      7.5500000000000105      52.850000000000016      47.187500000000007
   311   1      5.6625000000000085      50.962500000000013      50.962500000000013
   312   1      5.6625000000000085      52.850000000000016      52.850000000000016
   313   1      7.5500000000000105      50.962500000000013      52.850000000000016
   314   1      7.5500000000000105      52.850000000000016      50.962500000000013
   315   1      5.6625000000000085      50.962500000000013      54.737500000000004
   316   1      5.6625000000000085      52.850000000000016      56.625000000000007
   317   1      7.5500000000000105      50.962500000000013      56.625000000000007
   318   1      7.5500000000000105      52.850000000000016      54.737500000000004
   319   1      5.6625000000000085      50.962500000000013       58.51250000000001
   320   1      5.6625000000000085      52.850000000000016      60.400000000000013
   321   1      7.5500000000000105      50.962500000000013      60.400000000000013
   322   1      7.5500000000000105      52.850000000000016       58.51250000000001
   323   1      5.6625000000000085      50.962500000000013      62.287500000000009
   324   1      7.5500000000000105      50.962500000000013      64.175000000000011
   325   1      7.5500000000000105      52.850000000000016      62.287500000000009
   326   1      7.5500000000000105      50.962500000000013      67.950000000000017
   327   1      7.5500000000000105      52.850000000000016      66.062500000000014
   328   1      7.5500000000000105      54.737500000000004      30.200000000000006
   329   1      7.5500000000000105      54.737500000000004      33.975000000000016
   330   1      7.5500000000000105      56.625000000000007      32.087500000000013
   331   1      5.6625000000000085      54.737500000000004      35.862500000000011
   332   1      5.6625000000000085      56.625000000000007      37.750000000000014
   333   1      7.5500000000000105      54.737500000000004      37.750000000000014
   334   1      7.5500000000000105      56.625000000000007      35.862500000000011
   335   1      5.6625000000000085      54.737500000000004       39.63750000000001
   336   1      5.6625000000000085      56.625000000000007      41.525000000000013
   337   1      7.5500000000000105      54.737500000000004      41.525000000000013
   338   1      7.5500000000000105      56.625000000000007       39.63750000000001
   339   1      5.6625000000000085      54.737500000000004      43.412500000000009
   340   1      5.6625000000000085      56.625000000000007      45.300000000000011
   341   1      7.5500000000000105      54.737500000000004      45.300000000000011
   342   1      7.5500000000000105      56.625000000000007      43.412500000000009
   343   1      5.6625000000000085      54.737500000000004      47.187500000000007
   344   1      5.6625000000000085      56.625000000000007       49.07500000000001
   345   1      7.5500000000000105      54.737500000000004       49.07500000000001
   346   1      7.5500000000000105      56.625000000000007      47.187500000000007
   347   1      5.6625000000000085      54.737500000000004      50.962500000000013
   348   1      5.6625000000000085      56.625000000000007      52.850000000000016
   349   1      7.5500000000000105      54.737500000000004      52.850000000000016
   350   1      7.5500000000000105      56.625000000000007      50.962500000000013
   351   1      5.6625000000000085      54.737500000000004      54.737500000000004
   352   1      5.6625000000000085      56.625000000000007      56.625000000000007
   353   1      7.5500000000000105      54.737500000000004      56.625000000000007
   354   1      7.5500000000000105      56.625000000000007      54.737500000000004
   355   1      5.6625000000000085      54.737500000000004       58.51250000000001
   356   1      7.5500000000000105      54.737500000000004      60.400000000000013
   357   1      7.5500000000000105      56.625000000000007       58.51250000000001
   358   1      7.5500000000000105      54.737500000000004      64.175000000000011