model_files/Ag/Ag_30000/Ag_510/data.Ag_510_fcc_29899 (written by ASE) 

29899 	 atoms 
1  atom types
0.0                      91  xlo xhi
0.0                      91  ylo yhi
0.0                      91  zlo zhi


Atoms 

     1   1      2.0449999999999946      34.765000000000001      36.810000000000002
     2   1      2.0449999999999946      34.765000000000001      40.899999999999999
     3   1      2.0449999999999946      34.765000000000001      44.989999999999995
     4   1      2.0449999999999946      34.765000000000001      49.079999999999998
     5   1      2.0449999999999946      34.765000000000001      53.170000000000002
     6   1      2.0449999999999946      36.810000000000002      34.765000000000001
     7   1      2.0449999999999946      36.810000000000002      38.854999999999997
     8   1      2.0449999999999946      38.854999999999997      36.810000000000002
     9   1      2.0449999999999946      36.810000000000002                  42.945
    10   1      2.0449999999999946      38.854999999999997      40.899999999999999
    11   1      2.0449999999999946      36.810000000000002      47.034999999999997
    12   1      2.0449999999999946      38.854999999999997      44.989999999999995
    13   1      2.0449999999999946      36.810000000000002                  51.125
    14   1      2.0449999999999946      38.854999999999997      49.079999999999998
    15   1      2.0449999999999946      36.810000000000002      55.215000000000003
    16   1      2.0449999999999946      38.854999999999997      53.170000000000002
    17   1      2.0449999999999946      40.899999999999999      34.765000000000001
    18   1      2.0449999999999946      40.899999999999999      38.854999999999997
    19   1      2.0449999999999946                  42.945      36.810000000000002
    20   1      2.0449999999999946      40.899999999999999                  42.945
    21   1      2.0449999999999946                  42.945      40.899999999999999
    22   1      2.0449999999999946      40.899999999999999      47.034999999999997
    23   1      2.0449999999999946                  42.945      44.989999999999995
    24   1      2.0449999999999946      40.899999999999999                  51.125
    25   1      2.0449999999999946                  42.945      49.079999999999998
    26   1      2.0449999999999946      40.899999999999999      55.215000000000003
    27   1      2.0449999999999946                  42.945      53.170000000000002
    28   1      2.0449999999999946      44.989999999999995      34.765000000000001
    29   1      2.0449999999999946      44.989999999999995      38.854999999999997
    30   1      2.0449999999999946      47.034999999999997      36.810000000000002
    31   1      2.0449999999999946      44.989999999999995                  42.945
    32   1      2.0449999999999946      47.034999999999997      40.899999999999999
    33   1                       0      44.989999999999995      44.989999999999995
    34   1      2.0449999999999946      44.989999999999995      47.034999999999997
    35   1      2.0449999999999946      47.034999999999997      44.989999999999995
    36   1      2.0449999999999946      44.989999999999995                  51.125
    37   1      2.0449999999999946      47.034999999999997      49.079999999999998
    38   1      2.0449999999999946      44.989999999999995      55.215000000000003
    39   1      2.0449999999999946      47.034999999999997      53.170000000000002
    40   1      2.0449999999999946      49.079999999999998      34.765000000000001
    41   1      2.0449999999999946      49.079999999999998      38.854999999999997
    42   1      2.0449999999999946                  51.125      36.810000000000002
    43   1      2.0449999999999946      49.079999999999998                  42.945
    44   1      2.0449999999999946                  51.125      40.899999999999999
    45   1      2.0449999999999946      49.079999999999998      47.034999999999997
    46   1      2.0449999999999946                  51.125      44.989999999999995
    47   1      2.0449999999999946      49.079999999999998                  51.125
    48   1      2.0449999999999946                  51.125      49.079999999999998
    49   1      2.0449999999999946      49.079999999999998      55.215000000000003
    50   1      2.0449999999999946                  51.125      53.170000000000002
    51   1      2.0449999999999946      53.170000000000002      34.765000000000001
    52   1      2.0449999999999946      53.170000000000002      38.854999999999997
    53   1      2.0449999999999946      55.215000000000003      36.810000000000002
    54   1      2.0449999999999946      53.170000000000002                  42.945
    55   1      2.0449999999999946      55.215000000000003      40.899999999999999
    56   1      2.0449999999999946      53.170000000000002      47.034999999999997
    57   1      2.0449999999999946      55.215000000000003      44.989999999999995
    58   1      2.0449999999999946      53.170000000000002                  51.125
    59   1      2.0449999999999946      55.215000000000003      49.079999999999998
    60   1      2.0449999999999946      53.170000000000002      55.215000000000003
    61   1      2.0449999999999946      55.215000000000003      53.170000000000002
    62   1      6.1349999999999989      14.314999999999998      16.359999999999996
    63   1      6.1349999999999989      14.314999999999998      20.449999999999999
    64   1      6.1349999999999989      14.314999999999998      24.539999999999999
    65   1      6.1349999999999989      14.314999999999998      28.629999999999995
    66   1      6.1349999999999989      14.314999999999998      32.720000000000006
    67   1      6.1349999999999989      14.314999999999998      36.810000000000002
    68   1      6.1349999999999989      14.314999999999998      40.899999999999999
    69   1      6.1349999999999989      14.314999999999998      44.989999999999995
    70   1      6.1349999999999989      14.314999999999998      49.079999999999998
    71   1      6.1349999999999989      14.314999999999998      53.170000000000002
    72   1      6.1349999999999989      14.314999999999998      57.259999999999991
    73   1      6.1349999999999989      14.314999999999998      61.349999999999994
    74   1      6.1349999999999989      14.314999999999998      65.440000000000012
    75   1      6.1349999999999989      14.314999999999998      69.530000000000001
    76   1      6.1349999999999989      14.314999999999998      73.620000000000005
    77   1      6.1349999999999989      16.359999999999996      14.314999999999998
    78   1      6.1349999999999989      16.359999999999996      18.404999999999994
    79   1      6.1349999999999989      18.404999999999994      16.359999999999996
    80   1      6.1349999999999989      16.359999999999996      22.494999999999997
    81   1      6.1349999999999989      18.404999999999994      20.449999999999999
    82   1      6.1349999999999989      16.359999999999996      26.584999999999994
    83   1      6.1349999999999989      18.404999999999994      24.539999999999999
    84   1      6.1349999999999989      16.359999999999996      30.674999999999997
    85   1      6.1349999999999989      18.404999999999994      28.629999999999995
    86   1      6.1349999999999989      16.359999999999996      34.765000000000001
    87   1      6.1349999999999989      18.404999999999994      32.720000000000006
    88   1      6.1349999999999989      16.359999999999996      38.854999999999997
    89   1      6.1349999999999989      18.404999999999994      36.810000000000002
    90   1      6.1349999999999989      16.359999999999996                  42.945
    91   1      6.1349999999999989      18.404999999999994      40.899999999999999
    92   1      6.1349999999999989      16.359999999999996      47.034999999999997
    93   1      6.1349999999999989      18.404999999999994      44.989999999999995
    94   1      6.1349999999999989      16.359999999999996                  51.125
    95   1      6.1349999999999989      18.404999999999994      49.079999999999998
    96   1      6.1349999999999989      16.359999999999996      55.215000000000003
    97   1      6.1349999999999989      18.404999999999994      53.170000000000002
    98   1      6.1349999999999989      16.359999999999996      59.304999999999993
    99   1      6.1349999999999989      18.404999999999994      57.259999999999991
   100   1      6.1349999999999989      16.359999999999996      63.395000000000003
   101   1      6.1349999999999989      18.404999999999994      61.349999999999994
   102   1      6.1349999999999989      16.359999999999996      67.485000000000014
   103   1      6.1349999999999989      18.404999999999994      65.440000000000012
   104   1      6.1349999999999989      16.359999999999996      71.575000000000003
   105   1      6.1349999999999989      18.404999999999994      69.530000000000001
   106   1      6.1349999999999989      16.359999999999996      75.665000000000006
   107   1      6.1349999999999989      18.404999999999994      73.620000000000005
   108   1      6.1349999999999989      20.449999999999999      14.314999999999998
   109   1      6.1349999999999989      20.449999999999999      18.404999999999994
   110   1      6.1349999999999989      22.494999999999997      16.359999999999996
   111   1      6.1349999999999989      20.449999999999999      22.494999999999997
   112   1      6.1349999999999989      22.494999999999997      20.449999999999999
   113   1      6.1349999999999989      20.449999999999999      26.584999999999994
   114   1      6.1349999999999989      22.494999999999997      24.539999999999999
   115   1      6.1349999999999989      20.449999999999999      30.674999999999997
   116   1      6.1349999999999989      22.494999999999997      28.629999999999995
   117   1      6.1349999999999989      20.449999999999999      34.765000000000001
   118   1      6.1349999999999989      22.494999999999997      32.720000000000006
   119   1      6.1349999999999989      20.449999999999999      38.854999999999997
   120   1      6.1349999999999989      22.494999999999997      36.810000000000002
   121   1      6.1349999999999989      20.449999999999999                  42.945
   122   1      6.1349999999999989      22.494999999999997      40.899999999999999
   123   1      6.1349999999999989      20.449999999999999      47.034999999999997
   124   1      6.1349999999999989      22.494999999999997      44.989999999999995
   125   1      6.1349999999999989      20.449999999999999                  51.125
   126   1      6.1349999999999989      22.494999999999997      49.079999999999998
   127   1      6.1349999999999989      20.449999999999999      55.215000000000003
   128   1      6.1349999999999989      22.494999999999997      53.170000000000002
   129   1      6.1349999999999989      20.449999999999999      59.304999999999993
   130   1      6.1349999999999989      22.494999999999997      57.259999999999991
   131   1      6.1349999999999989      20.449999999999999      63.395000000000003
   132   1      6.1349999999999989      22.494999999999997      61.349999999999994
   133   1      6.1349999999999989      20.449999999999999      67.485000000000014
   134   1      6.1349999999999989      22.494999999999997      65.440000000000012
   135   1      6.1349999999999989      20.449999999999999      71.575000000000003
   136   1      6.1349999999999989      22.494999999999997      69.530000000000001
   137   1      6.1349999999999989      20.449999999999999      75.665000000000006
   138   1      6.1349999999999989      22.494999999999997      73.620000000000005
   139   1      6.1349999999999989      24.539999999999999      14.314999999999998
   140   1      6.1349999999999989      24.539999999999999      18.404999999999994
   141   1      6.1349999999999989      26.584999999999994      16.359999999999996
   142   1      6.1349999999999989      24.539999999999999      22.494999999999997
   143   1      6.1349999999999989      26.584999999999994      20.449999999999999
   144   1      4.0899999999999963      24.539999999999999      24.539999999999999
   145   1      4.0899999999999963      26.584999999999994      26.584999999999994
   146   1      6.1349999999999989      24.539999999999999      26.584999999999994
   147   1      6.1349999999999989      26.584999999999994      24.539999999999999
   148   1      4.0899999999999963      24.539999999999999      28.629999999999995
   149   1      4.0899999999999963      26.584999999999994      30.674999999999997
   150   1      6.1349999999999989      24.539999999999999      30.674999999999997
   151   1      6.1349999999999989      26.584999999999994      28.629999999999995
   152   1      4.0899999999999963      24.539999999999999      32.720000000000006
   153   1      4.0899999999999963      26.584999999999994      34.765000000000001
   154   1      6.1349999999999989      24.539999999999999      34.765000000000001
   155   1      6.1349999999999989      26.584999999999994      32.720000000000006
   156   1      4.0899999999999963      24.539999999999999      36.810000000000002
   157   1      4.0899999999999963      26.584999999999994      38.854999999999997
   158   1      6.1349999999999989      24.539999999999999      38.854999999999997
   159   1      6.1349999999999989      26.584999999999994      36.810000000000002
   160   1      4.0899999999999963      24.539999999999999      40.899999999999999
   161   1      4.0899999999999963      26.584999999999994                  42.945
   162   1      6.1349999999999989      24.539999999999999                  42.945
   163   1      6.1349999999999989      26.584999999999994      40.899999999999999
   164   1      4.0899999999999963      24.539999999999999      44.989999999999995
   165   1      4.0899999999999963      26.584999999999994      47.034999999999997
   166   1      6.1349999999999989      24.539999999999999      47.034999999999997
   167   1      6.1349999999999989      26.584999999999994      44.989999999999995
   168   1      4.0899999999999963      24.539999999999999      49.079999999999998
   169   1      4.0899999999999963      26.584999999999994                  51.125
   170   1      6.1349999999999989      24.539999999999999                  51.125
   171   1      6.1349999999999989      26.584999999999994      49.079999999999998
   172   1      4.0899999999999963      24.539999999999999      53.170000000000002
   173   1      4.0899999999999963      26.584999999999994      55.215000000000003
   174   1      6.1349999999999989      24.539999999999999      55.215000000000003
   175   1      6.1349999999999989      26.584999999999994      53.170000000000002
   176   1      4.0899999999999963      24.539999999999999      57.259999999999991
   177   1      4.0899999999999963      26.584999999999994      59.304999999999993
   178   1      6.1349999999999989      24.539999999999999      59.304999999999993
   179   1      6.1349999999999989      26.584999999999994      57.259999999999991
   180   1      4.0899999999999963      24.539999999999999      61.349999999999994
   181   1      4.0899999999999963      26.584999999999994      63.395000000000003
   182   1      6.1349999999999989      24.539999999999999      63.395000000000003
   183   1      6.1349999999999989      26.584999999999994      61.349999999999994
   184   1      4.0899999999999963      24.539999999999999      65.440000000000012
   185   1      6.1349999999999989      24.539999999999999      67.485000000000014
   186   1      6.1349999999999989      26.584999999999994      65.440000000000012
   187   1      6.1349999999999989      24.539999999999999      71.575000000000003
   188   1      6.1349999999999989      26.584999999999994      69.530000000000001
   189   1      6.1349999999999989      24.539999999999999      75.665000000000006
   190   1      6.1349999999999989      26.584999999999994      73.620000000000005
   191   1      6.1349999999999989      28.629999999999995      14.314999999999998
   192   1      6.1349999999999989      28.629999999999995      18.404999999999994
   193   1      6.1349999999999989      30.674999999999997      16.359999999999996
   194   1      6.1349999999999989      28.629999999999995      22.494999999999997
   195   1      6.1349999999999989      30.674999999999997      20.449999999999999
   196   1      4.0899999999999963      28.629999999999995      24.539999999999999
   197   1      4.0899999999999963      30.674999999999997      26.584999999999994
   198   1      6.1349999999999989      28.629999999999995      26.584999999999994
   199   1      6.1349999999999989      30.674999999999997      24.539999999999999
   200   1      4.0899999999999963      28.629999999999995      28.629999999999995
   201   1      4.0899999999999963      30.674999999999997      30.674999999999997
   202   1      6.1349999999999989      28.629999999999995      30.674999999999997
   203   1      6.1349999999999989      30.674999999999997      28.629999999999995
   204   1      4.0899999999999963      28.629999999999995      32.720000000000006
   205   1      4.0899999999999963      30.674999999999997      34.765000000000001
   206   1      6.1349999999999989      28.629999999999995      34.765000000000001
   207   1      6.1349999999999989      30.674999999999997      32.720000000000006
   208   1      4.0899999999999963      28.629999999999995      36.810000000000002
   209   1      4.0899999999999963      30.674999999999997      38.854999999999997
   210   1      6.1349999999999989      28.629999999999995      38.854999999999997
   211   1      6.1349999999999989      30.674999999999997      36.810000000000002
   212   1      4.0899999999999963      28.629999999999995      40.899999999999999
   213   1      4.0899999999999963      30.674999999999997                  42.945
   214   1      6.1349999999999989      28.629999999999995                  42.945
   215   1      6.1349999999999989      30.674999999999997      40.899999999999999
   216   1      4.0899999999999963      28.629999999999995      44.989999999999995
   217   1      4.0899999999999963      30.674999999999997      47.034999999999997
   218   1      6.1349999999999989      28.629999999999995      47.034999999999997
   219   1      6.1349999999999989      30.674999999999997      44.989999999999995
   220   1      4.0899999999999963      28.629999999999995      49.079999999999998
   221   1      4.0899999999999963      30.674999999999997                  51.125
   222   1      6.1349999999999989      28.629999999999995                  51.125
   223   1      6.1349999999999989      30.674999999999997      49.079999999999998
   224   1      4.0899999999999963      28.629999999999995      53.170000000000002
   225   1      4.0899999999999963      30.674999999999997      55.215000000000003
   226   1      6.1349999999999989      28.629999999999995      55.215000000000003
   227   1      6.1349999999999989      30.674999999999997      53.170000000000002
   228   1      4.0899999999999963      28.629999999999995      57.259999999999991
   229   1      4.0899999999999963      30.674999999999997      59.304999999999993
   230   1      6.1349999999999989      28.629999999999995      59.304999999999993
   231   1      6.1349999999999989      30.674999999999997      57.259999999999991
   232   1      4.0899999999999963      28.629999999999995      61.349999999999994
   233   1      4.0899999999999963      30.674999999999997      63.395000000000003
   234   1      6.1349999999999989      28.629999999999995      63.395000000000003
   235   1      6.1349999999999989      30.674999999999997      61.349999999999994
   236   1      4.0899999999999963      28.629999999999995      65.440000000000012
   237   1      6.1349999999999989      28.629999999999995      67.485000000000014
   238   1      6.1349999999999989      30.674999999999997      65.440000000000012
   239   1      6.1349999999999989      28.629999999999995      71.575000000000003
   240   1      6.1349999999999989      30.674999999999997      69.530000000000001
   241   1      6.1349999999999989      28.629999999999995      75.665000000000006
   242   1      6.1349999999999989      30.674999999999997      73.620000000000005
   243   1      6.1349999999999989      32.720000000000006      14.314999999999998
   244   1      6.1349999999999989      32.720000000000006      18.404999999999994
   245   1      6.1349999999999989      34.765000000000001      16.359999999999996
   246   1      6.1349999999999989      32.720000000000006      22.494999999999997
   247   1      6.1349999999999989      34.765000000000001      20.449999999999999
   248   1      4.0899999999999963      32.720000000000006      24.539999999999999
   249   1      4.0899999999999963      34.765000000000001      26.584999999999994
   250   1      6.1349999999999989      32.720000000000006      26.584999999999994
   251   1      6.1349999999999989      34.765000000000001      24.539999999999999
   252   1      4.0899999999999963      32.720000000000006      28.629999999999995
   253   1      4.0899999999999963      34.765000000000001      30.674999999999997
   254   1      6.1349999999999989      32.720000000000006      30.674999999999997
   255   1      6.1349999999999989      34.765000000000001      28.629999999999995
   256   1      4.0899999999999963      32.720000000000006      32.720000000000006
   257   1      4.0899999999999963      34.765000000000001      34.765000000000001
   258   1      6.1349999999999989      32.720000000000006      34.765000000000001
   259   1      6.1349999999999989      34.765000000000001      32.720000000000006
   260   1      4.0899999999999963      32.720000000000006      36.810000000000002
   261   1      4.0899999999999963      34.765000000000001      38.854999999999997
   262   1      6.1349999999999989      32.720000000000006      38.854999999999997
   263   1      6.1349999999999989      34.765000000000001      36.810000000000002
   264   1      4.0899999999999963      32.720000000000006      40.899999999999999
   265   1      4.0899999999999963      34.765000000000001                  42.945
   266   1      6.1349999999999989      32.720000000000006                  42.945
   267   1      6.1349999999999989      34.765000000000001      40.899999999999999
   268   1      4.0899999999999963      32.720000000000006      44.989999999999995
   269   1      4.0899999999999963      34.765000000000001      47.034999999999997
   270   1      6.1349999999999989      32.720000000000006      47.034999999999997
   271   1      6.1349999999999989      34.765000000000001      44.989999999999995
   272   1      4.0899999999999963      32.720000000000006      49.079999999999998
   273   1      4.0899999999999963      34.765000000000001                  51.125
   274   1      6.1349999999999989      32.720000000000006                  51.125
   275   1      6.1349999999999989      34.765000000000001      49.079999999999998
   276   1      4.0899999999999963      32.720000000000006      53.170000000000002
   277   1      4.0899999999999963      34.765000000000001      55.215000000000003
   278   1      6.1349999999999989      32.720000000000006      55.215000000000003
   279   1      6.1349999999999989      34.765000000000001      53.170000000000002
   280   1      4.0899999999999963      32.720000000000006      57.259999999999991
   281   1      4.0899999999999963      34.765000000000001      59.304999999999993
   282   1      6.1349999999999989      32.720000000000006      59.304999999999993
   283   1      6.1349999999999989      34.765000000000001      57.259999999999991
   284   1      4.0899999999999963      32.720000000000006      61.349999999999994
   285   1      4.0899999999999963      34.765000000000001      63.395000000000003
   286   1      6.1349999999999989      32.720000000000006      63.395000000000003
   287   1      6.1349999999999989      34.765000000000001      61.349999999999994
   288   1      4.0899999999999963      32.720000000000006      65.440000000000012
   289   1      6.1349999999999989      32.720000000000006      67.485000000000014
   290   1      6.1349999999999989      34.765000000000001      65.440000000000012
   291   1      6.1349999999999989      32.720000000000006      71.575000000000003
   292   1      6.1349999999999989      34.765000000000001      69.530000000000001
   293   1      6.1349999999999989      32.720000000000006      75.665000000000006
   294   1      6.1349999999999989      34.765000000000001      73.620000000000005
   295   1      6.1349999999999989      36.810000000000002      14.314999999999998
   296   1      6.1349999999999989      36.810000000000002      18.404999999999994
   297   1      6.1349999999999989      38.854999999999997      16.359999999999996
   298   1      6.1349999999999989      36.810000000000002      22.494999999999997
   299   1      6.1349999999999989      38.854999999999997      20.449999999999999
   300   1      4.0899999999999963      36.810000000000002      24.539999999999999
   301   1      4.0899999999999963      38.854999999999997      26.584999999999994
   302   1      6.1349999999999989      36.810000000000002      26.584999999999994
   303   1      6.1349999999999989      38.854999999999997      24.539999999999999
   304   1      4.0899999999999963      36.810000000000002      28.629999999999995
   305   1      4.0899999999999963      38.854999999999997      30.674999999999997
   306   1      6.1349999999999989      36.810000000000002      30.674999999999997
   307   1      6.1349999999999989      38.854999999999997      28.629999999999995
   308   1      4.0899999999999963      36.810000000000002      32.720000000000006
   309   1      4.0899999999999963      38.854999999999997      34.765000000000001
   310   1      6.1349999999999989      36.810000000000002      34.765000000000001
   311   1      6.1349999999999989      38.854999999999997      32.720000000000006
   312   1      4.0899999999999963      36.810000000000002      36.810000000000002
   313   1      4.0899999999999963      38.854999999999997      38.854999999999997
   314   1      6.1349999999999989      36.810000000000002      38.854999999999997
   315   1      6.1349999999999989      38.854999999999997      36.810000000000002
   316   1      4.0899999999999963      36.810000000000002      40.899999999999999
   317   1      4.0899999999999963      38.854999999999997                  42.945
   318   1      6.1349999999999989      36.810000000000002                  42.945
   319   1      6.1349999999999989      38.854999999999997      40.899999999999999
   320   1      4.0899999999999963      36.810000000000002      44.989999999999995
   321   1      4.0899999999999963      38.854999999999997      47.034999999999997
   322   1      6.1349999999999989      36.810000000000002      47.034999999999997
   323   1      6.1349999999999989      38.854999999999997      44.989999999999995
   324   1      4.0899999999999963      36.810000000000002      49.079999999999998
   325   1      4.0899999999999963      38.854999999999997                  51.125
   326   1      6.1349999999999989      36.810000000000002                  51.125
   327   1      6.1349999999999989      38.854999999999997      49.079999999999998
   328   1      4.0899999999999963      36.810000000000002      53.170000000000002
   329   1      4.0899999999999963      38.854999999999997      55.215000000000003
   330   1      6.1349999999999989      36.810000000000002      55.215000000000003
   331   1      6.1349999999999989      38.854999999999997      53.170000000000002
   332   1      4.0899999999999963      36.810000000000002      57.259999999999991
   333   1      4.0899999999999963      38.854999999999997      59.304999999999993
   334   1      6.1349999999999989      36.810000000000002      59.304999999999993
   335   1      6.1349999999999989      38.854999999999997      57.259999999999991
   336   1      4.0899999999999963      36.810000000000002      61.349999999999994
   337   1      4.0899999999999963      38.854999999999997      63.395000000000003
   338   1      6.1349999999999989      36.810000000000002      63.395000000000003
   339   1      6.1349999999999989      38.854999999999997      61.349999999999994
   340   1      4.0899999999999963      36.810000000000002      65.440000000000012
   341   1      6.1349999999999989      36.810000000000002      67.485000000000014
   342   1      6.1349999999999989      38.854999999999997      65.440000000000012
   343   1      6.1349999999999989      36.810000000000002      71.575000000000003
   344   1      6.1349999999999989      38.854999999999997      69.530000000000001
   345   1      6.1349999999999989      36.810000000000002      75.665000000000006
   346   1      6.1349999999999989      38.854999999999997      73.620000000000005
   347   1      6.1349999999999989      40.899999999999999      14.314999999999998
   348   1      6.1349999999999989      40.899999999999999      18.404999999999994
   349   1      6.1349999999999989                  42.945      16.359999999999996
   350   1      6.1349999999999989      40.899999999999999      22.494999999999997
   351   1      6.1349999999999989                  42.945      20.449999999999999
   352   1      4.0899999999999963      40.899999999999999      24.539999999999999
   353   1      4.0899999999999963                  42.945      26.584999999999994
   354   1      6.1349999999999989      40.899999999999999      26.584999999999994
   355   1      6.1349999999999989                  42.945      24.539999999999999
   356   1      4.0899999999999963      40.899999999999999      28.629999999999995
   357   1      4.0899999999999963                  42.945      30.674999999999997
   358   1      6.1349999999999989      40.899999999999999      30.674999999999997