model_files/PtCo/PtCo_30000/PtCo_521/PtCo_521_fcc_30329_temp.data (written by ASE) 

30329 	 atoms 
2  atom types
0.0                      93  xlo xhi
0.0                      93  ylo yhi
0.0                      93  zlo zhi


Atoms 

     1   1  1.4210854715202004e-14      43.800000000000011      45.625000000000014
     2   1  1.4210854715202004e-14      45.625000000000014      43.800000000000011
     3   1  1.4210854715202004e-14      45.625000000000014      47.450000000000017
     4   1  1.4210854715202004e-14      47.450000000000017      45.625000000000014
     5   1      3.6500000000000128      34.675000000000018      43.800000000000011
     6   1      3.6500000000000128      36.500000000000021      41.975000000000009
     7   1      3.6500000000000128      34.675000000000018      47.450000000000017
     8   1      3.6500000000000128      36.500000000000021      45.625000000000014
     9   1      3.6500000000000128      36.500000000000021      49.275000000000013
    10   1      3.6500000000000128       38.32500000000001      40.150000000000013
    11   1      3.6500000000000128      40.150000000000013       38.32500000000001
    12   1      1.8250000000000102      40.150000000000013      43.800000000000011
    13   1      3.6500000000000128       38.32500000000001      43.800000000000011
    14   1      3.6500000000000128      40.150000000000013      41.975000000000009
    15   1      1.8250000000000102       38.32500000000001      45.625000000000014
    16   1      1.8250000000000102      40.150000000000013      47.450000000000017
    17   1      3.6500000000000128       38.32500000000001      47.450000000000017
    18   1      3.6500000000000128      40.150000000000013      45.625000000000014
    19   1      3.6500000000000128       38.32500000000001      51.100000000000016
    20   1      3.6500000000000128      40.150000000000013      49.275000000000013
    21   1      3.6500000000000128      40.150000000000013      52.925000000000011
    22   1      3.6500000000000128      41.975000000000009      36.500000000000021
    23   1      3.6500000000000128      43.800000000000011      34.675000000000018
    24   1      1.8250000000000102      43.800000000000011      40.150000000000013
    25   1      3.6500000000000128      41.975000000000009      40.150000000000013
    26   1      3.6500000000000128      43.800000000000011       38.32500000000001
    27   1      1.8250000000000102      41.975000000000009      41.975000000000009
    28   1      1.8250000000000102      43.800000000000011      43.800000000000011
    29   1      3.6500000000000128      41.975000000000009      43.800000000000011
    30   1      3.6500000000000128      43.800000000000011      41.975000000000009
    31   1      1.8250000000000102      41.975000000000009      45.625000000000014
    32   1      1.8250000000000102      43.800000000000011      47.450000000000017
    33   1      3.6500000000000128      41.975000000000009      47.450000000000017
    34   1      3.6500000000000128      43.800000000000011      45.625000000000014
    35   1      1.8250000000000102      41.975000000000009      49.275000000000013
    36   1      1.8250000000000102      43.800000000000011      51.100000000000016
    37   1      3.6500000000000128      41.975000000000009      51.100000000000016
    38   1      3.6500000000000128      43.800000000000011      49.275000000000013
    39   1      3.6500000000000128      41.975000000000009      54.750000000000021
    40   1      3.6500000000000128      43.800000000000011      52.925000000000011
    41   1      3.6500000000000128      43.800000000000011      56.575000000000017
    42   1      3.6500000000000128      45.625000000000014      36.500000000000021
    43   1      3.6500000000000128      47.450000000000017      34.675000000000018
    44   1      1.8250000000000102      45.625000000000014       38.32500000000001
    45   1      1.8250000000000102      47.450000000000017      40.150000000000013
    46   1      3.6500000000000128      45.625000000000014      40.150000000000013
    47   1      3.6500000000000128      47.450000000000017       38.32500000000001
    48   1      1.8250000000000102      45.625000000000014      41.975000000000009
    49   1      1.8250000000000102      47.450000000000017      43.800000000000011
    50   1      3.6500000000000128      45.625000000000014      43.800000000000011
    51   1      3.6500000000000128      47.450000000000017      41.975000000000009
    52   1      1.8250000000000102      45.625000000000014      45.625000000000014
    53   1      1.8250000000000102      47.450000000000017      47.450000000000017
    54   1      3.6500000000000128      45.625000000000014      47.450000000000017
    55   1      3.6500000000000128      47.450000000000017      45.625000000000014
    56   1      1.8250000000000102      45.625000000000014      49.275000000000013
    57   1      1.8250000000000102      47.450000000000017      51.100000000000016
    58   1      3.6500000000000128      45.625000000000014      51.100000000000016
    59   1      3.6500000000000128      47.450000000000017      49.275000000000013
    60   1      1.8250000000000102      45.625000000000014      52.925000000000011
    61   1      3.6500000000000128      45.625000000000014      54.750000000000021
    62   1      3.6500000000000128      47.450000000000017      52.925000000000011
    63   1      3.6500000000000128      47.450000000000017      56.575000000000017
    64   1      3.6500000000000128      49.275000000000013      36.500000000000021
    65   1      3.6500000000000128      49.275000000000013      40.150000000000013
    66   1      3.6500000000000128      51.100000000000016       38.32500000000001
    67   1      1.8250000000000102      49.275000000000013      41.975000000000009
    68   1      1.8250000000000102      51.100000000000016      43.800000000000011
    69   1      3.6500000000000128      49.275000000000013      43.800000000000011
    70   1      3.6500000000000128      51.100000000000016      41.975000000000009
    71   1      1.8250000000000102      49.275000000000013      45.625000000000014
    72   1      1.8250000000000102      51.100000000000016      47.450000000000017
    73   1      3.6500000000000128      49.275000000000013      47.450000000000017
    74   1      3.6500000000000128      51.100000000000016      45.625000000000014
    75   1      1.8250000000000102      49.275000000000013      49.275000000000013
    76   1      3.6500000000000128      49.275000000000013      51.100000000000016
    77   1      3.6500000000000128      51.100000000000016      49.275000000000013
    78   1      3.6500000000000128      49.275000000000013      54.750000000000021
    79   1      3.6500000000000128      51.100000000000016      52.925000000000011
    80   1      3.6500000000000128      52.925000000000011      40.150000000000013
    81   1      3.6500000000000128      52.925000000000011      43.800000000000011
    82   1      3.6500000000000128      54.750000000000021      41.975000000000009
    83   1      1.8250000000000102      52.925000000000011      45.625000000000014
    84   1      3.6500000000000128      52.925000000000011      47.450000000000017
    85   1      3.6500000000000128      54.750000000000021      45.625000000000014
    86   1      3.6500000000000128      52.925000000000011      51.100000000000016
    87   1      3.6500000000000128      54.750000000000021      49.275000000000013
    88   1      3.6500000000000128      56.575000000000017      43.800000000000011
    89   1      3.6500000000000128      56.575000000000017      47.450000000000017
    90   1      7.3000000000000114      25.550000000000015      45.625000000000014
    91   1      7.3000000000000114      27.375000000000011      40.150000000000013
    92   1      7.3000000000000114      29.200000000000014       38.32500000000001
    93   1      7.3000000000000114      27.375000000000011      43.800000000000011
    94   1      7.3000000000000114      29.200000000000014      41.975000000000009
    95   1      7.3000000000000114      27.375000000000011      47.450000000000017
    96   1      7.3000000000000114      29.200000000000014      45.625000000000014
    97   1      7.3000000000000114      27.375000000000011      51.100000000000016
    98   1      7.3000000000000114      29.200000000000014      49.275000000000013
    99   1      7.3000000000000114      29.200000000000014      52.925000000000011
   100   1      7.3000000000000114      31.025000000000016      32.850000000000023
   101   1      7.3000000000000114      32.850000000000023      31.025000000000016
   102   1      7.3000000000000114      31.025000000000016      36.500000000000021
   103   1      7.3000000000000114      32.850000000000023      34.675000000000018
   104   1      5.4750000000000085      32.850000000000023      40.150000000000013
   105   1      7.3000000000000114      31.025000000000016      40.150000000000013
   106   1      7.3000000000000114      32.850000000000023       38.32500000000001
   107   1      5.4750000000000085      31.025000000000016      41.975000000000009
   108   1      5.4750000000000085      32.850000000000023      43.800000000000011
   109   1      7.3000000000000114      31.025000000000016      43.800000000000011
   110   1      7.3000000000000114      32.850000000000023      41.975000000000009
   111   1      5.4750000000000085      31.025000000000016      45.625000000000014
   112   1      5.4750000000000085      32.850000000000023      47.450000000000017
   113   1      7.3000000000000114      31.025000000000016      47.450000000000017
   114   1      7.3000000000000114      32.850000000000023      45.625000000000014
   115   1      5.4750000000000085      31.025000000000016      49.275000000000013
   116   1      5.4750000000000085      32.850000000000023      51.100000000000016
   117   1      7.3000000000000114      31.025000000000016      51.100000000000016
   118   1      7.3000000000000114      32.850000000000023      49.275000000000013
   119   1      7.3000000000000114      31.025000000000016      54.750000000000021
   120   1      7.3000000000000114      32.850000000000023      52.925000000000011
   121   1      7.3000000000000114      31.025000000000016       58.40000000000002
   122   1      7.3000000000000114      32.850000000000023      56.575000000000017
   123   1      7.3000000000000114      32.850000000000023      60.225000000000009
   124   1      7.3000000000000114      34.675000000000018      32.850000000000023
   125   1      7.3000000000000114      36.500000000000021      31.025000000000016
   126   1      5.4750000000000085      34.675000000000018      34.675000000000018
   127   1      5.4750000000000085      36.500000000000021      36.500000000000021
   128   1      7.3000000000000114      34.675000000000018      36.500000000000021
   129   1      7.3000000000000114      36.500000000000021      34.675000000000018
   130   1      5.4750000000000085      34.675000000000018       38.32500000000001
   131   1      5.4750000000000085      36.500000000000021      40.150000000000013
   132   1      7.3000000000000114      34.675000000000018      40.150000000000013
   133   1      7.3000000000000114      36.500000000000021       38.32500000000001
   134   1      5.4750000000000085      34.675000000000018      41.975000000000009
   135   1      5.4750000000000085      36.500000000000021      43.800000000000011
   136   1      7.3000000000000114      34.675000000000018      43.800000000000011
   137   1      7.3000000000000114      36.500000000000021      41.975000000000009
   138   1      5.4750000000000085      34.675000000000018      45.625000000000014
   139   1      5.4750000000000085      36.500000000000021      47.450000000000017
   140   1      7.3000000000000114      34.675000000000018      47.450000000000017
   141   1      7.3000000000000114      36.500000000000021      45.625000000000014
   142   1      5.4750000000000085      34.675000000000018      49.275000000000013
   143   1      5.4750000000000085      36.500000000000021      51.100000000000016
   144   1      7.3000000000000114      34.675000000000018      51.100000000000016
   145   1      7.3000000000000114      36.500000000000021      49.275000000000013
   146   1      5.4750000000000085      34.675000000000018      52.925000000000011
   147   1      5.4750000000000085      36.500000000000021      54.750000000000021
   148   1      7.3000000000000114      34.675000000000018      54.750000000000021
   149   1      7.3000000000000114      36.500000000000021      52.925000000000011
   150   1      5.4750000000000085      34.675000000000018      56.575000000000017
   151   1      7.3000000000000114      34.675000000000018       58.40000000000002
   152   1      7.3000000000000114      36.500000000000021      56.575000000000017
   153   1      7.3000000000000114      36.500000000000021      60.225000000000009
   154   1      7.3000000000000114       38.32500000000001      29.200000000000014
   155   1      7.3000000000000114      40.150000000000013      27.375000000000011
   156   1      5.4750000000000085      40.150000000000013      32.850000000000023
   157   1      7.3000000000000114       38.32500000000001      32.850000000000023
   158   1      7.3000000000000114      40.150000000000013      31.025000000000016
   159   1      5.4750000000000085       38.32500000000001      34.675000000000018
   160   1      5.4750000000000085      40.150000000000013      36.500000000000021
   161   1      7.3000000000000114       38.32500000000001      36.500000000000021
   162   1      7.3000000000000114      40.150000000000013      34.675000000000018
   163   1      5.4750000000000085       38.32500000000001       38.32500000000001
   164   1      5.4750000000000085      40.150000000000013      40.150000000000013
   165   1      7.3000000000000114       38.32500000000001      40.150000000000013
   166   1      7.3000000000000114      40.150000000000013       38.32500000000001
   167   1      5.4750000000000085       38.32500000000001      41.975000000000009
   168   1      5.4750000000000085      40.150000000000013      43.800000000000011
   169   1      7.3000000000000114       38.32500000000001      43.800000000000011
   170   1      7.3000000000000114      40.150000000000013      41.975000000000009
   171   1      5.4750000000000085       38.32500000000001      45.625000000000014
   172   1      5.4750000000000085      40.150000000000013      47.450000000000017
   173   1      7.3000000000000114       38.32500000000001      47.450000000000017
   174   1      7.3000000000000114      40.150000000000013      45.625000000000014
   175   1      5.4750000000000085       38.32500000000001      49.275000000000013
   176   1      5.4750000000000085      40.150000000000013      51.100000000000016
   177   1      7.3000000000000114       38.32500000000001      51.100000000000016
   178   1      7.3000000000000114      40.150000000000013      49.275000000000013
   179   1      5.4750000000000085       38.32500000000001      52.925000000000011
   180   1      5.4750000000000085      40.150000000000013      54.750000000000021
   181   1      7.3000000000000114       38.32500000000001      54.750000000000021
   182   1      7.3000000000000114      40.150000000000013      52.925000000000011
   183   1      5.4750000000000085       38.32500000000001      56.575000000000017
   184   1      5.4750000000000085      40.150000000000013       58.40000000000002
   185   1      7.3000000000000114       38.32500000000001       58.40000000000002
   186   1      7.3000000000000114      40.150000000000013      56.575000000000017
   187   1      7.3000000000000114       38.32500000000001      62.050000000000011
   188   1      7.3000000000000114      40.150000000000013      60.225000000000009
   189   1      7.3000000000000114      40.150000000000013      63.875000000000014
   190   1      7.3000000000000114      41.975000000000009      29.200000000000014
   191   1      7.3000000000000114      43.800000000000011      27.375000000000011
   192   1      5.4750000000000085      41.975000000000009      31.025000000000016
   193   1      5.4750000000000085      43.800000000000011      32.850000000000023
   194   1      7.3000000000000114      41.975000000000009      32.850000000000023
   195   1      7.3000000000000114      43.800000000000011      31.025000000000016
   196   1      5.4750000000000085      41.975000000000009      34.675000000000018
   197   1      5.4750000000000085      43.800000000000011      36.500000000000021
   198   1      7.3000000000000114      41.975000000000009      36.500000000000021
   199   1      7.3000000000000114      43.800000000000011      34.675000000000018
   200   1      5.4750000000000085      41.975000000000009       38.32500000000001
   201   1      5.4750000000000085      43.800000000000011      40.150000000000013
   202   1      7.3000000000000114      41.975000000000009      40.150000000000013
   203   1      7.3000000000000114      43.800000000000011       38.32500000000001
   204   1      5.4750000000000085      41.975000000000009      41.975000000000009
   205   1      5.4750000000000085      43.800000000000011      43.800000000000011
   206   1      7.3000000000000114      41.975000000000009      43.800000000000011
   207   1      7.3000000000000114      43.800000000000011      41.975000000000009
   208   1      5.4750000000000085      41.975000000000009      45.625000000000014
   209   1      5.4750000000000085      43.800000000000011      47.450000000000017
   210   1      7.3000000000000114      41.975000000000009      47.450000000000017
   211   1      7.3000000000000114      43.800000000000011      45.625000000000014
   212   1      5.4750000000000085      41.975000000000009      49.275000000000013
   213   1      5.4750000000000085      43.800000000000011      51.100000000000016
   214   1      7.3000000000000114      41.975000000000009      51.100000000000016
   215   1      7.3000000000000114      43.800000000000011      49.275000000000013
   216   1      5.4750000000000085      41.975000000000009      52.925000000000011
   217   1      5.4750000000000085      43.800000000000011      54.750000000000021
   218   1      7.3000000000000114      41.975000000000009      54.750000000000021
   219   1      7.3000000000000114      43.800000000000011      52.925000000000011
   220   1      5.4750000000000085      41.975000000000009      56.575000000000017
   221   1      5.4750000000000085      43.800000000000011       58.40000000000002
   222   1      7.3000000000000114      41.975000000000009       58.40000000000002
   223   1      7.3000000000000114      43.800000000000011      56.575000000000017
   224   1      5.4750000000000085      41.975000000000009      60.225000000000009
   225   1      7.3000000000000114      41.975000000000009      62.050000000000011
   226   1      7.3000000000000114      43.800000000000011      60.225000000000009
   227   1      7.3000000000000114      43.800000000000011      63.875000000000014
   228   1      7.3000000000000114      45.625000000000014      25.550000000000015
   229   1      7.3000000000000114      45.625000000000014      29.200000000000014
   230   1      7.3000000000000114      47.450000000000017      27.375000000000011
   231   1      5.4750000000000085      45.625000000000014      31.025000000000016
   232   1      5.4750000000000085      47.450000000000017      32.850000000000023
   233   1      7.3000000000000114      45.625000000000014      32.850000000000023
   234   1      7.3000000000000114      47.450000000000017      31.025000000000016
   235   1      5.4750000000000085      45.625000000000014      34.675000000000018
   236   1      5.4750000000000085      47.450000000000017      36.500000000000021
   237   1      7.3000000000000114      45.625000000000014      36.500000000000021
   238   1      7.3000000000000114      47.450000000000017      34.675000000000018
   239   1      5.4750000000000085      45.625000000000014       38.32500000000001
   240   1      5.4750000000000085      47.450000000000017      40.150000000000013
   241   1      7.3000000000000114      45.625000000000014      40.150000000000013
   242   1      7.3000000000000114      47.450000000000017       38.32500000000001
   243   1      5.4750000000000085      45.625000000000014      41.975000000000009
   244   1      5.4750000000000085      47.450000000000017      43.800000000000011
   245   1      7.3000000000000114      45.625000000000014      43.800000000000011
   246   1      7.3000000000000114      47.450000000000017      41.975000000000009
   247   1      5.4750000000000085      45.625000000000014      45.625000000000014
   248   1      5.4750000000000085      47.450000000000017      47.450000000000017
   249   1      7.3000000000000114      45.625000000000014      47.450000000000017
   250   1      7.3000000000000114      47.450000000000017      45.625000000000014
   251   1      5.4750000000000085      45.625000000000014      49.275000000000013
   252   1      5.4750000000000085      47.450000000000017      51.100000000000016
   253   1      7.3000000000000114      45.625000000000014      51.100000000000016
   254   1      7.3000000000000114      47.450000000000017      49.275000000000013
   255   1      5.4750000000000085      45.625000000000014      52.925000000000011
   256   1      5.4750000000000085      47.450000000000017      54.750000000000021
   257   1      7.3000000000000114      45.625000000000014      54.750000000000021
   258   1      7.3000000000000114      47.450000000000017      52.925000000000011
   259   1      5.4750000000000085      45.625000000000014      56.575000000000017
   260   1      5.4750000000000085      47.450000000000017       58.40000000000002
   261   1      7.3000000000000114      45.625000000000014       58.40000000000002
   262   1      7.3000000000000114      47.450000000000017      56.575000000000017
   263   1      5.4750000000000085      45.625000000000014      60.225000000000009
   264   1      7.3000000000000114      45.625000000000014      62.050000000000011
   265   1      7.3000000000000114      47.450000000000017      60.225000000000009
   266   1      7.3000000000000114      45.625000000000014      65.700000000000017
   267   1      7.3000000000000114      47.450000000000017      63.875000000000014
   268   1      7.3000000000000114      49.275000000000013      29.200000000000014
   269   1      7.3000000000000114      51.100000000000016      27.375000000000011
   270   1      5.4750000000000085      49.275000000000013      31.025000000000016
   271   1      5.4750000000000085      51.100000000000016      32.850000000000023
   272   1      7.3000000000000114      49.275000000000013      32.850000000000023
   273   1      7.3000000000000114      51.100000000000016      31.025000000000016
   274   1      5.4750000000000085      49.275000000000013      34.675000000000018
   275   1      5.4750000000000085      51.100000000000016      36.500000000000021
   276   1      7.3000000000000114      49.275000000000013      36.500000000000021
   277   1      7.3000000000000114      51.100000000000016      34.675000000000018
   278   1      5.4750000000000085      49.275000000000013       38.32500000000001
   279   1      5.4750000000000085      51.100000000000016      40.150000000000013
   280   1      7.3000000000000114      49.275000000000013      40.150000000000013
   281   1      7.3000000000000114      51.100000000000016       38.32500000000001
   282   1      5.4750000000000085      49.275000000000013      41.975000000000009
   283   1      5.4750000000000085      51.100000000000016      43.800000000000011
   284   1      7.3000000000000114      49.275000000000013      43.800000000000011
   285   1      7.3000000000000114      51.100000000000016      41.975000000000009
   286   1      5.4750000000000085      49.275000000000013      45.625000000000014
   287   1      5.4750000000000085      51.100000000000016      47.450000000000017
   288   1      7.3000000000000114      49.275000000000013      47.450000000000017
   289   1      7.3000000000000114      51.100000000000016      45.625000000000014
   290   1      5.4750000000000085      49.275000000000013      49.275000000000013
   291   1      5.4750000000000085      51.100000000000016      51.100000000000016
   292   1      7.3000000000000114      49.275000000000013      51.100000000000016
   293   1      7.3000000000000114      51.100000000000016      49.275000000000013
   294   1      5.4750000000000085      49.275000000000013      52.925000000000011
   295   1      5.4750000000000085      51.100000000000016      54.750000000000021
   296   1      7.3000000000000114      49.275000000000013      54.750000000000021
   297   1      7.3000000000000114      51.100000000000016      52.925000000000011
   298   1      5.4750000000000085      49.275000000000013      56.575000000000017
   299   1      5.4750000000000085      51.100000000000016       58.40000000000002
   300   1      7.3000000000000114      49.275000000000013       58.40000000000002
   301   1      7.3000000000000114      51.100000000000016      56.575000000000017
   302   1      5.4750000000000085      49.275000000000013      60.225000000000009
   303   1      7.3000000000000114      49.275000000000013      62.050000000000011
   304   1      7.3000000000000114      51.100000000000016      60.225000000000009
   305   1      7.3000000000000114      51.100000000000016      63.875000000000014
   306   1      7.3000000000000114      52.925000000000011      29.200000000000014
   307   1      7.3000000000000114      52.925000000000011      32.850000000000023
   308   1      7.3000000000000114      54.750000000000021      31.025000000000016
   309   1      5.4750000000000085      52.925000000000011      34.675000000000018
   310   1      5.4750000000000085      54.750000000000021      36.500000000000021
   311   1      7.3000000000000114      52.925000000000011      36.500000000000021
   312   1      7.3000000000000114      54.750000000000021      34.675000000000018
   313   1      5.4750000000000085      52.925000000000011       38.32500000000001
   314   1      5.4750000000000085      54.750000000000021      40.150000000000013
   315   1      7.3000000000000114      52.925000000000011      40.150000000000013
   316   1      7.3000000000000114      54.750000000000021       38.32500000000001
   317   1      5.4750000000000085      52.925000000000011      41.975000000000009
   318   1      5.4750000000000085      54.750000000000021      43.800000000000011
   319   1      7.3000000000000114      52.925000000000011      43.800000000000011
   320   1      7.3000000000000114      54.750000000000021      41.975000000000009
   321   1      5.4750000000000085      52.925000000000011      45.625000000000014
   322   1      5.4750000000000085      54.750000000000021      47.450000000000017
   323   1      7.3000000000000114      52.925000000000011      47.450000000000017
   324   1      7.3000000000000114      54.750000000000021      45.625000000000014
   325   1      5.4750000000000085      52.925000000000011      49.275000000000013
   326   1      5.4750000000000085      54.750000000000021      51.100000000000016
   327   1      7.3000000000000114      52.925000000000011      51.100000000000016
   328   1      7.3000000000000114      54.750000000000021      49.275000000000013
   329   1      5.4750000000000085      52.925000000000011      52.925000000000011
   330   1      5.4750000000000085      54.750000000000021      54.750000000000021
   331   1      7.3000000000000114      52.925000000000011      54.750000000000021
   332   1      7.3000000000000114      54.750000000000021      52.925000000000011
   333   1      5.4750000000000085      52.925000000000011      56.575000000000017
   334   1      7.3000000000000114      52.925000000000011       58.40000000000002
   335   1      7.3000000000000114      54.750000000000021      56.575000000000017
   336   1      7.3000000000000114      52.925000000000011      62.050000000000011
   337   1      7.3000000000000114      54.750000000000021      60.225000000000009
   338   1      7.3000000000000114      56.575000000000017      32.850000000000023
   339   1      7.3000000000000114       58.40000000000002      31.025000000000016
   340   1      5.4750000000000085      56.575000000000017      34.675000000000018
   341   1      7.3000000000000114      56.575000000000017      36.500000000000021
   342   1      7.3000000000000114       58.40000000000002      34.675000000000018
   343   1      5.4750000000000085      56.575000000000017       38.32500000000001
   344   1      5.4750000000000085       58.40000000000002      40.150000000000013
   345   1      7.3000000000000114      56.575000000000017      40.150000000000013
   346   1      7.3000000000000114       58.40000000000002       38.32500000000001
   347   1      5.4750000000000085      56.575000000000017      41.975000000000009
   348   1      5.4750000000000085       58.40000000000002      43.800000000000011
   349   1      7.3000000000000114      56.575000000000017      43.800000000000011
   350   1      7.3000000000000114       58.40000000000002      41.975000000000009
   351   1      5.4750000000000085      56.575000000000017      45.625000000000014
   352   1      5.4750000000000085       58.40000000000002      47.450000000000017
   353   1      7.3000000000000114      56.575000000000017      47.450000000000017
   354   1      7.3000000000000114       58.40000000000002      45.625000000000014
   355   1      5.4750000000000085      56.575000000000017      49.275000000000013
   356   1      5.4750000000000085       58.40000000000002      51.100000000000016
   357   1      7.3000000000000114      56.575000000000017      51.100000000000016
   358   1      7.3000000000000114       58.40000000000002      49.275000000000013