model_files/CuNi/CuNi_30000/CuNi_321/CuNi_321_fcc_29817_temp.data (written by ASE) 

29817 	 atoms 
2  atom types
0.0                     101  xlo xhi
0.0                     101  ylo yhi
0.0                     101  zlo zhi


Atoms 

     1   1      1.7829999999999941      44.575000000000003      49.923999999999999
     2   1                       0      48.141000000000005      48.141000000000005
     3   1      1.7829999999999941      46.358000000000004      48.141000000000005
     4   1      1.7829999999999941      48.141000000000005      46.358000000000004
     5   1                       0      48.141000000000005      51.707000000000001
     6   1      1.7829999999999941      46.358000000000004      51.707000000000001
     7   1      1.7829999999999941      48.141000000000005      49.923999999999999
     8   1      1.7829999999999941      48.141000000000005      53.490000000000002
     9   1      1.7829999999999941      49.923999999999999      44.575000000000003
    10   1                       0      51.707000000000001      48.141000000000005
    11   1      1.7829999999999941      49.923999999999999      48.141000000000005
    12   1      1.7829999999999941      51.707000000000001      46.358000000000004
    13   1                       0      49.923999999999999      49.923999999999999
    14   1                       0      51.707000000000001      51.707000000000001
    15   1      1.7829999999999941      49.923999999999999      51.707000000000001
    16   1      1.7829999999999941      51.707000000000001      49.923999999999999
    17   1      1.7829999999999941      49.923999999999999      55.273000000000003
    18   1      1.7829999999999941      51.707000000000001      53.490000000000002
    19   1      1.7829999999999941      53.490000000000002      48.141000000000005
    20   1      1.7829999999999941      53.490000000000002      51.707000000000001
    21   1      1.7829999999999941      55.273000000000003      49.923999999999999
    22   1      5.3489999999999966                  41.009      46.358000000000004
    23   1      5.3489999999999966                  41.009      49.923999999999999
    24   1      5.3489999999999966                  41.009      53.490000000000002
    25   1      3.5659999999999954      44.575000000000003      44.575000000000003
    26   1      5.3489999999999966      42.792000000000002      44.575000000000003
    27   1      5.3489999999999966      44.575000000000003      42.792000000000002
    28   1      3.5659999999999954      44.575000000000003      48.141000000000005
    29   1      5.3489999999999966      42.792000000000002      48.141000000000005
    30   1      5.3489999999999966      44.575000000000003      46.358000000000004
    31   1      3.5659999999999954      42.792000000000002      49.923999999999999
    32   1      3.5659999999999954      44.575000000000003      51.707000000000001
    33   1      5.3489999999999966      42.792000000000002      51.707000000000001
    34   1      5.3489999999999966      44.575000000000003      49.923999999999999
    35   1      3.5659999999999954      44.575000000000003      55.273000000000003
    36   1      5.3489999999999966      42.792000000000002      55.273000000000003
    37   1      5.3489999999999966      44.575000000000003      53.490000000000002
    38   1      5.3489999999999966      44.575000000000003      57.056000000000004
    39   1      5.3489999999999966      46.358000000000004                  41.009
    40   1      3.5659999999999954      48.141000000000005      44.575000000000003
    41   1      5.3489999999999966      46.358000000000004      44.575000000000003
    42   1      5.3489999999999966      48.141000000000005      42.792000000000002
    43   1      3.5659999999999954      46.358000000000004      46.358000000000004
    44   1      3.5659999999999954      48.141000000000005      48.141000000000005
    45   1      5.3489999999999966      46.358000000000004      48.141000000000005
    46   1      5.3489999999999966      48.141000000000005      46.358000000000004
    47   1      3.5659999999999954      46.358000000000004      49.923999999999999
    48   1      3.5659999999999954      48.141000000000005      51.707000000000001
    49   1      5.3489999999999966      46.358000000000004      51.707000000000001
    50   1      5.3489999999999966      48.141000000000005      49.923999999999999
    51   1      3.5659999999999954      46.358000000000004      53.490000000000002
    52   1      3.5659999999999954      48.141000000000005      55.273000000000003
    53   1      5.3489999999999966      46.358000000000004      55.273000000000003
    54   1      5.3489999999999966      48.141000000000005      53.490000000000002
    55   1      5.3489999999999966      46.358000000000004      58.839000000000006
    56   1      5.3489999999999966      48.141000000000005      57.056000000000004
    57   1      5.3489999999999966      49.923999999999999                  41.009
    58   1      3.5659999999999954      49.923999999999999      42.792000000000002
    59   1      3.5659999999999954      51.707000000000001      44.575000000000003
    60   1      5.3489999999999966      49.923999999999999      44.575000000000003
    61   1      5.3489999999999966      51.707000000000001      42.792000000000002
    62   1      3.5659999999999954      49.923999999999999      46.358000000000004
    63   1      3.5659999999999954      51.707000000000001      48.141000000000005
    64   1      5.3489999999999966      49.923999999999999      48.141000000000005
    65   1      5.3489999999999966      51.707000000000001      46.358000000000004
    66   1      3.5659999999999954      49.923999999999999      49.923999999999999
    67   1      3.5659999999999954      51.707000000000001      51.707000000000001
    68   1      5.3489999999999966      49.923999999999999      51.707000000000001
    69   1      5.3489999999999966      51.707000000000001      49.923999999999999
    70   1      3.5659999999999954      49.923999999999999      53.490000000000002
    71   1      3.5659999999999954      51.707000000000001      55.273000000000003
    72   1      5.3489999999999966      49.923999999999999      55.273000000000003
    73   1      5.3489999999999966      51.707000000000001      53.490000000000002
    74   1      3.5659999999999954      49.923999999999999      57.056000000000004
    75   1      5.3489999999999966      49.923999999999999      58.839000000000006
    76   1      5.3489999999999966      51.707000000000001      57.056000000000004
    77   1      5.3489999999999966      53.490000000000002                  41.009
    78   1      3.5659999999999954      55.273000000000003      44.575000000000003
    79   1      5.3489999999999966      53.490000000000002      44.575000000000003
    80   1      5.3489999999999966      55.273000000000003      42.792000000000002
    81   1      3.5659999999999954      53.490000000000002      46.358000000000004
    82   1      3.5659999999999954      55.273000000000003      48.141000000000005
    83   1      5.3489999999999966      53.490000000000002      48.141000000000005
    84   1      5.3489999999999966      55.273000000000003      46.358000000000004
    85   1      3.5659999999999954      53.490000000000002      49.923999999999999
    86   1      3.5659999999999954      55.273000000000003      51.707000000000001
    87   1      5.3489999999999966      53.490000000000002      51.707000000000001
    88   1      5.3489999999999966      55.273000000000003      49.923999999999999
    89   1      3.5659999999999954      53.490000000000002      53.490000000000002
    90   1      3.5659999999999954      55.273000000000003      55.273000000000003
    91   1      5.3489999999999966      53.490000000000002      55.273000000000003
    92   1      5.3489999999999966      55.273000000000003      53.490000000000002
    93   1      5.3489999999999966      53.490000000000002      58.839000000000006
    94   1      5.3489999999999966      55.273000000000003      57.056000000000004
    95   1      5.3489999999999966      57.056000000000004      44.575000000000003
    96   1      5.3489999999999966      57.056000000000004      48.141000000000005
    97   1      5.3489999999999966      58.839000000000006      46.358000000000004
    98   1      3.5659999999999954      57.056000000000004      49.923999999999999
    99   1      5.3489999999999966      57.056000000000004      51.707000000000001
   100   1      5.3489999999999966      58.839000000000006      49.923999999999999
   101   1      5.3489999999999966      57.056000000000004      55.273000000000003
   102   1      5.3489999999999966      58.839000000000006      53.490000000000002
   103   1      8.9149999999999991      33.877000000000002      49.923999999999999
   104   1      8.9149999999999991      37.443000000000005      42.792000000000002
   105   1      7.1319999999999979      37.443000000000005      48.141000000000005
   106   1      8.9149999999999991      35.660000000000004      48.141000000000005
   107   1      8.9149999999999991      37.443000000000005      46.358000000000004
   108   1      7.1319999999999979      37.443000000000005      51.707000000000001
   109   1      8.9149999999999991      35.660000000000004      51.707000000000001
   110   1      8.9149999999999991      37.443000000000005      49.923999999999999
   111   1      8.9149999999999991      37.443000000000005      53.490000000000002
   112   1      8.9149999999999991      37.443000000000005      57.056000000000004
   113   1      7.1319999999999979                  41.009                  41.009
   114   1      8.9149999999999991      39.225999999999999                  41.009
   115   1      8.9149999999999991                  41.009      39.225999999999999
   116   1      7.1319999999999979                  41.009      44.575000000000003
   117   1      8.9149999999999991      39.225999999999999      44.575000000000003
   118   1      8.9149999999999991                  41.009      42.792000000000002
   119   1      7.1319999999999979      39.225999999999999      46.358000000000004
   120   1      7.1319999999999979                  41.009      48.141000000000005
   121   1      8.9149999999999991      39.225999999999999      48.141000000000005
   122   1      8.9149999999999991                  41.009      46.358000000000004
   123   1      7.1319999999999979      39.225999999999999      49.923999999999999
   124   1      7.1319999999999979                  41.009      51.707000000000001
   125   1      8.9149999999999991      39.225999999999999      51.707000000000001
   126   1      8.9149999999999991                  41.009      49.923999999999999
   127   1      7.1319999999999979      39.225999999999999      53.490000000000002
   128   1      7.1319999999999979                  41.009      55.273000000000003
   129   1      8.9149999999999991      39.225999999999999      55.273000000000003
   130   1      8.9149999999999991                  41.009      53.490000000000002
   131   1      7.1319999999999979                  41.009      58.839000000000006
   132   1      8.9149999999999991      39.225999999999999      58.839000000000006
   133   1      8.9149999999999991                  41.009      57.056000000000004
   134   1      8.9149999999999991                  41.009                  60.622
   135   1      8.9149999999999991      42.792000000000002      37.443000000000005
   136   1      7.1319999999999979      44.575000000000003                  41.009
   137   1      8.9149999999999991      42.792000000000002                  41.009
   138   1      8.9149999999999991      44.575000000000003      39.225999999999999
   139   1      7.1319999999999979      42.792000000000002      42.792000000000002
   140   1      7.1319999999999979      44.575000000000003      44.575000000000003
   141   1      8.9149999999999991      42.792000000000002      44.575000000000003
   142   1      8.9149999999999991      44.575000000000003      42.792000000000002
   143   1      7.1319999999999979      42.792000000000002      46.358000000000004
   144   1      7.1319999999999979      44.575000000000003      48.141000000000005
   145   1      8.9149999999999991      42.792000000000002      48.141000000000005
   146   1      8.9149999999999991      44.575000000000003      46.358000000000004
   147   1      7.1319999999999979      42.792000000000002      49.923999999999999
   148   1      7.1319999999999979      44.575000000000003      51.707000000000001
   149   1      8.9149999999999991      42.792000000000002      51.707000000000001
   150   1      8.9149999999999991      44.575000000000003      49.923999999999999
   151   1      7.1319999999999979      42.792000000000002      53.490000000000002
   152   1      7.1319999999999979      44.575000000000003      55.273000000000003
   153   1      8.9149999999999991      42.792000000000002      55.273000000000003
   154   1      8.9149999999999991      44.575000000000003      53.490000000000002
   155   1      7.1319999999999979      42.792000000000002      57.056000000000004
   156   1      7.1319999999999979      44.575000000000003      58.839000000000006
   157   1      8.9149999999999991      42.792000000000002      58.839000000000006
   158   1      8.9149999999999991      44.575000000000003      57.056000000000004
   159   1      8.9149999999999991      42.792000000000002      62.405000000000001
   160   1      8.9149999999999991      44.575000000000003                  60.622
   161   1      7.1319999999999979      48.141000000000005      37.443000000000005
   162   1      8.9149999999999991      46.358000000000004      37.443000000000005
   163   1      8.9149999999999991      48.141000000000005      35.660000000000004
   164   1      7.1319999999999979      46.358000000000004      39.225999999999999
   165   1      7.1319999999999979      48.141000000000005                  41.009
   166   1      8.9149999999999991      46.358000000000004                  41.009
   167   1      8.9149999999999991      48.141000000000005      39.225999999999999
   168   1      7.1319999999999979      46.358000000000004      42.792000000000002
   169   1      7.1319999999999979      48.141000000000005      44.575000000000003
   170   1      8.9149999999999991      46.358000000000004      44.575000000000003
   171   1      8.9149999999999991      48.141000000000005      42.792000000000002
   172   1      7.1319999999999979      46.358000000000004      46.358000000000004
   173   1      7.1319999999999979      48.141000000000005      48.141000000000005
   174   1      8.9149999999999991      46.358000000000004      48.141000000000005
   175   1      8.9149999999999991      48.141000000000005      46.358000000000004
   176   1      7.1319999999999979      46.358000000000004      49.923999999999999
   177   1      7.1319999999999979      48.141000000000005      51.707000000000001
   178   1      8.9149999999999991      46.358000000000004      51.707000000000001
   179   1      8.9149999999999991      48.141000000000005      49.923999999999999
   180   1      7.1319999999999979      46.358000000000004      53.490000000000002
   181   1      7.1319999999999979      48.141000000000005      55.273000000000003
   182   1      8.9149999999999991      46.358000000000004      55.273000000000003
   183   1      8.9149999999999991      48.141000000000005      53.490000000000002
   184   1      7.1319999999999979      46.358000000000004      57.056000000000004
   185   1      7.1319999999999979      48.141000000000005      58.839000000000006
   186   1      8.9149999999999991      46.358000000000004      58.839000000000006
   187   1      8.9149999999999991      48.141000000000005      57.056000000000004
   188   1      7.1319999999999979      46.358000000000004                  60.622
   189   1      7.1319999999999979      48.141000000000005      62.405000000000001
   190   1      8.9149999999999991      46.358000000000004      62.405000000000001
   191   1      8.9149999999999991      48.141000000000005                  60.622
   192   1      8.9149999999999991      48.141000000000005      64.188000000000002
   193   1      8.9149999999999991      49.923999999999999      33.877000000000002
   194   1      7.1319999999999979      51.707000000000001      37.443000000000005
   195   1      8.9149999999999991      49.923999999999999      37.443000000000005
   196   1      8.9149999999999991      51.707000000000001      35.660000000000004
   197   1      7.1319999999999979      49.923999999999999      39.225999999999999
   198   1      7.1319999999999979      51.707000000000001                  41.009
   199   1      8.9149999999999991      49.923999999999999                  41.009
   200   1      8.9149999999999991      51.707000000000001      39.225999999999999
   201   1      7.1319999999999979      49.923999999999999      42.792000000000002
   202   1      7.1319999999999979      51.707000000000001      44.575000000000003
   203   1      8.9149999999999991      49.923999999999999      44.575000000000003
   204   1      8.9149999999999991      51.707000000000001      42.792000000000002
   205   1      7.1319999999999979      49.923999999999999      46.358000000000004
   206   1      7.1319999999999979      51.707000000000001      48.141000000000005
   207   1      8.9149999999999991      49.923999999999999      48.141000000000005
   208   1      8.9149999999999991      51.707000000000001      46.358000000000004
   209   1      7.1319999999999979      49.923999999999999      49.923999999999999
   210   1      7.1319999999999979      51.707000000000001      51.707000000000001
   211   1      8.9149999999999991      49.923999999999999      51.707000000000001
   212   1      8.9149999999999991      51.707000000000001      49.923999999999999
   213   1      7.1319999999999979      49.923999999999999      53.490000000000002
   214   1      7.1319999999999979      51.707000000000001      55.273000000000003
   215   1      8.9149999999999991      49.923999999999999      55.273000000000003
   216   1      8.9149999999999991      51.707000000000001      53.490000000000002
   217   1      7.1319999999999979      49.923999999999999      57.056000000000004
   218   1      7.1319999999999979      51.707000000000001      58.839000000000006
   219   1      8.9149999999999991      49.923999999999999      58.839000000000006
   220   1      8.9149999999999991      51.707000000000001      57.056000000000004
   221   1      7.1319999999999979      49.923999999999999                  60.622
   222   1      7.1319999999999979      51.707000000000001      62.405000000000001
   223   1      8.9149999999999991      49.923999999999999      62.405000000000001
   224   1      8.9149999999999991      51.707000000000001                  60.622
   225   1      8.9149999999999991      49.923999999999999      65.971000000000004
   226   1      8.9149999999999991      51.707000000000001      64.188000000000002
   227   1      8.9149999999999991      53.490000000000002      37.443000000000005
   228   1      7.1319999999999979      53.490000000000002      39.225999999999999
   229   1      7.1319999999999979      55.273000000000003                  41.009
   230   1      8.9149999999999991      53.490000000000002                  41.009
   231   1      8.9149999999999991      55.273000000000003      39.225999999999999
   232   1      7.1319999999999979      53.490000000000002      42.792000000000002
   233   1      7.1319999999999979      55.273000000000003      44.575000000000003
   234   1      8.9149999999999991      53.490000000000002      44.575000000000003
   235   1      8.9149999999999991      55.273000000000003      42.792000000000002
   236   1      7.1319999999999979      53.490000000000002      46.358000000000004
   237   1      7.1319999999999979      55.273000000000003      48.141000000000005
   238   1      8.9149999999999991      53.490000000000002      48.141000000000005
   239   1      8.9149999999999991      55.273000000000003      46.358000000000004
   240   1      7.1319999999999979      53.490000000000002      49.923999999999999
   241   1      7.1319999999999979      55.273000000000003      51.707000000000001
   242   1      8.9149999999999991      53.490000000000002      51.707000000000001
   243   1      8.9149999999999991      55.273000000000003      49.923999999999999
   244   1      7.1319999999999979      53.490000000000002      53.490000000000002
   245   1      7.1319999999999979      55.273000000000003      55.273000000000003
   246   1      8.9149999999999991      53.490000000000002      55.273000000000003
   247   1      8.9149999999999991      55.273000000000003      53.490000000000002
   248   1      7.1319999999999979      53.490000000000002      57.056000000000004
   249   1      7.1319999999999979      55.273000000000003      58.839000000000006
   250   1      8.9149999999999991      53.490000000000002      58.839000000000006
   251   1      8.9149999999999991      55.273000000000003      57.056000000000004
   252   1      7.1319999999999979      53.490000000000002                  60.622
   253   1      8.9149999999999991      53.490000000000002      62.405000000000001
   254   1      8.9149999999999991      55.273000000000003                  60.622
   255   1      8.9149999999999991      57.056000000000004      37.443000000000005
   256   1      7.1319999999999979      58.839000000000006                  41.009
   257   1      8.9149999999999991      57.056000000000004                  41.009
   258   1      8.9149999999999991      58.839000000000006      39.225999999999999
   259   1      7.1319999999999979      57.056000000000004      42.792000000000002
   260   1      7.1319999999999979      58.839000000000006      44.575000000000003
   261   1      8.9149999999999991      57.056000000000004      44.575000000000003
   262   1      8.9149999999999991      58.839000000000006      42.792000000000002
   263   1      7.1319999999999979      57.056000000000004      46.358000000000004
   264   1      7.1319999999999979      58.839000000000006      48.141000000000005
   265   1      8.9149999999999991      57.056000000000004      48.141000000000005
   266   1      8.9149999999999991      58.839000000000006      46.358000000000004
   267   1      7.1319999999999979      57.056000000000004      49.923999999999999
   268   1      7.1319999999999979      58.839000000000006      51.707000000000001
   269   1      8.9149999999999991      57.056000000000004      51.707000000000001
   270   1      8.9149999999999991      58.839000000000006      49.923999999999999
   271   1      7.1319999999999979      57.056000000000004      53.490000000000002
   272   1      7.1319999999999979      58.839000000000006      55.273000000000003
   273   1      8.9149999999999991      57.056000000000004      55.273000000000003
   274   1      8.9149999999999991      58.839000000000006      53.490000000000002
   275   1      7.1319999999999979      57.056000000000004      57.056000000000004
   276   1      7.1319999999999979      58.839000000000006      58.839000000000006
   277   1      8.9149999999999991      57.056000000000004      58.839000000000006
   278   1      8.9149999999999991      58.839000000000006      57.056000000000004
   279   1      8.9149999999999991      57.056000000000004      62.405000000000001
   280   1      8.9149999999999991      58.839000000000006                  60.622
   281   1      8.9149999999999991                  60.622                  41.009
   282   1      8.9149999999999991                  60.622      44.575000000000003
   283   1      8.9149999999999991      62.405000000000001      42.792000000000002
   284   1      7.1319999999999979                  60.622      46.358000000000004
   285   1      7.1319999999999979      62.405000000000001      48.141000000000005
   286   1      8.9149999999999991                  60.622      48.141000000000005
   287   1      8.9149999999999991      62.405000000000001      46.358000000000004
   288   1      7.1319999999999979                  60.622      49.923999999999999
   289   1      7.1319999999999979      62.405000000000001      51.707000000000001
   290   1      8.9149999999999991                  60.622      51.707000000000001
   291   1      8.9149999999999991      62.405000000000001      49.923999999999999
   292   1      7.1319999999999979                  60.622      53.490000000000002
   293   1      8.9149999999999991                  60.622      55.273000000000003
   294   1      8.9149999999999991      62.405000000000001      53.490000000000002
   295   1      8.9149999999999991                  60.622      58.839000000000006
   296   1      8.9149999999999991      62.405000000000001      57.056000000000004
   297   1      8.9149999999999991      64.188000000000002      48.141000000000005
   298   1      8.9149999999999991      64.188000000000002      51.707000000000001
   299   1      8.9149999999999991      65.971000000000004      49.923999999999999
   300   1      12.481000000000002                  30.311      46.358000000000004
   301   1      12.481000000000002                  30.311      49.923999999999999
   302   1      12.481000000000002                  30.311      53.490000000000002
   303   1      12.481000000000002      33.877000000000002      39.225999999999999
   304   1                  10.698      33.877000000000002      44.575000000000003
   305   1      12.481000000000002      32.094000000000001      44.575000000000003
   306   1      12.481000000000002      33.877000000000002      42.792000000000002
   307   1                  10.698      33.877000000000002      48.141000000000005
   308   1      12.481000000000002      32.094000000000001      48.141000000000005
   309   1      12.481000000000002      33.877000000000002      46.358000000000004
   310   1                  10.698      32.094000000000001      49.923999999999999
   311   1                  10.698      33.877000000000002      51.707000000000001
   312   1      12.481000000000002      32.094000000000001      51.707000000000001
   313   1      12.481000000000002      33.877000000000002      49.923999999999999
   314   1                  10.698      33.877000000000002      55.273000000000003
   315   1      12.481000000000002      32.094000000000001      55.273000000000003
   316   1      12.481000000000002      33.877000000000002      53.490000000000002
   317   1      12.481000000000002      33.877000000000002      57.056000000000004
   318   1      12.481000000000002      33.877000000000002                  60.622
   319   1                  10.698      37.443000000000005      37.443000000000005
   320   1      12.481000000000002      35.660000000000004      37.443000000000005
   321   1      12.481000000000002      37.443000000000005      35.660000000000004
   322   1                  10.698      37.443000000000005                  41.009
   323   1      12.481000000000002      35.660000000000004                  41.009
   324   1      12.481000000000002      37.443000000000005      39.225999999999999
   325   1                  10.698      35.660000000000004      42.792000000000002
   326   1                  10.698      37.443000000000005      44.575000000000003
   327   1      12.481000000000002      35.660000000000004      44.575000000000003
   328   1      12.481000000000002      37.443000000000005      42.792000000000002
   329   1                  10.698      35.660000000000004      46.358000000000004
   330   1                  10.698      37.443000000000005      48.141000000000005
   331   1      12.481000000000002      35.660000000000004      48.141000000000005
   332   1      12.481000000000002      37.443000000000005      46.358000000000004
   333   1                  10.698      35.660000000000004      49.923999999999999
   334   1                  10.698      37.443000000000005      51.707000000000001
   335   1      12.481000000000002      35.660000000000004      51.707000000000001
   336   1      12.481000000000002      37.443000000000005      49.923999999999999
   337   1                  10.698      35.660000000000004      53.490000000000002
   338   1                  10.698      37.443000000000005      55.273000000000003
   339   1      12.481000000000002      35.660000000000004      55.273000000000003
   340   1      12.481000000000002      37.443000000000005      53.490000000000002
   341   1                  10.698      35.660000000000004      57.056000000000004
   342   1                  10.698      37.443000000000005      58.839000000000006
   343   1      12.481000000000002      35.660000000000004      58.839000000000006
   344   1      12.481000000000002      37.443000000000005      57.056000000000004
   345   1                  10.698      37.443000000000005      62.405000000000001
   346   1      12.481000000000002      35.660000000000004      62.405000000000001
   347   1      12.481000000000002      37.443000000000005                  60.622
   348   1      12.481000000000002      37.443000000000005      64.188000000000002
   349   1      12.481000000000002      39.225999999999999      33.877000000000002
   350   1                  10.698                  41.009      37.443000000000005
   351   1      12.481000000000002      39.225999999999999      37.443000000000005
   352   1      12.481000000000002                  41.009      35.660000000000004
   353   1                  10.698      39.225999999999999      39.225999999999999
   354   1                  10.698                  41.009                  41.009
   355   1      12.481000000000002      39.225999999999999                  41.009
   356   1      12.481000000000002                  41.009      39.225999999999999
   357   1                  10.698      39.225999999999999      42.792000000000002
   358   1                  10.698                  41.009      44.575000000000003