model_files/PtAu/PtAu_30000/PtAu_522/PtAu_522_fcc_30243_temp.data (written by ASE) 

30243 	 atoms 
2  atom types
0.0                     107  xlo xhi
0.0                     107  ylo yhi
0.0                     107  zlo zhi


Atoms 

     1   1      2.0214999999999961      46.494500000000002       52.55899999999999
     2   1      2.0214999999999961      48.515999999999998      50.537499999999994
     3   1      2.0214999999999961      50.537499999999994      48.515999999999998
     4   1      2.0214999999999961      48.515999999999998      54.580499999999994
     5   1      2.0214999999999961      50.537499999999994       52.55899999999999
     6   1      2.0214999999999961      50.537499999999994      56.601999999999997
     7   1      2.0214999999999961       52.55899999999999      46.494500000000002
     8   1      2.0214999999999961       52.55899999999999      50.537499999999994
     9   1      2.0214999999999961      54.580499999999994      48.515999999999998
    10   1      106.99999999999999       52.55899999999999       52.55899999999999
    11   1      2.0214999999999961       52.55899999999999      54.580499999999994
    12   1      2.0214999999999961      54.580499999999994       52.55899999999999
    13   1      2.0214999999999961       52.55899999999999      58.623499999999993
    14   1      2.0214999999999961      54.580499999999994      56.601999999999997
    15   1      2.0214999999999961      56.601999999999997      50.537499999999994
    16   1      2.0214999999999961      56.601999999999997      54.580499999999994
    17   1      2.0214999999999961      58.623499999999993       52.55899999999999
    18   1      6.0644999999999953      34.365499999999997       52.55899999999999
    19   1      6.0644999999999953      36.386999999999986      50.537499999999994
    20   1      6.0644999999999953      38.408499999999989      48.515999999999998
    21   1      6.0644999999999953      36.386999999999986      54.580499999999994
    22   1      6.0644999999999953      38.408499999999989       52.55899999999999
    23   1      6.0644999999999953      38.408499999999989      56.601999999999997
    24   1      6.0644999999999953      40.429999999999993      46.494500000000002
    25   1      6.0644999999999953      42.451499999999996      44.472999999999992
    26   1      4.0429999999999922      42.451499999999996      50.537499999999994
    27   1      6.0644999999999953      40.429999999999993      50.537499999999994
    28   1      6.0644999999999953      42.451499999999996      48.515999999999998
    29   1      4.0429999999999922      40.429999999999993       52.55899999999999
    30   1      4.0429999999999922      42.451499999999996      54.580499999999994
    31   1      6.0644999999999953      40.429999999999993      54.580499999999994
    32   1      6.0644999999999953      42.451499999999996       52.55899999999999
    33   1      6.0644999999999953      40.429999999999993      58.623499999999993
    34   1      6.0644999999999953      42.451499999999996      56.601999999999997
    35   1      6.0644999999999953      42.451499999999996      60.644999999999996
    36   1      6.0644999999999953      44.472999999999992      42.451499999999996
    37   1      6.0644999999999953      46.494500000000002      40.429999999999993
    38   1      4.0429999999999922      46.494500000000002      46.494500000000002
    39   1      6.0644999999999953      44.472999999999992      46.494500000000002
    40   1      6.0644999999999953      46.494500000000002      44.472999999999992
    41   1      4.0429999999999922      44.472999999999992      48.515999999999998
    42   1      4.0429999999999922      46.494500000000002      50.537499999999994
    43   1      6.0644999999999953      44.472999999999992      50.537499999999994
    44   1      6.0644999999999953      46.494500000000002      48.515999999999998
    45   1      4.0429999999999922      44.472999999999992       52.55899999999999
    46   1      4.0429999999999922      46.494500000000002      54.580499999999994
    47   1      6.0644999999999953      44.472999999999992      54.580499999999994
    48   1      6.0644999999999953      46.494500000000002       52.55899999999999
    49   1      4.0429999999999922      44.472999999999992      56.601999999999997
    50   1      4.0429999999999922      46.494500000000002      58.623499999999993
    51   1      6.0644999999999953      44.472999999999992      58.623499999999993
    52   1      6.0644999999999953      46.494500000000002      56.601999999999997
    53   1      6.0644999999999953      44.472999999999992      62.666499999999999
    54   1      6.0644999999999953      46.494500000000002      60.644999999999996
    55   1      6.0644999999999953      46.494500000000002      64.688000000000002
    56   1      6.0644999999999953      48.515999999999998      38.408499999999989
    57   1      6.0644999999999953      50.537499999999994      36.386999999999986
    58   1      4.0429999999999922      50.537499999999994      42.451499999999996
    59   1      6.0644999999999953      48.515999999999998      42.451499999999996
    60   1      6.0644999999999953      50.537499999999994      40.429999999999993
    61   1      4.0429999999999922      48.515999999999998      44.472999999999992
    62   1      4.0429999999999922      50.537499999999994      46.494500000000002
    63   1      6.0644999999999953      48.515999999999998      46.494500000000002
    64   1      6.0644999999999953      50.537499999999994      44.472999999999992
    65   1      4.0429999999999922      48.515999999999998      48.515999999999998
    66   1      4.0429999999999922      50.537499999999994      50.537499999999994
    67   1      6.0644999999999953      48.515999999999998      50.537499999999994
    68   1      6.0644999999999953      50.537499999999994      48.515999999999998
    69   1      4.0429999999999922      48.515999999999998       52.55899999999999
    70   1      4.0429999999999922      50.537499999999994      54.580499999999994
    71   1      6.0644999999999953      48.515999999999998      54.580499999999994
    72   1      6.0644999999999953      50.537499999999994       52.55899999999999
    73   1      4.0429999999999922      48.515999999999998      56.601999999999997
    74   1      4.0429999999999922      50.537499999999994      58.623499999999993
    75   1      6.0644999999999953      48.515999999999998      58.623499999999993
    76   1      6.0644999999999953      50.537499999999994      56.601999999999997
    77   1      4.0429999999999922      48.515999999999998      60.644999999999996
    78   1      4.0429999999999922      50.537499999999994      62.666499999999999
    79   1      6.0644999999999953      48.515999999999998      62.666499999999999
    80   1      6.0644999999999953      50.537499999999994      60.644999999999996
    81   1      6.0644999999999953      48.515999999999998      66.709500000000006
    82   1      6.0644999999999953      50.537499999999994      64.688000000000002
    83   1      6.0644999999999953      50.537499999999994      68.730999999999995
    84   1      6.0644999999999953       52.55899999999999      34.365499999999997
    85   1      6.0644999999999953       52.55899999999999      38.408499999999989
    86   1      6.0644999999999953      54.580499999999994      36.386999999999986
    87   1      4.0429999999999922       52.55899999999999      40.429999999999993
    88   1      4.0429999999999922      54.580499999999994      42.451499999999996
    89   1      6.0644999999999953       52.55899999999999      42.451499999999996
    90   1      6.0644999999999953      54.580499999999994      40.429999999999993
    91   1      4.0429999999999922       52.55899999999999      44.472999999999992
    92   1      4.0429999999999922      54.580499999999994      46.494500000000002
    93   1      6.0644999999999953       52.55899999999999      46.494500000000002
    94   1      6.0644999999999953      54.580499999999994      44.472999999999992
    95   1      4.0429999999999922       52.55899999999999      48.515999999999998
    96   1      4.0429999999999922      54.580499999999994      50.537499999999994
    97   1      6.0644999999999953       52.55899999999999      50.537499999999994
    98   1      6.0644999999999953      54.580499999999994      48.515999999999998
    99   1      4.0429999999999922       52.55899999999999       52.55899999999999
   100   1      4.0429999999999922      54.580499999999994      54.580499999999994
   101   1      6.0644999999999953       52.55899999999999      54.580499999999994
   102   1      6.0644999999999953      54.580499999999994       52.55899999999999
   103   1      4.0429999999999922       52.55899999999999      56.601999999999997
   104   1      4.0429999999999922      54.580499999999994      58.623499999999993
   105   1      6.0644999999999953       52.55899999999999      58.623499999999993
   106   1      6.0644999999999953      54.580499999999994      56.601999999999997
   107   1      4.0429999999999922       52.55899999999999      60.644999999999996
   108   1      4.0429999999999922      54.580499999999994      62.666499999999999
   109   1      6.0644999999999953       52.55899999999999      62.666499999999999
   110   1      6.0644999999999953      54.580499999999994      60.644999999999996
   111   1      4.0429999999999922       52.55899999999999      64.688000000000002
   112   1      6.0644999999999953       52.55899999999999      66.709500000000006
   113   1      6.0644999999999953      54.580499999999994      64.688000000000002
   114   1      6.0644999999999953       52.55899999999999      70.752499999999984
   115   1      6.0644999999999953      54.580499999999994      68.730999999999995
   116   1      6.0644999999999953      56.601999999999997      38.408499999999989
   117   1      6.0644999999999953      56.601999999999997      42.451499999999996
   118   1      6.0644999999999953      58.623499999999993      40.429999999999993
   119   1      4.0429999999999922      56.601999999999997      44.472999999999992
   120   1      4.0429999999999922      58.623499999999993      46.494500000000002
   121   1      6.0644999999999953      56.601999999999997      46.494500000000002
   122   1      6.0644999999999953      58.623499999999993      44.472999999999992
   123   1      4.0429999999999922      56.601999999999997      48.515999999999998
   124   1      4.0429999999999922      58.623499999999993      50.537499999999994
   125   1      6.0644999999999953      56.601999999999997      50.537499999999994
   126   1      6.0644999999999953      58.623499999999993      48.515999999999998
   127   1      4.0429999999999922      56.601999999999997       52.55899999999999
   128   1      4.0429999999999922      58.623499999999993      54.580499999999994
   129   1      6.0644999999999953      56.601999999999997      54.580499999999994
   130   1      6.0644999999999953      58.623499999999993       52.55899999999999
   131   1      4.0429999999999922      56.601999999999997      56.601999999999997
   132   1      4.0429999999999922      58.623499999999993      58.623499999999993
   133   1      6.0644999999999953      56.601999999999997      58.623499999999993
   134   1      6.0644999999999953      58.623499999999993      56.601999999999997
   135   1      4.0429999999999922      56.601999999999997      60.644999999999996
   136   1      6.0644999999999953      56.601999999999997      62.666499999999999
   137   1      6.0644999999999953      58.623499999999993      60.644999999999996
   138   1      6.0644999999999953      56.601999999999997      66.709500000000006
   139   1      6.0644999999999953      58.623499999999993      64.688000000000002
   140   1      6.0644999999999953      60.644999999999996      42.451499999999996
   141   1      6.0644999999999953      60.644999999999996      46.494500000000002
   142   1      6.0644999999999953      62.666499999999999      44.472999999999992
   143   1      4.0429999999999922      60.644999999999996      48.515999999999998
   144   1      4.0429999999999922      62.666499999999999      50.537499999999994
   145   1      6.0644999999999953      60.644999999999996      50.537499999999994
   146   1      6.0644999999999953      62.666499999999999      48.515999999999998
   147   1      4.0429999999999922      60.644999999999996       52.55899999999999
   148   1      4.0429999999999922      62.666499999999999      54.580499999999994
   149   1      6.0644999999999953      60.644999999999996      54.580499999999994
   150   1      6.0644999999999953      62.666499999999999       52.55899999999999
   151   1      4.0429999999999922      60.644999999999996      56.601999999999997
   152   1      6.0644999999999953      60.644999999999996      58.623499999999993
   153   1      6.0644999999999953      62.666499999999999      56.601999999999997
   154   1      6.0644999999999953      60.644999999999996      62.666499999999999
   155   1      6.0644999999999953      62.666499999999999      60.644999999999996
   156   1      6.0644999999999953      64.688000000000002      46.494500000000002
   157   1      6.0644999999999953      64.688000000000002      50.537499999999994
   158   1      6.0644999999999953      66.709500000000006      48.515999999999998
   159   1      4.0429999999999922      64.688000000000002       52.55899999999999
   160   1      6.0644999999999953      64.688000000000002      54.580499999999994
   161   1      6.0644999999999953      66.709500000000006       52.55899999999999
   162   1      6.0644999999999953      64.688000000000002      58.623499999999993
   163   1      6.0644999999999953      66.709500000000006      56.601999999999997
   164   1      6.0644999999999953      68.730999999999995      50.537499999999994
   165   1      6.0644999999999953      68.730999999999995      54.580499999999994
   166   1      6.0644999999999953      70.752499999999984       52.55899999999999
   167   1      10.107499999999993      26.279499999999992       52.55899999999999
   168   1      10.107499999999993      28.300999999999991      50.537499999999994
   169   1      10.107499999999993      30.322499999999998      48.515999999999998
   170   1      10.107499999999993      28.300999999999991      54.580499999999994
   171   1      10.107499999999993      30.322499999999998       52.55899999999999
   172   1      10.107499999999993      30.322499999999998      56.601999999999997
   173   1      10.107499999999993      32.343999999999994      46.494500000000002
   174   1      10.107499999999993      34.365499999999997      44.472999999999992
   175   1      8.0859999999999985      34.365499999999997      50.537499999999994
   176   1      10.107499999999993      32.343999999999994      50.537499999999994
   177   1      10.107499999999993      34.365499999999997      48.515999999999998
   178   1      8.0859999999999985      32.343999999999994       52.55899999999999
   179   1      8.0859999999999985      34.365499999999997      54.580499999999994
   180   1      10.107499999999993      32.343999999999994      54.580499999999994
   181   1      10.107499999999993      34.365499999999997       52.55899999999999
   182   1      10.107499999999993      32.343999999999994      58.623499999999993
   183   1      10.107499999999993      34.365499999999997      56.601999999999997
   184   1      10.107499999999993      34.365499999999997      60.644999999999996
   185   1      10.107499999999993      36.386999999999986      42.451499999999996
   186   1      10.107499999999993      38.408499999999989      40.429999999999993
   187   1      8.0859999999999985      38.408499999999989      46.494500000000002
   188   1      10.107499999999993      36.386999999999986      46.494500000000002
   189   1      10.107499999999993      38.408499999999989      44.472999999999992
   190   1      8.0859999999999985      36.386999999999986      48.515999999999998
   191   1      8.0859999999999985      38.408499999999989      50.537499999999994
   192   1      10.107499999999993      36.386999999999986      50.537499999999994
   193   1      10.107499999999993      38.408499999999989      48.515999999999998
   194   1      8.0859999999999985      36.386999999999986       52.55899999999999
   195   1      8.0859999999999985      38.408499999999989      54.580499999999994
   196   1      10.107499999999993      36.386999999999986      54.580499999999994
   197   1      10.107499999999993      38.408499999999989       52.55899999999999
   198   1      8.0859999999999985      36.386999999999986      56.601999999999997
   199   1      8.0859999999999985      38.408499999999989      58.623499999999993
   200   1      10.107499999999993      36.386999999999986      58.623499999999993
   201   1      10.107499999999993      38.408499999999989      56.601999999999997
   202   1      10.107499999999993      36.386999999999986      62.666499999999999
   203   1      10.107499999999993      38.408499999999989      60.644999999999996
   204   1      10.107499999999993      38.408499999999989      64.688000000000002
   205   1      10.107499999999993      40.429999999999993      38.408499999999989
   206   1      10.107499999999993      42.451499999999996      36.386999999999986
   207   1      8.0859999999999985      42.451499999999996      42.451499999999996
   208   1      10.107499999999993      40.429999999999993      42.451499999999996
   209   1      10.107499999999993      42.451499999999996      40.429999999999993
   210   1      8.0859999999999985      40.429999999999993      44.472999999999992
   211   1      8.0859999999999985      42.451499999999996      46.494500000000002
   212   1      10.107499999999993      40.429999999999993      46.494500000000002
   213   1      10.107499999999993      42.451499999999996      44.472999999999992
   214   1      8.0859999999999985      40.429999999999993      48.515999999999998
   215   1      8.0859999999999985      42.451499999999996      50.537499999999994
   216   1      10.107499999999993      40.429999999999993      50.537499999999994
   217   1      10.107499999999993      42.451499999999996      48.515999999999998
   218   1      8.0859999999999985      40.429999999999993       52.55899999999999
   219   1      8.0859999999999985      42.451499999999996      54.580499999999994
   220   1      10.107499999999993      40.429999999999993      54.580499999999994
   221   1      10.107499999999993      42.451499999999996       52.55899999999999
   222   1      8.0859999999999985      40.429999999999993      56.601999999999997
   223   1      8.0859999999999985      42.451499999999996      58.623499999999993
   224   1      10.107499999999993      40.429999999999993      58.623499999999993
   225   1      10.107499999999993      42.451499999999996      56.601999999999997
   226   1      8.0859999999999985      40.429999999999993      60.644999999999996
   227   1      8.0859999999999985      42.451499999999996      62.666499999999999
   228   1      10.107499999999993      40.429999999999993      62.666499999999999
   229   1      10.107499999999993      42.451499999999996      60.644999999999996
   230   1      10.107499999999993      40.429999999999993      66.709500000000006
   231   1      10.107499999999993      42.451499999999996      64.688000000000002
   232   1      10.107499999999993      42.451499999999996      68.730999999999995
   233   1      10.107499999999993      44.472999999999992      34.365499999999997
   234   1      10.107499999999993      46.494500000000002      32.343999999999994
   235   1      8.0859999999999985      46.494500000000002      38.408499999999989
   236   1      10.107499999999993      44.472999999999992      38.408499999999989
   237   1      10.107499999999993      46.494500000000002      36.386999999999986
   238   1      8.0859999999999985      44.472999999999992      40.429999999999993
   239   1      8.0859999999999985      46.494500000000002      42.451499999999996
   240   1      10.107499999999993      44.472999999999992      42.451499999999996
   241   1      10.107499999999993      46.494500000000002      40.429999999999993
   242   1      8.0859999999999985      44.472999999999992      44.472999999999992
   243   1      8.0859999999999985      46.494500000000002      46.494500000000002
   244   1      10.107499999999993      44.472999999999992      46.494500000000002
   245   1      10.107499999999993      46.494500000000002      44.472999999999992
   246   1      8.0859999999999985      44.472999999999992      48.515999999999998
   247   1      8.0859999999999985      46.494500000000002      50.537499999999994
   248   1      10.107499999999993      44.472999999999992      50.537499999999994
   249   1      10.107499999999993      46.494500000000002      48.515999999999998
   250   1      8.0859999999999985      44.472999999999992       52.55899999999999
   251   1      8.0859999999999985      46.494500000000002      54.580499999999994
   252   1      10.107499999999993      44.472999999999992      54.580499999999994
   253   1      10.107499999999993      46.494500000000002       52.55899999999999
   254   1      8.0859999999999985      44.472999999999992      56.601999999999997
   255   1      8.0859999999999985      46.494500000000002      58.623499999999993
   256   1      10.107499999999993      44.472999999999992      58.623499999999993
   257   1      10.107499999999993      46.494500000000002      56.601999999999997
   258   1      8.0859999999999985      44.472999999999992      60.644999999999996
   259   1      8.0859999999999985      46.494500000000002      62.666499999999999
   260   1      10.107499999999993      44.472999999999992      62.666499999999999
   261   1      10.107499999999993      46.494500000000002      60.644999999999996
   262   1      8.0859999999999985      44.472999999999992      64.688000000000002
   263   1      8.0859999999999985      46.494500000000002      66.709500000000006
   264   1      10.107499999999993      44.472999999999992      66.709500000000006
   265   1      10.107499999999993      46.494500000000002      64.688000000000002
   266   1      10.107499999999993      44.472999999999992      70.752499999999984
   267   1      10.107499999999993      46.494500000000002      68.730999999999995
   268   1      10.107499999999993      46.494500000000002      72.773999999999987
   269   1      10.107499999999993      48.515999999999998      30.322499999999998
   270   1      10.107499999999993      50.537499999999994      28.300999999999991
   271   1      8.0859999999999985      50.537499999999994      34.365499999999997
   272   1      10.107499999999993      48.515999999999998      34.365499999999997
   273   1      10.107499999999993      50.537499999999994      32.343999999999994
   274   1      8.0859999999999985      48.515999999999998      36.386999999999986
   275   1      8.0859999999999985      50.537499999999994      38.408499999999989
   276   1      10.107499999999993      48.515999999999998      38.408499999999989
   277   1      10.107499999999993      50.537499999999994      36.386999999999986
   278   1      8.0859999999999985      48.515999999999998      40.429999999999993
   279   1      8.0859999999999985      50.537499999999994      42.451499999999996
   280   1      10.107499999999993      48.515999999999998      42.451499999999996
   281   1      10.107499999999993      50.537499999999994      40.429999999999993
   282   1      8.0859999999999985      48.515999999999998      44.472999999999992
   283   1      8.0859999999999985      50.537499999999994      46.494500000000002
   284   1      10.107499999999993      48.515999999999998      46.494500000000002
   285   1      10.107499999999993      50.537499999999994      44.472999999999992
   286   1      8.0859999999999985      48.515999999999998      48.515999999999998
   287   1      8.0859999999999985      50.537499999999994      50.537499999999994
   288   1      10.107499999999993      48.515999999999998      50.537499999999994
   289   1      10.107499999999993      50.537499999999994      48.515999999999998
   290   1      8.0859999999999985      48.515999999999998       52.55899999999999
   291   1      8.0859999999999985      50.537499999999994      54.580499999999994
   292   1      10.107499999999993      48.515999999999998      54.580499999999994
   293   1      10.107499999999993      50.537499999999994       52.55899999999999
   294   1      8.0859999999999985      48.515999999999998      56.601999999999997
   295   1      8.0859999999999985      50.537499999999994      58.623499999999993
   296   1      10.107499999999993      48.515999999999998      58.623499999999993
   297   1      10.107499999999993      50.537499999999994      56.601999999999997
   298   1      8.0859999999999985      48.515999999999998      60.644999999999996
   299   1      8.0859999999999985      50.537499999999994      62.666499999999999
   300   1      10.107499999999993      48.515999999999998      62.666499999999999
   301   1      10.107499999999993      50.537499999999994      60.644999999999996
   302   1      8.0859999999999985      48.515999999999998      64.688000000000002
   303   1      8.0859999999999985      50.537499999999994      66.709500000000006
   304   1      10.107499999999993      48.515999999999998      66.709500000000006
   305   1      10.107499999999993      50.537499999999994      64.688000000000002
   306   1      8.0859999999999985      48.515999999999998      68.730999999999995
   307   1      8.0859999999999985      50.537499999999994      70.752499999999984
   308   1      10.107499999999993      48.515999999999998      70.752499999999984
   309   1      10.107499999999993      50.537499999999994      68.730999999999995
   310   1      10.107499999999993      48.515999999999998      74.795500000000004
   311   1      10.107499999999993      50.537499999999994      72.773999999999987
   312   1      10.107499999999993      50.537499999999994      76.816999999999979
   313   1      10.107499999999993       52.55899999999999      26.279499999999992
   314   1      10.107499999999993       52.55899999999999      30.322499999999998
   315   1      10.107499999999993      54.580499999999994      28.300999999999991
   316   1      8.0859999999999985       52.55899999999999      32.343999999999994
   317   1      8.0859999999999985      54.580499999999994      34.365499999999997
   318   1      10.107499999999993       52.55899999999999      34.365499999999997
   319   1      10.107499999999993      54.580499999999994      32.343999999999994
   320   1      8.0859999999999985       52.55899999999999      36.386999999999986
   321   1      8.0859999999999985      54.580499999999994      38.408499999999989
   322   1      10.107499999999993       52.55899999999999      38.408499999999989
   323   1      10.107499999999993      54.580499999999994      36.386999999999986
   324   1      8.0859999999999985       52.55899999999999      40.429999999999993
   325   1      8.0859999999999985      54.580499999999994      42.451499999999996
   326   1      10.107499999999993       52.55899999999999      42.451499999999996
   327   1      10.107499999999993      54.580499999999994      40.429999999999993
   328   1      8.0859999999999985       52.55899999999999      44.472999999999992
   329   1      8.0859999999999985      54.580499999999994      46.494500000000002
   330   1      10.107499999999993       52.55899999999999      46.494500000000002
   331   1      10.107499999999993      54.580499999999994      44.472999999999992
   332   1      8.0859999999999985       52.55899999999999      48.515999999999998
   333   1      8.0859999999999985      54.580499999999994      50.537499999999994
   334   1      10.107499999999993       52.55899999999999      50.537499999999994
   335   1      10.107499999999993      54.580499999999994      48.515999999999998
   336   1      8.0859999999999985       52.55899999999999       52.55899999999999
   337   1      8.0859999999999985      54.580499999999994      54.580499999999994
   338   1      10.107499999999993       52.55899999999999      54.580499999999994
   339   1      10.107499999999993      54.580499999999994       52.55899999999999
   340   1      8.0859999999999985       52.55899999999999      56.601999999999997
   341   1      8.0859999999999985      54.580499999999994      58.623499999999993
   342   1      10.107499999999993       52.55899999999999      58.623499999999993
   343   1      10.107499999999993      54.580499999999994      56.601999999999997
   344   1      8.0859999999999985       52.55899999999999      60.644999999999996
   345   1      8.0859999999999985      54.580499999999994      62.666499999999999
   346   1      10.107499999999993       52.55899999999999      62.666499999999999
   347   1      10.107499999999993      54.580499999999994      60.644999999999996
   348   1      8.0859999999999985       52.55899999999999      64.688000000000002
   349   1      8.0859999999999985      54.580499999999994      66.709500000000006
   350   1      10.107499999999993       52.55899999999999      66.709500000000006
   351   1      10.107499999999993      54.580499999999994      64.688000000000002
   352   1      8.0859999999999985       52.55899999999999      68.730999999999995
   353   1      8.0859999999999985      54.580499999999994      70.752499999999984
   354   1      10.107499999999993       52.55899999999999      70.752499999999984
   355   1      10.107499999999993      54.580499999999994      68.730999999999995
   356   1      8.0859999999999985       52.55899999999999      72.773999999999987
   357   1      10.107499999999993       52.55899999999999      74.795500000000004
   358   1      10.107499999999993      54.580499999999994      72.773999999999987