model_files/Co/Co_30000/Co_433/data.Co_433_hcp_30337 (written by ASE) 

30337 	 atoms 
1  atom types
0.0                      80  xlo xhi
0.0                      80  ylo yhi
0.0                      80  zlo zhi


Atoms 

     1   1      1.2550000000000097      38.905000000000015      40.160000000000011
     2   1      1.2550000000000097      40.160000000000011      38.905000000000015
     3   1  7.1054273576010019e-15      40.160000000000011      40.160000000000011
     4   1      1.2550000000000097      40.160000000000011      41.415000000000006
     5   1      1.2550000000000097      41.415000000000006      40.160000000000011
     6   1      3.7650000000000077       36.39500000000001      40.160000000000011
     7   1      2.5100000000000122      38.905000000000015      38.905000000000015
     8   1      3.7650000000000077      37.650000000000006      38.905000000000015
     9   1      3.7650000000000077      38.905000000000015      37.650000000000006
    10   1      2.5100000000000122      37.650000000000006      40.160000000000011
    11   1      2.5100000000000122      38.905000000000015      41.415000000000006
    12   1      3.7650000000000077      37.650000000000006      41.415000000000006
    13   1      3.7650000000000077      38.905000000000015      40.160000000000011
    14   1      3.7650000000000077      38.905000000000015      42.670000000000002
    15   1      3.7650000000000077      40.160000000000011       36.39500000000001
    16   1      2.5100000000000122      40.160000000000011      37.650000000000006
    17   1      2.5100000000000122      41.415000000000006      38.905000000000015
    18   1      3.7650000000000077      40.160000000000011      38.905000000000015
    19   1      3.7650000000000077      41.415000000000006      37.650000000000006
    20   1      2.5100000000000122      40.160000000000011      40.160000000000011
    21   1      2.5100000000000122      41.415000000000006      41.415000000000006
    22   1      3.7650000000000077      40.160000000000011      41.415000000000006
    23   1      3.7650000000000077      41.415000000000006      40.160000000000011
    24   1      2.5100000000000122      40.160000000000011      42.670000000000002
    25   1      3.7650000000000077      40.160000000000011      43.925000000000011
    26   1      3.7650000000000077      41.415000000000006      42.670000000000002
    27   1      3.7650000000000077      42.670000000000002      38.905000000000015
    28   1      2.5100000000000122      42.670000000000002      40.160000000000011
    29   1      3.7650000000000077      42.670000000000002      41.415000000000006
    30   1      3.7650000000000077      43.925000000000011      40.160000000000011
    31   1      6.2750000000000128      33.885000000000012      40.160000000000011
    32   1      5.0200000000000102       36.39500000000001      38.905000000000015
    33   1      6.2750000000000128      35.140000000000015      38.905000000000015
    34   1      6.2750000000000128       36.39500000000001      37.650000000000006
    35   1      5.0200000000000102      35.140000000000015      40.160000000000011
    36   1      5.0200000000000102       36.39500000000001      41.415000000000006
    37   1      6.2750000000000128      35.140000000000015      41.415000000000006
    38   1      6.2750000000000128       36.39500000000001      40.160000000000011
    39   1      6.2750000000000128       36.39500000000001      42.670000000000002
    40   1      5.0200000000000102      38.905000000000015       36.39500000000001
    41   1      6.2750000000000128      37.650000000000006       36.39500000000001
    42   1      6.2750000000000128      38.905000000000015      35.140000000000015
    43   1      5.0200000000000102      37.650000000000006      37.650000000000006
    44   1      5.0200000000000102      38.905000000000015      38.905000000000015
    45   1      6.2750000000000128      37.650000000000006      38.905000000000015
    46   1      6.2750000000000128      38.905000000000015      37.650000000000006
    47   1      5.0200000000000102      37.650000000000006      40.160000000000011
    48   1      5.0200000000000102      38.905000000000015      41.415000000000006
    49   1      6.2750000000000128      37.650000000000006      41.415000000000006
    50   1      6.2750000000000128      38.905000000000015      40.160000000000011
    51   1      5.0200000000000102      37.650000000000006      42.670000000000002
    52   1      5.0200000000000102      38.905000000000015      43.925000000000011
    53   1      6.2750000000000128      37.650000000000006      43.925000000000011
    54   1      6.2750000000000128      38.905000000000015      42.670000000000002
    55   1      6.2750000000000128      38.905000000000015      45.180000000000007
    56   1      6.2750000000000128      40.160000000000011      33.885000000000012
    57   1      5.0200000000000102      40.160000000000011      35.140000000000015
    58   1      5.0200000000000102      41.415000000000006       36.39500000000001
    59   1      6.2750000000000128      40.160000000000011       36.39500000000001
    60   1      6.2750000000000128      41.415000000000006      35.140000000000015
    61   1      5.0200000000000102      40.160000000000011      37.650000000000006
    62   1      5.0200000000000102      41.415000000000006      38.905000000000015
    63   1      6.2750000000000128      40.160000000000011      38.905000000000015
    64   1      6.2750000000000128      41.415000000000006      37.650000000000006
    65   1      5.0200000000000102      40.160000000000011      40.160000000000011
    66   1      5.0200000000000102      41.415000000000006      41.415000000000006
    67   1      6.2750000000000128      40.160000000000011      41.415000000000006
    68   1      6.2750000000000128      41.415000000000006      40.160000000000011
    69   1      5.0200000000000102      40.160000000000011      42.670000000000002
    70   1      5.0200000000000102      41.415000000000006      43.925000000000011
    71   1      6.2750000000000128      40.160000000000011      43.925000000000011
    72   1      6.2750000000000128      41.415000000000006      42.670000000000002
    73   1      5.0200000000000102      40.160000000000011      45.180000000000007
    74   1      6.2750000000000128      40.160000000000011      46.435000000000016
    75   1      6.2750000000000128      41.415000000000006      45.180000000000007
    76   1      6.2750000000000128      42.670000000000002       36.39500000000001
    77   1      5.0200000000000102      42.670000000000002      37.650000000000006
    78   1      5.0200000000000102      43.925000000000011      38.905000000000015
    79   1      6.2750000000000128      42.670000000000002      38.905000000000015
    80   1      6.2750000000000128      43.925000000000011      37.650000000000006
    81   1      5.0200000000000102      42.670000000000002      40.160000000000011
    82   1      5.0200000000000102      43.925000000000011      41.415000000000006
    83   1      6.2750000000000128      42.670000000000002      41.415000000000006
    84   1      6.2750000000000128      43.925000000000011      40.160000000000011
    85   1      5.0200000000000102      42.670000000000002      42.670000000000002
    86   1      6.2750000000000128      42.670000000000002      43.925000000000011
    87   1      6.2750000000000128      43.925000000000011      42.670000000000002
    88   1      6.2750000000000128      45.180000000000007      38.905000000000015
    89   1      5.0200000000000102      45.180000000000007      40.160000000000011
    90   1      6.2750000000000128      45.180000000000007      41.415000000000006
    91   1      6.2750000000000128      46.435000000000016      40.160000000000011
    92   1      8.7850000000000072      28.865000000000009      40.160000000000011
    93   1      7.5300000000000091      31.375000000000011      38.905000000000015
    94   1      8.7850000000000072      30.120000000000005      38.905000000000015
    95   1      8.7850000000000072      31.375000000000011      37.650000000000006
    96   1      7.5300000000000091      30.120000000000005      40.160000000000011
    97   1      7.5300000000000091      31.375000000000011      41.415000000000006
    98   1      8.7850000000000072      30.120000000000005      41.415000000000006
    99   1      8.7850000000000072      31.375000000000011      40.160000000000011
   100   1      8.7850000000000072      31.375000000000011      42.670000000000002
   101   1      7.5300000000000091      33.885000000000012       36.39500000000001
   102   1      8.7850000000000072       32.63000000000001       36.39500000000001
   103   1      8.7850000000000072      33.885000000000012      35.140000000000015
   104   1      7.5300000000000091       32.63000000000001      37.650000000000006
   105   1      7.5300000000000091      33.885000000000012      38.905000000000015
   106   1      8.7850000000000072       32.63000000000001      38.905000000000015
   107   1      8.7850000000000072      33.885000000000012      37.650000000000006
   108   1      7.5300000000000091       32.63000000000001      40.160000000000011
   109   1      7.5300000000000091      33.885000000000012      41.415000000000006
   110   1      8.7850000000000072       32.63000000000001      41.415000000000006
   111   1      8.7850000000000072      33.885000000000012      40.160000000000011
   112   1      7.5300000000000091       32.63000000000001      42.670000000000002
   113   1      7.5300000000000091      33.885000000000012      43.925000000000011
   114   1      8.7850000000000072       32.63000000000001      43.925000000000011
   115   1      8.7850000000000072      33.885000000000012      42.670000000000002
   116   1      8.7850000000000072      33.885000000000012      45.180000000000007
   117   1      7.5300000000000091       36.39500000000001      33.885000000000012
   118   1      8.7850000000000072      35.140000000000015      33.885000000000012
   119   1      8.7850000000000072       36.39500000000001       32.63000000000001
   120   1      7.5300000000000091      35.140000000000015      35.140000000000015
   121   1      7.5300000000000091       36.39500000000001       36.39500000000001
   122   1      8.7850000000000072      35.140000000000015       36.39500000000001
   123   1      8.7850000000000072       36.39500000000001      35.140000000000015
   124   1      7.5300000000000091      35.140000000000015      37.650000000000006
   125   1      7.5300000000000091       36.39500000000001      38.905000000000015
   126   1      8.7850000000000072      35.140000000000015      38.905000000000015
   127   1      8.7850000000000072       36.39500000000001      37.650000000000006
   128   1      7.5300000000000091      35.140000000000015      40.160000000000011
   129   1      7.5300000000000091       36.39500000000001      41.415000000000006
   130   1      8.7850000000000072      35.140000000000015      41.415000000000006
   131   1      8.7850000000000072       36.39500000000001      40.160000000000011
   132   1      7.5300000000000091      35.140000000000015      42.670000000000002
   133   1      7.5300000000000091       36.39500000000001      43.925000000000011
   134   1      8.7850000000000072      35.140000000000015      43.925000000000011
   135   1      8.7850000000000072       36.39500000000001      42.670000000000002
   136   1      7.5300000000000091      35.140000000000015      45.180000000000007
   137   1      7.5300000000000091       36.39500000000001      46.435000000000016
   138   1      8.7850000000000072      35.140000000000015      46.435000000000016
   139   1      8.7850000000000072       36.39500000000001      45.180000000000007
   140   1      8.7850000000000072       36.39500000000001      47.690000000000012
   141   1      7.5300000000000091      38.905000000000015      31.375000000000011
   142   1      8.7850000000000072      37.650000000000006      31.375000000000011
   143   1      8.7850000000000072      38.905000000000015      30.120000000000005
   144   1      7.5300000000000091      37.650000000000006       32.63000000000001
   145   1      7.5300000000000091      38.905000000000015      33.885000000000012
   146   1      8.7850000000000072      37.650000000000006      33.885000000000012
   147   1      8.7850000000000072      38.905000000000015       32.63000000000001
   148   1      7.5300000000000091      37.650000000000006      35.140000000000015
   149   1      7.5300000000000091      38.905000000000015       36.39500000000001
   150   1      8.7850000000000072      37.650000000000006       36.39500000000001
   151   1      8.7850000000000072      38.905000000000015      35.140000000000015
   152   1      7.5300000000000091      37.650000000000006      37.650000000000006
   153   1      7.5300000000000091      38.905000000000015      38.905000000000015
   154   1      8.7850000000000072      37.650000000000006      38.905000000000015
   155   1      8.7850000000000072      38.905000000000015      37.650000000000006
   156   1      7.5300000000000091      37.650000000000006      40.160000000000011
   157   1      7.5300000000000091      38.905000000000015      41.415000000000006
   158   1      8.7850000000000072      37.650000000000006      41.415000000000006
   159   1      8.7850000000000072      38.905000000000015      40.160000000000011
   160   1      7.5300000000000091      37.650000000000006      42.670000000000002
   161   1      7.5300000000000091      38.905000000000015      43.925000000000011
   162   1      8.7850000000000072      37.650000000000006      43.925000000000011
   163   1      8.7850000000000072      38.905000000000015      42.670000000000002
   164   1      7.5300000000000091      37.650000000000006      45.180000000000007
   165   1      7.5300000000000091      38.905000000000015      46.435000000000016
   166   1      8.7850000000000072      37.650000000000006      46.435000000000016
   167   1      8.7850000000000072      38.905000000000015      45.180000000000007
   168   1      7.5300000000000091      37.650000000000006      47.690000000000012
   169   1      7.5300000000000091      38.905000000000015      48.945000000000007
   170   1      8.7850000000000072      37.650000000000006      48.945000000000007
   171   1      8.7850000000000072      38.905000000000015      47.690000000000012
   172   1      8.7850000000000072      38.905000000000015      50.200000000000003
   173   1      8.7850000000000072      40.160000000000011      28.865000000000009
   174   1      7.5300000000000091      40.160000000000011      30.120000000000005
   175   1      7.5300000000000091      41.415000000000006      31.375000000000011
   176   1      8.7850000000000072      40.160000000000011      31.375000000000011
   177   1      8.7850000000000072      41.415000000000006      30.120000000000005
   178   1      7.5300000000000091      40.160000000000011       32.63000000000001
   179   1      7.5300000000000091      41.415000000000006      33.885000000000012
   180   1      8.7850000000000072      40.160000000000011      33.885000000000012
   181   1      8.7850000000000072      41.415000000000006       32.63000000000001
   182   1      7.5300000000000091      40.160000000000011      35.140000000000015
   183   1      7.5300000000000091      41.415000000000006       36.39500000000001
   184   1      8.7850000000000072      40.160000000000011       36.39500000000001
   185   1      8.7850000000000072      41.415000000000006      35.140000000000015
   186   1      7.5300000000000091      40.160000000000011      37.650000000000006
   187   1      7.5300000000000091      41.415000000000006      38.905000000000015
   188   1      8.7850000000000072      40.160000000000011      38.905000000000015
   189   1      8.7850000000000072      41.415000000000006      37.650000000000006
   190   1      7.5300000000000091      40.160000000000011      40.160000000000011
   191   1      7.5300000000000091      41.415000000000006      41.415000000000006
   192   1      8.7850000000000072      40.160000000000011      41.415000000000006
   193   1      8.7850000000000072      41.415000000000006      40.160000000000011
   194   1      7.5300000000000091      40.160000000000011      42.670000000000002
   195   1      7.5300000000000091      41.415000000000006      43.925000000000011
   196   1      8.7850000000000072      40.160000000000011      43.925000000000011
   197   1      8.7850000000000072      41.415000000000006      42.670000000000002
   198   1      7.5300000000000091      40.160000000000011      45.180000000000007
   199   1      7.5300000000000091      41.415000000000006      46.435000000000016
   200   1      8.7850000000000072      40.160000000000011      46.435000000000016
   201   1      8.7850000000000072      41.415000000000006      45.180000000000007
   202   1      7.5300000000000091      40.160000000000011      47.690000000000012
   203   1      7.5300000000000091      41.415000000000006      48.945000000000007
   204   1      8.7850000000000072      40.160000000000011      48.945000000000007
   205   1      8.7850000000000072      41.415000000000006      47.690000000000012
   206   1      7.5300000000000091      40.160000000000011      50.200000000000003
   207   1      8.7850000000000072      40.160000000000011      51.455000000000013
   208   1      8.7850000000000072      41.415000000000006      50.200000000000003
   209   1      8.7850000000000072      42.670000000000002      31.375000000000011
   210   1      7.5300000000000091      42.670000000000002       32.63000000000001
   211   1      7.5300000000000091      43.925000000000011      33.885000000000012
   212   1      8.7850000000000072      42.670000000000002      33.885000000000012
   213   1      8.7850000000000072      43.925000000000011       32.63000000000001
   214   1      7.5300000000000091      42.670000000000002      35.140000000000015
   215   1      7.5300000000000091      43.925000000000011       36.39500000000001
   216   1      8.7850000000000072      42.670000000000002       36.39500000000001
   217   1      8.7850000000000072      43.925000000000011      35.140000000000015
   218   1      7.5300000000000091      42.670000000000002      37.650000000000006
   219   1      7.5300000000000091      43.925000000000011      38.905000000000015
   220   1      8.7850000000000072      42.670000000000002      38.905000000000015
   221   1      8.7850000000000072      43.925000000000011      37.650000000000006
   222   1      7.5300000000000091      42.670000000000002      40.160000000000011
   223   1      7.5300000000000091      43.925000000000011      41.415000000000006
   224   1      8.7850000000000072      42.670000000000002      41.415000000000006
   225   1      8.7850000000000072      43.925000000000011      40.160000000000011
   226   1      7.5300000000000091      42.670000000000002      42.670000000000002
   227   1      7.5300000000000091      43.925000000000011      43.925000000000011
   228   1      8.7850000000000072      42.670000000000002      43.925000000000011
   229   1      8.7850000000000072      43.925000000000011      42.670000000000002
   230   1      7.5300000000000091      42.670000000000002      45.180000000000007
   231   1      7.5300000000000091      43.925000000000011      46.435000000000016
   232   1      8.7850000000000072      42.670000000000002      46.435000000000016
   233   1      8.7850000000000072      43.925000000000011      45.180000000000007
   234   1      7.5300000000000091      42.670000000000002      47.690000000000012
   235   1      8.7850000000000072      42.670000000000002      48.945000000000007
   236   1      8.7850000000000072      43.925000000000011      47.690000000000012
   237   1      8.7850000000000072      45.180000000000007      33.885000000000012
   238   1      7.5300000000000091      45.180000000000007      35.140000000000015
   239   1      7.5300000000000091      46.435000000000016       36.39500000000001
   240   1      8.7850000000000072      45.180000000000007       36.39500000000001
   241   1      8.7850000000000072      46.435000000000016      35.140000000000015
   242   1      7.5300000000000091      45.180000000000007      37.650000000000006
   243   1      7.5300000000000091      46.435000000000016      38.905000000000015
   244   1      8.7850000000000072      45.180000000000007      38.905000000000015
   245   1      8.7850000000000072      46.435000000000016      37.650000000000006
   246   1      7.5300000000000091      45.180000000000007      40.160000000000011
   247   1      7.5300000000000091      46.435000000000016      41.415000000000006
   248   1      8.7850000000000072      45.180000000000007      41.415000000000006
   249   1      8.7850000000000072      46.435000000000016      40.160000000000011
   250   1      7.5300000000000091      45.180000000000007      42.670000000000002
   251   1      7.5300000000000091      46.435000000000016      43.925000000000011
   252   1      8.7850000000000072      45.180000000000007      43.925000000000011
   253   1      8.7850000000000072      46.435000000000016      42.670000000000002
   254   1      7.5300000000000091      45.180000000000007      45.180000000000007
   255   1      8.7850000000000072      45.180000000000007      46.435000000000016
   256   1      8.7850000000000072      46.435000000000016      45.180000000000007
   257   1      8.7850000000000072      47.690000000000012       36.39500000000001
   258   1      7.5300000000000091      47.690000000000012      37.650000000000006
   259   1      7.5300000000000091      48.945000000000007      38.905000000000015
   260   1      8.7850000000000072      47.690000000000012      38.905000000000015
   261   1      8.7850000000000072      48.945000000000007      37.650000000000006
   262   1      7.5300000000000091      47.690000000000012      40.160000000000011
   263   1      7.5300000000000091      48.945000000000007      41.415000000000006
   264   1      8.7850000000000072      47.690000000000012      41.415000000000006
   265   1      8.7850000000000072      48.945000000000007      40.160000000000011
   266   1      7.5300000000000091      47.690000000000012      42.670000000000002
   267   1      8.7850000000000072      47.690000000000012      43.925000000000011
   268   1      8.7850000000000072      48.945000000000007      42.670000000000002
   269   1      8.7850000000000072      50.200000000000003      38.905000000000015
   270   1      7.5300000000000091      50.200000000000003      40.160000000000011
   271   1      8.7850000000000072      50.200000000000003      41.415000000000006
   272   1      8.7850000000000072      51.455000000000013      40.160000000000011
   273   1      11.295000000000009      26.355000000000008      40.160000000000011
   274   1      10.040000000000006      28.865000000000009      38.905000000000015
   275   1      11.295000000000009       27.61000000000001      38.905000000000015
   276   1      11.295000000000009      28.865000000000009      37.650000000000006
   277   1      10.040000000000006       27.61000000000001      40.160000000000011
   278   1      10.040000000000006      28.865000000000009      41.415000000000006
   279   1      11.295000000000009       27.61000000000001      41.415000000000006
   280   1      11.295000000000009      28.865000000000009      40.160000000000011
   281   1      11.295000000000009      28.865000000000009      42.670000000000002
   282   1      10.040000000000006      31.375000000000011       36.39500000000001
   283   1      11.295000000000009      30.120000000000005       36.39500000000001
   284   1      11.295000000000009      31.375000000000011      35.140000000000015
   285   1      10.040000000000006      30.120000000000005      37.650000000000006
   286   1      10.040000000000006      31.375000000000011      38.905000000000015
   287   1      11.295000000000009      30.120000000000005      38.905000000000015
   288   1      11.295000000000009      31.375000000000011      37.650000000000006
   289   1      10.040000000000006      30.120000000000005      40.160000000000011
   290   1      10.040000000000006      31.375000000000011      41.415000000000006
   291   1      11.295000000000009      30.120000000000005      41.415000000000006
   292   1      11.295000000000009      31.375000000000011      40.160000000000011
   293   1      10.040000000000006      30.120000000000005      42.670000000000002
   294   1      10.040000000000006      31.375000000000011      43.925000000000011
   295   1      11.295000000000009      30.120000000000005      43.925000000000011
   296   1      11.295000000000009      31.375000000000011      42.670000000000002
   297   1      11.295000000000009      31.375000000000011      45.180000000000007
   298   1      10.040000000000006      33.885000000000012      33.885000000000012
   299   1      11.295000000000009       32.63000000000001      33.885000000000012
   300   1      11.295000000000009      33.885000000000012       32.63000000000001
   301   1      10.040000000000006       32.63000000000001      35.140000000000015
   302   1      10.040000000000006      33.885000000000012       36.39500000000001
   303   1      11.295000000000009       32.63000000000001       36.39500000000001
   304   1      11.295000000000009      33.885000000000012      35.140000000000015
   305   1      10.040000000000006       32.63000000000001      37.650000000000006
   306   1      10.040000000000006      33.885000000000012      38.905000000000015
   307   1      11.295000000000009       32.63000000000001      38.905000000000015
   308   1      11.295000000000009      33.885000000000012      37.650000000000006
   309   1      10.040000000000006       32.63000000000001      40.160000000000011
   310   1      10.040000000000006      33.885000000000012      41.415000000000006
   311   1      11.295000000000009       32.63000000000001      41.415000000000006
   312   1      11.295000000000009      33.885000000000012      40.160000000000011
   313   1      10.040000000000006       32.63000000000001      42.670000000000002
   314   1      10.040000000000006      33.885000000000012      43.925000000000011
   315   1      11.295000000000009       32.63000000000001      43.925000000000011
   316   1      11.295000000000009      33.885000000000012      42.670000000000002
   317   1      10.040000000000006       32.63000000000001      45.180000000000007
   318   1      10.040000000000006      33.885000000000012      46.435000000000016
   319   1      11.295000000000009       32.63000000000001      46.435000000000016
   320   1      11.295000000000009      33.885000000000012      45.180000000000007
   321   1      11.295000000000009      33.885000000000012      47.690000000000012
   322   1      10.040000000000006       36.39500000000001      31.375000000000011
   323   1      11.295000000000009      35.140000000000015      31.375000000000011
   324   1      11.295000000000009       36.39500000000001      30.120000000000005
   325   1      10.040000000000006      35.140000000000015       32.63000000000001
   326   1      10.040000000000006       36.39500000000001      33.885000000000012
   327   1      11.295000000000009      35.140000000000015      33.885000000000012
   328   1      11.295000000000009       36.39500000000001       32.63000000000001
   329   1      10.040000000000006      35.140000000000015      35.140000000000015
   330   1      10.040000000000006       36.39500000000001       36.39500000000001
   331   1      11.295000000000009      35.140000000000015       36.39500000000001
   332   1      11.295000000000009       36.39500000000001      35.140000000000015
   333   1      10.040000000000006      35.140000000000015      37.650000000000006
   334   1      10.040000000000006       36.39500000000001      38.905000000000015
   335   1      11.295000000000009      35.140000000000015      38.905000000000015
   336   1      11.295000000000009       36.39500000000001      37.650000000000006
   337   1      10.040000000000006      35.140000000000015      40.160000000000011
   338   1      10.040000000000006       36.39500000000001      41.415000000000006
   339   1      11.295000000000009      35.140000000000015      41.415000000000006
   340   1      11.295000000000009       36.39500000000001      40.160000000000011
   341   1      10.040000000000006      35.140000000000015      42.670000000000002
   342   1      10.040000000000006       36.39500000000001      43.925000000000011
   343   1      11.295000000000009      35.140000000000015      43.925000000000011
   344   1      11.295000000000009       36.39500000000001      42.670000000000002
   345   1      10.040000000000006      35.140000000000015      45.180000000000007
   346   1      10.040000000000006       36.39500000000001      46.435000000000016
   347   1      11.295000000000009      35.140000000000015      46.435000000000016
   348   1      11.295000000000009       36.39500000000001      45.180000000000007
   349   1      10.040000000000006      35.140000000000015      47.690000000000012
   350   1      10.040000000000006       36.39500000000001      48.945000000000007
   351   1      11.295000000000009      35.140000000000015      48.945000000000007
   352   1      11.295000000000009       36.39500000000001      47.690000000000012
   353   1      11.295000000000009       36.39500000000001      50.200000000000003
   354   1      10.040000000000006      38.905000000000015      28.865000000000009
   355   1      11.295000000000009      37.650000000000006      28.865000000000009
   356   1      11.295000000000009      38.905000000000015       27.61000000000001
   357   1      10.040000000000006      37.650000000000006      30.120000000000005
   358   1      10.040000000000006      38.905000000000015      31.375000000000011