model_files/Co/Co_30000/Co_410/data.Co_410_hcp_29755 (written by ASE) 

29755 	 atoms 
1  atom types
0.0                      57  xlo xhi
0.0                      57  ylo yhi
0.0                      57  zlo zhi


Atoms 

     1   1      1.2550000000000023      20.079999999999998      21.334999999999997
     2   1      1.2550000000000023      21.334999999999997      20.079999999999998
     3   1      1.2550000000000023      20.079999999999998      23.844999999999995
     4   1      1.2550000000000023      21.334999999999997      22.589999999999996
     5   1      1.2550000000000023      20.079999999999998      26.354999999999997
     6   1      1.2550000000000023      21.334999999999997      25.099999999999998
     7   1      1.2550000000000023      20.079999999999998      28.864999999999995
     8   1      1.2550000000000023      21.334999999999997      27.609999999999996
     9   1      1.2550000000000023      20.079999999999998                  31.375
    10   1      1.2550000000000023      21.334999999999997      30.119999999999997
    11   1      1.2550000000000023      20.079999999999998      33.885000000000005
    12   1      1.2550000000000023      21.334999999999997      32.630000000000003
    13   1      1.2550000000000023      21.334999999999997      35.140000000000001
    14   1      1.2550000000000023      22.589999999999996      21.334999999999997
    15   1      1.2550000000000023      23.844999999999995      20.079999999999998
    16   1      1.2550000000000023      22.589999999999996      23.844999999999995
    17   1      1.2550000000000023      23.844999999999995      22.589999999999996
    18   1      1.2550000000000023      22.589999999999996      26.354999999999997
    19   1      1.2550000000000023      23.844999999999995      25.099999999999998
    20   1      1.2550000000000023      22.589999999999996      28.864999999999995
    21   1      1.2550000000000023      23.844999999999995      27.609999999999996
    22   1      1.2550000000000023      22.589999999999996                  31.375
    23   1      1.2550000000000023      23.844999999999995      30.119999999999997
    24   1      1.2550000000000023      22.589999999999996      33.885000000000005
    25   1      1.2550000000000023      23.844999999999995      32.630000000000003
    26   1      1.2550000000000023      23.844999999999995      35.140000000000001
    27   1      1.2550000000000023      25.099999999999998      21.334999999999997
    28   1      1.2550000000000023      26.354999999999997      20.079999999999998
    29   1      1.2550000000000023      25.099999999999998      23.844999999999995
    30   1      1.2550000000000023      26.354999999999997      22.589999999999996
    31   1                       0      25.099999999999998      25.099999999999998
    32   1                       0      26.354999999999997      26.354999999999997
    33   1      1.2550000000000023      25.099999999999998      26.354999999999997
    34   1      1.2550000000000023      26.354999999999997      25.099999999999998
    35   1                       0      25.099999999999998      27.609999999999996
    36   1                       0      26.354999999999997      28.864999999999995
    37   1      1.2550000000000023      25.099999999999998      28.864999999999995
    38   1      1.2550000000000023      26.354999999999997      27.609999999999996
    39   1                       0      25.099999999999998      30.119999999999997
    40   1      1.2550000000000023      25.099999999999998                  31.375
    41   1      1.2550000000000023      26.354999999999997      30.119999999999997
    42   1      1.2550000000000023      25.099999999999998      33.885000000000005
    43   1      1.2550000000000023      26.354999999999997      32.630000000000003
    44   1      1.2550000000000023      26.354999999999997      35.140000000000001
    45   1      1.2550000000000023      27.609999999999996      21.334999999999997
    46   1      1.2550000000000023      28.864999999999995      20.079999999999998
    47   1      1.2550000000000023      27.609999999999996      23.844999999999995
    48   1      1.2550000000000023      28.864999999999995      22.589999999999996
    49   1                       0      27.609999999999996      25.099999999999998
    50   1                       0      28.864999999999995      26.354999999999997
    51   1      1.2550000000000023      27.609999999999996      26.354999999999997
    52   1      1.2550000000000023      28.864999999999995      25.099999999999998
    53   1                       0      27.609999999999996      27.609999999999996
    54   1                       0      28.864999999999995      28.864999999999995
    55   1      1.2550000000000023      27.609999999999996      28.864999999999995
    56   1      1.2550000000000023      28.864999999999995      27.609999999999996
    57   1                       0      27.609999999999996      30.119999999999997
    58   1      1.2550000000000023      27.609999999999996                  31.375
    59   1      1.2550000000000023      28.864999999999995      30.119999999999997
    60   1      1.2550000000000023      27.609999999999996      33.885000000000005
    61   1      1.2550000000000023      28.864999999999995      32.630000000000003
    62   1      1.2550000000000023      28.864999999999995      35.140000000000001
    63   1      1.2550000000000023      30.119999999999997      21.334999999999997
    64   1      1.2550000000000023                  31.375      20.079999999999998
    65   1      1.2550000000000023      30.119999999999997      23.844999999999995
    66   1      1.2550000000000023                  31.375      22.589999999999996
    67   1                       0      30.119999999999997      25.099999999999998
    68   1      1.2550000000000023      30.119999999999997      26.354999999999997
    69   1      1.2550000000000023                  31.375      25.099999999999998
    70   1                       0      30.119999999999997      27.609999999999996
    71   1      1.2550000000000023      30.119999999999997      28.864999999999995
    72   1      1.2550000000000023                  31.375      27.609999999999996
    73   1                       0      30.119999999999997      30.119999999999997
    74   1      1.2550000000000023      30.119999999999997                  31.375
    75   1      1.2550000000000023                  31.375      30.119999999999997
    76   1      1.2550000000000023      30.119999999999997      33.885000000000005
    77   1      1.2550000000000023                  31.375      32.630000000000003
    78   1      1.2550000000000023                  31.375      35.140000000000001
    79   1      1.2550000000000023      32.630000000000003      21.334999999999997
    80   1      1.2550000000000023      33.885000000000005      20.079999999999998
    81   1      1.2550000000000023      32.630000000000003      23.844999999999995
    82   1      1.2550000000000023      33.885000000000005      22.589999999999996
    83   1      1.2550000000000023      32.630000000000003      26.354999999999997
    84   1      1.2550000000000023      33.885000000000005      25.099999999999998
    85   1      1.2550000000000023      32.630000000000003      28.864999999999995
    86   1      1.2550000000000023      33.885000000000005      27.609999999999996
    87   1      1.2550000000000023      32.630000000000003                  31.375
    88   1      1.2550000000000023      33.885000000000005      30.119999999999997
    89   1      1.2550000000000023      32.630000000000003      33.885000000000005
    90   1      1.2550000000000023      33.885000000000005      32.630000000000003
    91   1      1.2550000000000023      33.885000000000005      35.140000000000001
    92   1      1.2550000000000023      35.140000000000001      21.334999999999997
    93   1      1.2550000000000023      35.140000000000001      23.844999999999995
    94   1      1.2550000000000023      35.140000000000001      26.354999999999997
    95   1      1.2550000000000023      35.140000000000001      28.864999999999995
    96   1      1.2550000000000023      35.140000000000001                  31.375
    97   1      1.2550000000000023      35.140000000000001      33.885000000000005
    98   1      3.7650000000000006      10.039999999999999                  11.295
    99   1      3.7650000000000006                  11.295      10.039999999999999
   100   1      3.7650000000000006      10.039999999999999      13.804999999999998
   101   1      3.7650000000000006                  11.295      12.549999999999999
   102   1      3.7650000000000006      10.039999999999999      16.315000000000001
   103   1      3.7650000000000006                  11.295      15.060000000000002
   104   1      3.7650000000000006      10.039999999999999      18.824999999999999
   105   1      3.7650000000000006                  11.295                   17.57
   106   1      3.7650000000000006      10.039999999999999      21.334999999999997
   107   1      3.7650000000000006                  11.295      20.079999999999998
   108   1      3.7650000000000006      10.039999999999999      23.844999999999995
   109   1      3.7650000000000006                  11.295      22.589999999999996
   110   1      3.7650000000000006      10.039999999999999      26.354999999999997
   111   1      3.7650000000000006                  11.295      25.099999999999998
   112   1      3.7650000000000006      10.039999999999999      28.864999999999995
   113   1      3.7650000000000006                  11.295      27.609999999999996
   114   1      3.7650000000000006      10.039999999999999                  31.375
   115   1      3.7650000000000006                  11.295      30.119999999999997
   116   1      3.7650000000000006      10.039999999999999      33.885000000000005
   117   1      3.7650000000000006                  11.295      32.630000000000003
   118   1      3.7650000000000006      10.039999999999999      36.395000000000003
   119   1      3.7650000000000006                  11.295      35.140000000000001
   120   1      3.7650000000000006      10.039999999999999      38.905000000000001
   121   1      3.7650000000000006                  11.295      37.649999999999999
   122   1      3.7650000000000006      10.039999999999999      41.414999999999999
   123   1      3.7650000000000006                  11.295      40.159999999999997
   124   1      3.7650000000000006      10.039999999999999      43.924999999999997
   125   1      3.7650000000000006                  11.295      42.669999999999995
   126   1      3.7650000000000006                  11.295      45.179999999999993
   127   1      3.7650000000000006      12.549999999999999                  11.295
   128   1      3.7650000000000006      13.804999999999998      10.039999999999999
   129   1      3.7650000000000006      12.549999999999999      13.804999999999998
   130   1      3.7650000000000006      13.804999999999998      12.549999999999999
   131   1      3.7650000000000006      12.549999999999999      16.315000000000001
   132   1      3.7650000000000006      13.804999999999998      15.060000000000002
   133   1      3.7650000000000006      12.549999999999999      18.824999999999999
   134   1      3.7650000000000006      13.804999999999998                   17.57
   135   1      3.7650000000000006      12.549999999999999      21.334999999999997
   136   1      3.7650000000000006      13.804999999999998      20.079999999999998
   137   1      3.7650000000000006      12.549999999999999      23.844999999999995
   138   1      3.7650000000000006      13.804999999999998      22.589999999999996
   139   1      3.7650000000000006      12.549999999999999      26.354999999999997
   140   1      3.7650000000000006      13.804999999999998      25.099999999999998
   141   1      3.7650000000000006      12.549999999999999      28.864999999999995
   142   1      3.7650000000000006      13.804999999999998      27.609999999999996
   143   1      3.7650000000000006      12.549999999999999                  31.375
   144   1      3.7650000000000006      13.804999999999998      30.119999999999997
   145   1      3.7650000000000006      12.549999999999999      33.885000000000005
   146   1      3.7650000000000006      13.804999999999998      32.630000000000003
   147   1      3.7650000000000006      12.549999999999999      36.395000000000003
   148   1      3.7650000000000006      13.804999999999998      35.140000000000001
   149   1      3.7650000000000006      12.549999999999999      38.905000000000001
   150   1      3.7650000000000006      13.804999999999998      37.649999999999999
   151   1      3.7650000000000006      12.549999999999999      41.414999999999999
   152   1      3.7650000000000006      13.804999999999998      40.159999999999997
   153   1      3.7650000000000006      12.549999999999999      43.924999999999997
   154   1      3.7650000000000006      13.804999999999998      42.669999999999995
   155   1      3.7650000000000006      13.804999999999998      45.179999999999993
   156   1      3.7650000000000006      15.060000000000002                  11.295
   157   1      3.7650000000000006      16.315000000000001      10.039999999999999
   158   1      3.7650000000000006      15.060000000000002      13.804999999999998
   159   1      3.7650000000000006      16.315000000000001      12.549999999999999
   160   1      2.5100000000000011      15.060000000000002      15.060000000000002
   161   1      2.5100000000000011      16.315000000000001      16.315000000000001
   162   1      3.7650000000000006      15.060000000000002      16.315000000000001
   163   1      3.7650000000000006      16.315000000000001      15.060000000000002
   164   1      2.5100000000000011      15.060000000000002                   17.57
   165   1      2.5100000000000011      16.315000000000001      18.824999999999999
   166   1      3.7650000000000006      15.060000000000002      18.824999999999999
   167   1      3.7650000000000006      16.315000000000001                   17.57
   168   1      2.5100000000000011      15.060000000000002      20.079999999999998
   169   1      2.5100000000000011      16.315000000000001      21.334999999999997
   170   1      3.7650000000000006      15.060000000000002      21.334999999999997
   171   1      3.7650000000000006      16.315000000000001      20.079999999999998
   172   1      2.5100000000000011      15.060000000000002      22.589999999999996
   173   1      2.5100000000000011      16.315000000000001      23.844999999999995
   174   1      3.7650000000000006      15.060000000000002      23.844999999999995
   175   1      3.7650000000000006      16.315000000000001      22.589999999999996
   176   1      2.5100000000000011      15.060000000000002      25.099999999999998
   177   1      2.5100000000000011      16.315000000000001      26.354999999999997
   178   1      3.7650000000000006      15.060000000000002      26.354999999999997
   179   1      3.7650000000000006      16.315000000000001      25.099999999999998
   180   1      2.5100000000000011      15.060000000000002      27.609999999999996
   181   1      2.5100000000000011      16.315000000000001      28.864999999999995
   182   1      3.7650000000000006      15.060000000000002      28.864999999999995
   183   1      3.7650000000000006      16.315000000000001      27.609999999999996
   184   1      2.5100000000000011      15.060000000000002      30.119999999999997
   185   1      2.5100000000000011      16.315000000000001                  31.375
   186   1      3.7650000000000006      15.060000000000002                  31.375
   187   1      3.7650000000000006      16.315000000000001      30.119999999999997
   188   1      2.5100000000000011      15.060000000000002      32.630000000000003
   189   1      2.5100000000000011      16.315000000000001      33.885000000000005
   190   1      3.7650000000000006      15.060000000000002      33.885000000000005
   191   1      3.7650000000000006      16.315000000000001      32.630000000000003
   192   1      2.5100000000000011      15.060000000000002      35.140000000000001
   193   1      2.5100000000000011      16.315000000000001      36.395000000000003
   194   1      3.7650000000000006      15.060000000000002      36.395000000000003
   195   1      3.7650000000000006      16.315000000000001      35.140000000000001
   196   1      2.5100000000000011      15.060000000000002      37.649999999999999
   197   1      2.5100000000000011      16.315000000000001      38.905000000000001
   198   1      3.7650000000000006      15.060000000000002      38.905000000000001
   199   1      3.7650000000000006      16.315000000000001      37.649999999999999
   200   1      2.5100000000000011      15.060000000000002      40.159999999999997
   201   1      3.7650000000000006      15.060000000000002      41.414999999999999
   202   1      3.7650000000000006      16.315000000000001      40.159999999999997
   203   1      3.7650000000000006      15.060000000000002      43.924999999999997
   204   1      3.7650000000000006      16.315000000000001      42.669999999999995
   205   1      3.7650000000000006      16.315000000000001      45.179999999999993
   206   1      3.7650000000000006                   17.57                  11.295
   207   1      3.7650000000000006      18.824999999999999      10.039999999999999
   208   1      3.7650000000000006                   17.57      13.804999999999998
   209   1      3.7650000000000006      18.824999999999999      12.549999999999999
   210   1      2.5100000000000011                   17.57      15.060000000000002
   211   1      2.5100000000000011      18.824999999999999      16.315000000000001
   212   1      3.7650000000000006                   17.57      16.315000000000001
   213   1      3.7650000000000006      18.824999999999999      15.060000000000002
   214   1      2.5100000000000011                   17.57                   17.57
   215   1      2.5100000000000011      18.824999999999999      18.824999999999999
   216   1      3.7650000000000006                   17.57      18.824999999999999
   217   1      3.7650000000000006      18.824999999999999                   17.57
   218   1      2.5100000000000011                   17.57      20.079999999999998
   219   1      2.5100000000000011      18.824999999999999      21.334999999999997
   220   1      3.7650000000000006                   17.57      21.334999999999997
   221   1      3.7650000000000006      18.824999999999999      20.079999999999998
   222   1      2.5100000000000011                   17.57      22.589999999999996
   223   1      2.5100000000000011      18.824999999999999      23.844999999999995
   224   1      3.7650000000000006                   17.57      23.844999999999995
   225   1      3.7650000000000006      18.824999999999999      22.589999999999996
   226   1      2.5100000000000011                   17.57      25.099999999999998
   227   1      2.5100000000000011      18.824999999999999      26.354999999999997
   228   1      3.7650000000000006                   17.57      26.354999999999997
   229   1      3.7650000000000006      18.824999999999999      25.099999999999998
   230   1      2.5100000000000011                   17.57      27.609999999999996
   231   1      2.5100000000000011      18.824999999999999      28.864999999999995
   232   1      3.7650000000000006                   17.57      28.864999999999995
   233   1      3.7650000000000006      18.824999999999999      27.609999999999996
   234   1      2.5100000000000011                   17.57      30.119999999999997
   235   1      2.5100000000000011      18.824999999999999                  31.375
   236   1      3.7650000000000006                   17.57                  31.375
   237   1      3.7650000000000006      18.824999999999999      30.119999999999997
   238   1      2.5100000000000011                   17.57      32.630000000000003
   239   1      2.5100000000000011      18.824999999999999      33.885000000000005
   240   1      3.7650000000000006                   17.57      33.885000000000005
   241   1      3.7650000000000006      18.824999999999999      32.630000000000003
   242   1      2.5100000000000011                   17.57      35.140000000000001
   243   1      2.5100000000000011      18.824999999999999      36.395000000000003
   244   1      3.7650000000000006                   17.57      36.395000000000003
   245   1      3.7650000000000006      18.824999999999999      35.140000000000001
   246   1      2.5100000000000011                   17.57      37.649999999999999
   247   1      2.5100000000000011      18.824999999999999      38.905000000000001
   248   1      3.7650000000000006                   17.57      38.905000000000001
   249   1      3.7650000000000006      18.824999999999999      37.649999999999999
   250   1      2.5100000000000011                   17.57      40.159999999999997
   251   1      3.7650000000000006                   17.57      41.414999999999999
   252   1      3.7650000000000006      18.824999999999999      40.159999999999997
   253   1      3.7650000000000006                   17.57      43.924999999999997
   254   1      3.7650000000000006      18.824999999999999      42.669999999999995
   255   1      3.7650000000000006      18.824999999999999      45.179999999999993
   256   1      3.7650000000000006      20.079999999999998                  11.295
   257   1      3.7650000000000006      21.334999999999997      10.039999999999999
   258   1      3.7650000000000006      20.079999999999998      13.804999999999998
   259   1      3.7650000000000006      21.334999999999997      12.549999999999999
   260   1      2.5100000000000011      20.079999999999998      15.060000000000002
   261   1      2.5100000000000011      21.334999999999997      16.315000000000001
   262   1      3.7650000000000006      20.079999999999998      16.315000000000001
   263   1      3.7650000000000006      21.334999999999997      15.060000000000002
   264   1      2.5100000000000011      20.079999999999998                   17.57
   265   1      2.5100000000000011      21.334999999999997      18.824999999999999
   266   1      3.7650000000000006      20.079999999999998      18.824999999999999
   267   1      3.7650000000000006      21.334999999999997                   17.57
   268   1      2.5100000000000011      20.079999999999998      20.079999999999998
   269   1      2.5100000000000011      21.334999999999997      21.334999999999997
   270   1      3.7650000000000006      20.079999999999998      21.334999999999997
   271   1      3.7650000000000006      21.334999999999997      20.079999999999998
   272   1      2.5100000000000011      20.079999999999998      22.589999999999996
   273   1      2.5100000000000011      21.334999999999997      23.844999999999995
   274   1      3.7650000000000006      20.079999999999998      23.844999999999995
   275   1      3.7650000000000006      21.334999999999997      22.589999999999996
   276   1      2.5100000000000011      20.079999999999998      25.099999999999998
   277   1      2.5100000000000011      21.334999999999997      26.354999999999997
   278   1      3.7650000000000006      20.079999999999998      26.354999999999997
   279   1      3.7650000000000006      21.334999999999997      25.099999999999998
   280   1      2.5100000000000011      20.079999999999998      27.609999999999996
   281   1      2.5100000000000011      21.334999999999997      28.864999999999995
   282   1      3.7650000000000006      20.079999999999998      28.864999999999995
   283   1      3.7650000000000006      21.334999999999997      27.609999999999996
   284   1      2.5100000000000011      20.079999999999998      30.119999999999997
   285   1      2.5100000000000011      21.334999999999997                  31.375
   286   1      3.7650000000000006      20.079999999999998                  31.375
   287   1      3.7650000000000006      21.334999999999997      30.119999999999997
   288   1      2.5100000000000011      20.079999999999998      32.630000000000003
   289   1      2.5100000000000011      21.334999999999997      33.885000000000005
   290   1      3.7650000000000006      20.079999999999998      33.885000000000005
   291   1      3.7650000000000006      21.334999999999997      32.630000000000003
   292   1      2.5100000000000011      20.079999999999998      35.140000000000001
   293   1      2.5100000000000011      21.334999999999997      36.395000000000003
   294   1      3.7650000000000006      20.079999999999998      36.395000000000003
   295   1      3.7650000000000006      21.334999999999997      35.140000000000001
   296   1      2.5100000000000011      20.079999999999998      37.649999999999999
   297   1      2.5100000000000011      21.334999999999997      38.905000000000001
   298   1      3.7650000000000006      20.079999999999998      38.905000000000001
   299   1      3.7650000000000006      21.334999999999997      37.649999999999999
   300   1      2.5100000000000011      20.079999999999998      40.159999999999997
   301   1      3.7650000000000006      20.079999999999998      41.414999999999999
   302   1      3.7650000000000006      21.334999999999997      40.159999999999997
   303   1      3.7650000000000006      20.079999999999998      43.924999999999997
   304   1      3.7650000000000006      21.334999999999997      42.669999999999995
   305   1      3.7650000000000006      21.334999999999997      45.179999999999993
   306   1      3.7650000000000006      22.589999999999996                  11.295
   307   1      3.7650000000000006      23.844999999999995      10.039999999999999
   308   1      3.7650000000000006      22.589999999999996      13.804999999999998
   309   1      3.7650000000000006      23.844999999999995      12.549999999999999
   310   1      2.5100000000000011      22.589999999999996      15.060000000000002
   311   1      2.5100000000000011      23.844999999999995      16.315000000000001
   312   1      3.7650000000000006      22.589999999999996      16.315000000000001
   313   1      3.7650000000000006      23.844999999999995      15.060000000000002
   314   1      2.5100000000000011      22.589999999999996                   17.57
   315   1      2.5100000000000011      23.844999999999995      18.824999999999999
   316   1      3.7650000000000006      22.589999999999996      18.824999999999999
   317   1      3.7650000000000006      23.844999999999995                   17.57
   318   1      2.5100000000000011      22.589999999999996      20.079999999999998
   319   1      2.5100000000000011      23.844999999999995      21.334999999999997
   320   1      3.7650000000000006      22.589999999999996      21.334999999999997
   321   1      3.7650000000000006      23.844999999999995      20.079999999999998
   322   1      2.5100000000000011      22.589999999999996      22.589999999999996
   323   1      2.5100000000000011      23.844999999999995      23.844999999999995
   324   1      3.7650000000000006      22.589999999999996      23.844999999999995
   325   1      3.7650000000000006      23.844999999999995      22.589999999999996
   326   1      2.5100000000000011      22.589999999999996      25.099999999999998
   327   1      2.5100000000000011      23.844999999999995      26.354999999999997
   328   1      3.7650000000000006      22.589999999999996      26.354999999999997
   329   1      3.7650000000000006      23.844999999999995      25.099999999999998
   330   1      2.5100000000000011      22.589999999999996      27.609999999999996
   331   1      2.5100000000000011      23.844999999999995      28.864999999999995
   332   1      3.7650000000000006      22.589999999999996      28.864999999999995
   333   1      3.7650000000000006      23.844999999999995      27.609999999999996
   334   1      2.5100000000000011      22.589999999999996      30.119999999999997
   335   1      2.5100000000000011      23.844999999999995                  31.375
   336   1      3.7650000000000006      22.589999999999996                  31.375
   337   1      3.7650000000000006      23.844999999999995      30.119999999999997
   338   1      2.5100000000000011      22.589999999999996      32.630000000000003
   339   1      2.5100000000000011      23.844999999999995      33.885000000000005
   340   1      3.7650000000000006      22.589999999999996      33.885000000000005
   341   1      3.7650000000000006      23.844999999999995      32.630000000000003
   342   1      2.5100000000000011      22.589999999999996      35.140000000000001
   343   1      2.5100000000000011      23.844999999999995      36.395000000000003
   344   1      3.7650000000000006      22.589999999999996      36.395000000000003
   345   1      3.7650000000000006      23.844999999999995      35.140000000000001
   346   1      2.5100000000000011      22.589999999999996      37.649999999999999
   347   1      2.5100000000000011      23.844999999999995      38.905000000000001
   348   1      3.7650000000000006      22.589999999999996      38.905000000000001
   349   1      3.7650000000000006      23.844999999999995      37.649999999999999
   350   1      2.5100000000000011      22.589999999999996      40.159999999999997
   351   1      3.7650000000000006      22.589999999999996      41.414999999999999
   352   1      3.7650000000000006      23.844999999999995      40.159999999999997
   353   1      3.7650000000000006      22.589999999999996      43.924999999999997
   354   1      3.7650000000000006      23.844999999999995      42.669999999999995
   355   1      3.7650000000000006      23.844999999999995      45.179999999999993
   356   1      3.7650000000000006      25.099999999999998                  11.295
   357   1      3.7650000000000006      26.354999999999997      10.039999999999999
   358   1      3.7650000000000006      25.099999999999998      13.804999999999998