model_files/Co/Co_30000/Co_551/data.Co_551_hcp_30369 (written by ASE) 

30369 	 atoms 
1  atom types
0.0                      80  xlo xhi
0.0                      80  ylo yhi
0.0                      80  zlo zhi


Atoms 

     1   1      1.2550000000000097      38.905000000000015      40.160000000000011
     2   1      1.2550000000000097      40.160000000000011      38.905000000000015
     3   1  7.1054273576010019e-15      40.160000000000011      40.160000000000011
     4   1      1.2550000000000097      40.160000000000011      41.415000000000006
     5   1      1.2550000000000097      41.415000000000006      40.160000000000011
     6   1      3.7650000000000077       36.39500000000001      40.160000000000011
     7   1      2.5100000000000122      38.905000000000015      38.905000000000015
     8   1      3.7650000000000077      37.650000000000006      38.905000000000015
     9   1      3.7650000000000077      38.905000000000015      37.650000000000006
    10   1      2.5100000000000122      37.650000000000006      40.160000000000011
    11   1      2.5100000000000122      38.905000000000015      41.415000000000006
    12   1      3.7650000000000077      37.650000000000006      41.415000000000006
    13   1      3.7650000000000077      38.905000000000015      40.160000000000011
    14   1      3.7650000000000077      38.905000000000015      42.670000000000002
    15   1      3.7650000000000077      40.160000000000011       36.39500000000001
    16   1      2.5100000000000122      40.160000000000011      37.650000000000006
    17   1      2.5100000000000122      41.415000000000006      38.905000000000015
    18   1      3.7650000000000077      40.160000000000011      38.905000000000015
    19   1      3.7650000000000077      41.415000000000006      37.650000000000006
    20   1      2.5100000000000122      40.160000000000011      40.160000000000011
    21   1      2.5100000000000122      41.415000000000006      41.415000000000006
    22   1      3.7650000000000077      40.160000000000011      41.415000000000006
    23   1      3.7650000000000077      41.415000000000006      40.160000000000011
    24   1      2.5100000000000122      40.160000000000011      42.670000000000002
    25   1      3.7650000000000077      40.160000000000011      43.925000000000011
    26   1      3.7650000000000077      41.415000000000006      42.670000000000002
    27   1      3.7650000000000077      42.670000000000002      38.905000000000015
    28   1      2.5100000000000122      42.670000000000002      40.160000000000011
    29   1      3.7650000000000077      42.670000000000002      41.415000000000006
    30   1      3.7650000000000077      43.925000000000011      40.160000000000011
    31   1      6.2750000000000128      33.885000000000012      40.160000000000011
    32   1      5.0200000000000102       36.39500000000001       36.39500000000001
    33   1      6.2750000000000128      35.140000000000015       36.39500000000001
    34   1      6.2750000000000128       36.39500000000001      35.140000000000015
    35   1      5.0200000000000102       36.39500000000001      38.905000000000015
    36   1      6.2750000000000128      35.140000000000015      38.905000000000015
    37   1      6.2750000000000128       36.39500000000001      37.650000000000006
    38   1      5.0200000000000102      35.140000000000015      40.160000000000011
    39   1      5.0200000000000102       36.39500000000001      41.415000000000006
    40   1      6.2750000000000128      35.140000000000015      41.415000000000006
    41   1      6.2750000000000128       36.39500000000001      40.160000000000011
    42   1      5.0200000000000102       36.39500000000001      43.925000000000011
    43   1      6.2750000000000128      35.140000000000015      43.925000000000011
    44   1      6.2750000000000128       36.39500000000001      42.670000000000002
    45   1      6.2750000000000128       36.39500000000001      45.180000000000007
    46   1      5.0200000000000102      38.905000000000015       36.39500000000001
    47   1      6.2750000000000128      37.650000000000006       36.39500000000001
    48   1      6.2750000000000128      38.905000000000015      35.140000000000015
    49   1      5.0200000000000102      37.650000000000006      37.650000000000006
    50   1      5.0200000000000102      38.905000000000015      38.905000000000015
    51   1      6.2750000000000128      37.650000000000006      38.905000000000015
    52   1      6.2750000000000128      38.905000000000015      37.650000000000006
    53   1      5.0200000000000102      37.650000000000006      40.160000000000011
    54   1      5.0200000000000102      38.905000000000015      41.415000000000006
    55   1      6.2750000000000128      37.650000000000006      41.415000000000006
    56   1      6.2750000000000128      38.905000000000015      40.160000000000011
    57   1      5.0200000000000102      37.650000000000006      42.670000000000002
    58   1      5.0200000000000102      38.905000000000015      43.925000000000011
    59   1      6.2750000000000128      37.650000000000006      43.925000000000011
    60   1      6.2750000000000128      38.905000000000015      42.670000000000002
    61   1      6.2750000000000128      38.905000000000015      45.180000000000007
    62   1      6.2750000000000128      40.160000000000011      33.885000000000012
    63   1      5.0200000000000102      40.160000000000011      35.140000000000015
    64   1      5.0200000000000102      41.415000000000006       36.39500000000001
    65   1      6.2750000000000128      40.160000000000011       36.39500000000001
    66   1      6.2750000000000128      41.415000000000006      35.140000000000015
    67   1      5.0200000000000102      40.160000000000011      37.650000000000006
    68   1      5.0200000000000102      41.415000000000006      38.905000000000015
    69   1      6.2750000000000128      40.160000000000011      38.905000000000015
    70   1      6.2750000000000128      41.415000000000006      37.650000000000006
    71   1      5.0200000000000102      40.160000000000011      40.160000000000011
    72   1      5.0200000000000102      41.415000000000006      41.415000000000006
    73   1      6.2750000000000128      40.160000000000011      41.415000000000006
    74   1      6.2750000000000128      41.415000000000006      40.160000000000011
    75   1      5.0200000000000102      40.160000000000011      42.670000000000002
    76   1      5.0200000000000102      41.415000000000006      43.925000000000011
    77   1      6.2750000000000128      40.160000000000011      43.925000000000011
    78   1      6.2750000000000128      41.415000000000006      42.670000000000002
    79   1      5.0200000000000102      40.160000000000011      45.180000000000007
    80   1      6.2750000000000128      40.160000000000011      46.435000000000016
    81   1      6.2750000000000128      41.415000000000006      45.180000000000007
    82   1      5.0200000000000102      43.925000000000011       36.39500000000001
    83   1      6.2750000000000128      42.670000000000002       36.39500000000001
    84   1      6.2750000000000128      43.925000000000011      35.140000000000015
    85   1      5.0200000000000102      42.670000000000002      37.650000000000006
    86   1      5.0200000000000102      43.925000000000011      38.905000000000015
    87   1      6.2750000000000128      42.670000000000002      38.905000000000015
    88   1      6.2750000000000128      43.925000000000011      37.650000000000006
    89   1      5.0200000000000102      42.670000000000002      40.160000000000011
    90   1      5.0200000000000102      43.925000000000011      41.415000000000006
    91   1      6.2750000000000128      42.670000000000002      41.415000000000006
    92   1      6.2750000000000128      43.925000000000011      40.160000000000011
    93   1      5.0200000000000102      42.670000000000002      42.670000000000002
    94   1      5.0200000000000102      43.925000000000011      43.925000000000011
    95   1      6.2750000000000128      42.670000000000002      43.925000000000011
    96   1      6.2750000000000128      43.925000000000011      42.670000000000002
    97   1      6.2750000000000128      43.925000000000011      45.180000000000007
    98   1      6.2750000000000128      45.180000000000007       36.39500000000001
    99   1      6.2750000000000128      45.180000000000007      38.905000000000015
   100   1      5.0200000000000102      45.180000000000007      40.160000000000011
   101   1      6.2750000000000128      45.180000000000007      41.415000000000006
   102   1      6.2750000000000128      46.435000000000016      40.160000000000011
   103   1      6.2750000000000128      45.180000000000007      43.925000000000011
   104   1      8.7850000000000072      31.375000000000011      40.160000000000011
   105   1      7.5300000000000091      33.885000000000012      33.885000000000012
   106   1      8.7850000000000072       32.63000000000001      33.885000000000012
   107   1      8.7850000000000072      33.885000000000012       32.63000000000001
   108   1      7.5300000000000091      33.885000000000012       36.39500000000001
   109   1      8.7850000000000072       32.63000000000001       36.39500000000001
   110   1      8.7850000000000072      33.885000000000012      35.140000000000015
   111   1      7.5300000000000091      33.885000000000012      38.905000000000015
   112   1      8.7850000000000072       32.63000000000001      38.905000000000015
   113   1      8.7850000000000072      33.885000000000012      37.650000000000006
   114   1      7.5300000000000091       32.63000000000001      40.160000000000011
   115   1      7.5300000000000091      33.885000000000012      41.415000000000006
   116   1      8.7850000000000072       32.63000000000001      41.415000000000006
   117   1      8.7850000000000072      33.885000000000012      40.160000000000011
   118   1      7.5300000000000091      33.885000000000012      43.925000000000011
   119   1      8.7850000000000072       32.63000000000001      43.925000000000011
   120   1      8.7850000000000072      33.885000000000012      42.670000000000002
   121   1      7.5300000000000091      33.885000000000012      46.435000000000016
   122   1      8.7850000000000072       32.63000000000001      46.435000000000016
   123   1      8.7850000000000072      33.885000000000012      45.180000000000007
   124   1      8.7850000000000072      33.885000000000012      47.690000000000012
   125   1      7.5300000000000091       36.39500000000001      33.885000000000012
   126   1      8.7850000000000072      35.140000000000015      33.885000000000012
   127   1      8.7850000000000072       36.39500000000001       32.63000000000001
   128   1      7.5300000000000091      35.140000000000015      35.140000000000015
   129   1      7.5300000000000091       36.39500000000001       36.39500000000001
   130   1      8.7850000000000072      35.140000000000015       36.39500000000001
   131   1      8.7850000000000072       36.39500000000001      35.140000000000015
   132   1      7.5300000000000091      35.140000000000015      37.650000000000006
   133   1      7.5300000000000091       36.39500000000001      38.905000000000015
   134   1      8.7850000000000072      35.140000000000015      38.905000000000015
   135   1      8.7850000000000072       36.39500000000001      37.650000000000006
   136   1      7.5300000000000091      35.140000000000015      40.160000000000011
   137   1      7.5300000000000091       36.39500000000001      41.415000000000006
   138   1      8.7850000000000072      35.140000000000015      41.415000000000006
   139   1      8.7850000000000072       36.39500000000001      40.160000000000011
   140   1      7.5300000000000091      35.140000000000015      42.670000000000002
   141   1      7.5300000000000091       36.39500000000001      43.925000000000011
   142   1      8.7850000000000072      35.140000000000015      43.925000000000011
   143   1      8.7850000000000072       36.39500000000001      42.670000000000002
   144   1      7.5300000000000091      35.140000000000015      45.180000000000007
   145   1      7.5300000000000091       36.39500000000001      46.435000000000016
   146   1      8.7850000000000072      35.140000000000015      46.435000000000016
   147   1      8.7850000000000072       36.39500000000001      45.180000000000007
   148   1      8.7850000000000072       36.39500000000001      47.690000000000012
   149   1      7.5300000000000091      38.905000000000015      33.885000000000012
   150   1      8.7850000000000072      37.650000000000006      33.885000000000012
   151   1      8.7850000000000072      38.905000000000015       32.63000000000001
   152   1      7.5300000000000091      37.650000000000006      35.140000000000015
   153   1      7.5300000000000091      38.905000000000015       36.39500000000001
   154   1      8.7850000000000072      37.650000000000006       36.39500000000001
   155   1      8.7850000000000072      38.905000000000015      35.140000000000015
   156   1      7.5300000000000091      37.650000000000006      37.650000000000006
   157   1      7.5300000000000091      38.905000000000015      38.905000000000015
   158   1      8.7850000000000072      37.650000000000006      38.905000000000015
   159   1      8.7850000000000072      38.905000000000015      37.650000000000006
   160   1      7.5300000000000091      37.650000000000006      40.160000000000011
   161   1      7.5300000000000091      38.905000000000015      41.415000000000006
   162   1      8.7850000000000072      37.650000000000006      41.415000000000006
   163   1      8.7850000000000072      38.905000000000015      40.160000000000011
   164   1      7.5300000000000091      37.650000000000006      42.670000000000002
   165   1      7.5300000000000091      38.905000000000015      43.925000000000011
   166   1      8.7850000000000072      37.650000000000006      43.925000000000011
   167   1      8.7850000000000072      38.905000000000015      42.670000000000002
   168   1      7.5300000000000091      37.650000000000006      45.180000000000007
   169   1      7.5300000000000091      38.905000000000015      46.435000000000016
   170   1      8.7850000000000072      37.650000000000006      46.435000000000016
   171   1      8.7850000000000072      38.905000000000015      45.180000000000007
   172   1      8.7850000000000072      38.905000000000015      47.690000000000012
   173   1      8.7850000000000072      40.160000000000011      31.375000000000011
   174   1      7.5300000000000091      40.160000000000011       32.63000000000001
   175   1      7.5300000000000091      41.415000000000006      33.885000000000012
   176   1      8.7850000000000072      40.160000000000011      33.885000000000012
   177   1      8.7850000000000072      41.415000000000006       32.63000000000001
   178   1      7.5300000000000091      40.160000000000011      35.140000000000015
   179   1      7.5300000000000091      41.415000000000006       36.39500000000001
   180   1      8.7850000000000072      40.160000000000011       36.39500000000001
   181   1      8.7850000000000072      41.415000000000006      35.140000000000015
   182   1      7.5300000000000091      40.160000000000011      37.650000000000006
   183   1      7.5300000000000091      41.415000000000006      38.905000000000015
   184   1      8.7850000000000072      40.160000000000011      38.905000000000015
   185   1      8.7850000000000072      41.415000000000006      37.650000000000006
   186   1      7.5300000000000091      40.160000000000011      40.160000000000011
   187   1      7.5300000000000091      41.415000000000006      41.415000000000006
   188   1      8.7850000000000072      40.160000000000011      41.415000000000006
   189   1      8.7850000000000072      41.415000000000006      40.160000000000011
   190   1      7.5300000000000091      40.160000000000011      42.670000000000002
   191   1      7.5300000000000091      41.415000000000006      43.925000000000011
   192   1      8.7850000000000072      40.160000000000011      43.925000000000011
   193   1      8.7850000000000072      41.415000000000006      42.670000000000002
   194   1      7.5300000000000091      40.160000000000011      45.180000000000007
   195   1      7.5300000000000091      41.415000000000006      46.435000000000016
   196   1      8.7850000000000072      40.160000000000011      46.435000000000016
   197   1      8.7850000000000072      41.415000000000006      45.180000000000007
   198   1      7.5300000000000091      40.160000000000011      47.690000000000012
   199   1      8.7850000000000072      40.160000000000011      48.945000000000007
   200   1      8.7850000000000072      41.415000000000006      47.690000000000012
   201   1      7.5300000000000091      43.925000000000011      33.885000000000012
   202   1      8.7850000000000072      42.670000000000002      33.885000000000012
   203   1      8.7850000000000072      43.925000000000011       32.63000000000001
   204   1      7.5300000000000091      42.670000000000002      35.140000000000015
   205   1      7.5300000000000091      43.925000000000011       36.39500000000001
   206   1      8.7850000000000072      42.670000000000002       36.39500000000001
   207   1      8.7850000000000072      43.925000000000011      35.140000000000015
   208   1      7.5300000000000091      42.670000000000002      37.650000000000006
   209   1      7.5300000000000091      43.925000000000011      38.905000000000015
   210   1      8.7850000000000072      42.670000000000002      38.905000000000015
   211   1      8.7850000000000072      43.925000000000011      37.650000000000006
   212   1      7.5300000000000091      42.670000000000002      40.160000000000011
   213   1      7.5300000000000091      43.925000000000011      41.415000000000006
   214   1      8.7850000000000072      42.670000000000002      41.415000000000006
   215   1      8.7850000000000072      43.925000000000011      40.160000000000011
   216   1      7.5300000000000091      42.670000000000002      42.670000000000002
   217   1      7.5300000000000091      43.925000000000011      43.925000000000011
   218   1      8.7850000000000072      42.670000000000002      43.925000000000011
   219   1      8.7850000000000072      43.925000000000011      42.670000000000002
   220   1      7.5300000000000091      42.670000000000002      45.180000000000007
   221   1      7.5300000000000091      43.925000000000011      46.435000000000016
   222   1      8.7850000000000072      42.670000000000002      46.435000000000016
   223   1      8.7850000000000072      43.925000000000011      45.180000000000007
   224   1      8.7850000000000072      43.925000000000011      47.690000000000012
   225   1      7.5300000000000091      46.435000000000016      33.885000000000012
   226   1      8.7850000000000072      45.180000000000007      33.885000000000012
   227   1      8.7850000000000072      46.435000000000016       32.63000000000001
   228   1      7.5300000000000091      45.180000000000007      35.140000000000015
   229   1      7.5300000000000091      46.435000000000016       36.39500000000001
   230   1      8.7850000000000072      45.180000000000007       36.39500000000001
   231   1      8.7850000000000072      46.435000000000016      35.140000000000015
   232   1      7.5300000000000091      45.180000000000007      37.650000000000006
   233   1      7.5300000000000091      46.435000000000016      38.905000000000015
   234   1      8.7850000000000072      45.180000000000007      38.905000000000015
   235   1      8.7850000000000072      46.435000000000016      37.650000000000006
   236   1      7.5300000000000091      45.180000000000007      40.160000000000011
   237   1      7.5300000000000091      46.435000000000016      41.415000000000006
   238   1      8.7850000000000072      45.180000000000007      41.415000000000006
   239   1      8.7850000000000072      46.435000000000016      40.160000000000011
   240   1      7.5300000000000091      45.180000000000007      42.670000000000002
   241   1      7.5300000000000091      46.435000000000016      43.925000000000011
   242   1      8.7850000000000072      45.180000000000007      43.925000000000011
   243   1      8.7850000000000072      46.435000000000016      42.670000000000002
   244   1      7.5300000000000091      45.180000000000007      45.180000000000007
   245   1      7.5300000000000091      46.435000000000016      46.435000000000016
   246   1      8.7850000000000072      45.180000000000007      46.435000000000016
   247   1      8.7850000000000072      46.435000000000016      45.180000000000007
   248   1      8.7850000000000072      46.435000000000016      47.690000000000012
   249   1      8.7850000000000072      47.690000000000012      33.885000000000012
   250   1      8.7850000000000072      47.690000000000012       36.39500000000001
   251   1      8.7850000000000072      47.690000000000012      38.905000000000015
   252   1      7.5300000000000091      47.690000000000012      40.160000000000011
   253   1      8.7850000000000072      47.690000000000012      41.415000000000006
   254   1      8.7850000000000072      48.945000000000007      40.160000000000011
   255   1      8.7850000000000072      47.690000000000012      43.925000000000011
   256   1      8.7850000000000072      47.690000000000012      46.435000000000016
   257   1      11.295000000000009      28.865000000000009      40.160000000000011
   258   1      10.040000000000006      31.375000000000011      33.885000000000012
   259   1      11.295000000000009      30.120000000000005      33.885000000000012
   260   1      11.295000000000009      31.375000000000011       32.63000000000001
   261   1      10.040000000000006      31.375000000000011       36.39500000000001
   262   1      11.295000000000009      30.120000000000005       36.39500000000001
   263   1      11.295000000000009      31.375000000000011      35.140000000000015
   264   1      10.040000000000006      31.375000000000011      38.905000000000015
   265   1      11.295000000000009      30.120000000000005      38.905000000000015
   266   1      11.295000000000009      31.375000000000011      37.650000000000006
   267   1      10.040000000000006      30.120000000000005      40.160000000000011
   268   1      10.040000000000006      31.375000000000011      41.415000000000006
   269   1      11.295000000000009      30.120000000000005      41.415000000000006
   270   1      11.295000000000009      31.375000000000011      40.160000000000011
   271   1      10.040000000000006      31.375000000000011      43.925000000000011
   272   1      11.295000000000009      30.120000000000005      43.925000000000011
   273   1      11.295000000000009      31.375000000000011      42.670000000000002
   274   1      10.040000000000006      31.375000000000011      46.435000000000016
   275   1      11.295000000000009      30.120000000000005      46.435000000000016
   276   1      11.295000000000009      31.375000000000011      45.180000000000007
   277   1      11.295000000000009      31.375000000000011      47.690000000000012
   278   1      10.040000000000006      33.885000000000012      31.375000000000011
   279   1      11.295000000000009       32.63000000000001      31.375000000000011
   280   1      11.295000000000009      33.885000000000012      30.120000000000005
   281   1      10.040000000000006       32.63000000000001       32.63000000000001
   282   1      10.040000000000006      33.885000000000012      33.885000000000012
   283   1      11.295000000000009       32.63000000000001      33.885000000000012
   284   1      11.295000000000009      33.885000000000012       32.63000000000001
   285   1      10.040000000000006       32.63000000000001      35.140000000000015
   286   1      10.040000000000006      33.885000000000012       36.39500000000001
   287   1      11.295000000000009       32.63000000000001       36.39500000000001
   288   1      11.295000000000009      33.885000000000012      35.140000000000015
   289   1      10.040000000000006       32.63000000000001      37.650000000000006
   290   1      10.040000000000006      33.885000000000012      38.905000000000015
   291   1      11.295000000000009       32.63000000000001      38.905000000000015
   292   1      11.295000000000009      33.885000000000012      37.650000000000006
   293   1      10.040000000000006       32.63000000000001      40.160000000000011
   294   1      10.040000000000006      33.885000000000012      41.415000000000006
   295   1      11.295000000000009       32.63000000000001      41.415000000000006
   296   1      11.295000000000009      33.885000000000012      40.160000000000011
   297   1      10.040000000000006       32.63000000000001      42.670000000000002
   298   1      10.040000000000006      33.885000000000012      43.925000000000011
   299   1      11.295000000000009       32.63000000000001      43.925000000000011
   300   1      11.295000000000009      33.885000000000012      42.670000000000002
   301   1      10.040000000000006       32.63000000000001      45.180000000000007
   302   1      10.040000000000006      33.885000000000012      46.435000000000016
   303   1      11.295000000000009       32.63000000000001      46.435000000000016
   304   1      11.295000000000009      33.885000000000012      45.180000000000007
   305   1      10.040000000000006       32.63000000000001      47.690000000000012
   306   1      10.040000000000006      33.885000000000012      48.945000000000007
   307   1      11.295000000000009       32.63000000000001      48.945000000000007
   308   1      11.295000000000009      33.885000000000012      47.690000000000012
   309   1      11.295000000000009      33.885000000000012      50.200000000000003
   310   1      10.040000000000006       36.39500000000001      31.375000000000011
   311   1      11.295000000000009      35.140000000000015      31.375000000000011
   312   1      11.295000000000009       36.39500000000001      30.120000000000005
   313   1      10.040000000000006      35.140000000000015       32.63000000000001
   314   1      10.040000000000006       36.39500000000001      33.885000000000012
   315   1      11.295000000000009      35.140000000000015      33.885000000000012
   316   1      11.295000000000009       36.39500000000001       32.63000000000001
   317   1      10.040000000000006      35.140000000000015      35.140000000000015
   318   1      10.040000000000006       36.39500000000001       36.39500000000001
   319   1      11.295000000000009      35.140000000000015       36.39500000000001
   320   1      11.295000000000009       36.39500000000001      35.140000000000015
   321   1      10.040000000000006      35.140000000000015      37.650000000000006
   322   1      10.040000000000006       36.39500000000001      38.905000000000015
   323   1      11.295000000000009      35.140000000000015      38.905000000000015
   324   1      11.295000000000009       36.39500000000001      37.650000000000006
   325   1      10.040000000000006      35.140000000000015      40.160000000000011
   326   1      10.040000000000006       36.39500000000001      41.415000000000006
   327   1      11.295000000000009      35.140000000000015      41.415000000000006
   328   1      11.295000000000009       36.39500000000001      40.160000000000011
   329   1      10.040000000000006      35.140000000000015      42.670000000000002
   330   1      10.040000000000006       36.39500000000001      43.925000000000011
   331   1      11.295000000000009      35.140000000000015      43.925000000000011
   332   1      11.295000000000009       36.39500000000001      42.670000000000002
   333   1      10.040000000000006      35.140000000000015      45.180000000000007
   334   1      10.040000000000006       36.39500000000001      46.435000000000016
   335   1      11.295000000000009      35.140000000000015      46.435000000000016
   336   1      11.295000000000009       36.39500000000001      45.180000000000007
   337   1      10.040000000000006      35.140000000000015      47.690000000000012
   338   1      10.040000000000006       36.39500000000001      48.945000000000007
   339   1      11.295000000000009      35.140000000000015      48.945000000000007
   340   1      11.295000000000009       36.39500000000001      47.690000000000012
   341   1      11.295000000000009       36.39500000000001      50.200000000000003
   342   1      10.040000000000006      38.905000000000015      31.375000000000011
   343   1      11.295000000000009      37.650000000000006      31.375000000000011
   344   1      11.295000000000009      38.905000000000015      30.120000000000005
   345   1      10.040000000000006      37.650000000000006       32.63000000000001
   346   1      10.040000000000006      38.905000000000015      33.885000000000012
   347   1      11.295000000000009      37.650000000000006      33.885000000000012
   348   1      11.295000000000009      38.905000000000015       32.63000000000001
   349   1      10.040000000000006      37.650000000000006      35.140000000000015
   350   1      10.040000000000006      38.905000000000015       36.39500000000001
   351   1      11.295000000000009      37.650000000000006       36.39500000000001
   352   1      11.295000000000009      38.905000000000015      35.140000000000015
   353   1      10.040000000000006      37.650000000000006      37.650000000000006
   354   1      10.040000000000006      38.905000000000015      38.905000000000015
   355   1      11.295000000000009      37.650000000000006      38.905000000000015
   356   1      11.295000000000009      38.905000000000015      37.650000000000006
   357   1      10.040000000000006      37.650000000000006      40.160000000000011
   358   1      10.040000000000006      38.905000000000015      41.415000000000006