model_files/Fe/Fe_30000/Fe_541/data.Fe_541_fcc_30205 (written by ASE) 

30205 	 atoms 
1  atom types
0.0                     105  xlo xhi
0.0                     105  ylo yhi
0.0                     105  zlo zhi


Atoms 

     1   1      1.4349999999999954      47.354999999999997      50.225000000000001
     2   1      1.4349999999999954      47.354999999999997      53.094999999999992
     3   1      1.4349999999999954      50.225000000000001      47.354999999999997
     4   1      1.4349999999999954      50.225000000000001      50.225000000000001
     5   1      104.99999999999999      48.789999999999992      51.659999999999997
     6   1      1.4349999999999954      50.225000000000001      53.094999999999992
     7   1      1.4349999999999954      50.225000000000001      55.964999999999989
     8   1      1.4349999999999954      53.094999999999992      47.354999999999997
     9   1      104.99999999999999      51.659999999999997      48.789999999999992
    10   1      1.4349999999999954      53.094999999999992      50.225000000000001
    11   1      104.99999999999999      51.659999999999997      51.659999999999997
    12   1      1.4349999999999954      53.094999999999992      53.094999999999992
    13   1      104.99999999999999      51.659999999999997      54.529999999999987
    14   1      1.4349999999999954      53.094999999999992      55.964999999999989
    15   1      1.4349999999999954      55.964999999999989      50.225000000000001
    16   1      104.99999999999999      54.529999999999987      51.659999999999997
    17   1      1.4349999999999954      55.964999999999989      53.094999999999992
    18   1      4.3049999999999926      44.484999999999999      47.354999999999997
    19   1      4.3049999999999926      44.484999999999999      50.225000000000001
    20   1      4.3049999999999926      44.484999999999999      53.094999999999992
    21   1      4.3049999999999926      44.484999999999999      55.964999999999989
    22   1      4.3049999999999926      47.354999999999997      44.484999999999999
    23   1      4.3049999999999926      47.354999999999997      47.354999999999997
    24   1      2.8699999999999974      45.919999999999987      48.789999999999992
    25   1      4.3049999999999926      47.354999999999997      50.225000000000001
    26   1      2.8699999999999974      45.919999999999987      51.659999999999997
    27   1      4.3049999999999926      47.354999999999997      53.094999999999992
    28   1      2.8699999999999974      45.919999999999987      54.529999999999987
    29   1      4.3049999999999926      47.354999999999997      55.964999999999989
    30   1      4.3049999999999926      47.354999999999997      58.835000000000001
    31   1      4.3049999999999926      50.225000000000001      44.484999999999999
    32   1      2.8699999999999974      48.789999999999992      45.919999999999987
    33   1      4.3049999999999926      50.225000000000001      47.354999999999997
    34   1      2.8699999999999974      48.789999999999992      48.789999999999992
    35   1      4.3049999999999926      50.225000000000001      50.225000000000001
    36   1      2.8699999999999974      48.789999999999992      51.659999999999997
    37   1      4.3049999999999926      50.225000000000001      53.094999999999992
    38   1      2.8699999999999974      48.789999999999992      54.529999999999987
    39   1      4.3049999999999926      50.225000000000001      55.964999999999989
    40   1      2.8699999999999974      48.789999999999992      57.399999999999999
    41   1      4.3049999999999926      50.225000000000001      58.835000000000001
    42   1      4.3049999999999926      53.094999999999992      44.484999999999999
    43   1      2.8699999999999974      51.659999999999997      45.919999999999987
    44   1      4.3049999999999926      53.094999999999992      47.354999999999997
    45   1      2.8699999999999974      51.659999999999997      48.789999999999992
    46   1      4.3049999999999926      53.094999999999992      50.225000000000001
    47   1      2.8699999999999974      51.659999999999997      51.659999999999997
    48   1      4.3049999999999926      53.094999999999992      53.094999999999992
    49   1      2.8699999999999974      51.659999999999997      54.529999999999987
    50   1      4.3049999999999926      53.094999999999992      55.964999999999989
    51   1      2.8699999999999974      51.659999999999997      57.399999999999999
    52   1      4.3049999999999926      53.094999999999992      58.835000000000001
    53   1      4.3049999999999926      55.964999999999989      44.484999999999999
    54   1      2.8699999999999974      54.529999999999987      45.919999999999987
    55   1      4.3049999999999926      55.964999999999989      47.354999999999997
    56   1      2.8699999999999974      54.529999999999987      48.789999999999992
    57   1      4.3049999999999926      55.964999999999989      50.225000000000001
    58   1      2.8699999999999974      54.529999999999987      51.659999999999997
    59   1      4.3049999999999926      55.964999999999989      53.094999999999992
    60   1      2.8699999999999974      54.529999999999987      54.529999999999987
    61   1      4.3049999999999926      55.964999999999989      55.964999999999989
    62   1      2.8699999999999974      54.529999999999987      57.399999999999999
    63   1      4.3049999999999926      55.964999999999989      58.835000000000001
    64   1      4.3049999999999926      58.835000000000001      47.354999999999997
    65   1      2.8699999999999974      57.399999999999999      48.789999999999992
    66   1      4.3049999999999926      58.835000000000001      50.225000000000001
    67   1      2.8699999999999974      57.399999999999999      51.659999999999997
    68   1      4.3049999999999926      58.835000000000001      53.094999999999992
    69   1      2.8699999999999974      57.399999999999999      54.529999999999987
    70   1      4.3049999999999926      58.835000000000001      55.964999999999989
    71   1       7.174999999999998      41.614999999999995      44.484999999999999
    72   1       7.174999999999998      41.614999999999995      47.354999999999997
    73   1       7.174999999999998      41.614999999999995      50.225000000000001
    74   1       7.174999999999998      41.614999999999995      53.094999999999992
    75   1       7.174999999999998      41.614999999999995      55.964999999999989
    76   1       7.174999999999998      41.614999999999995      58.835000000000001
    77   1       7.174999999999998      44.484999999999999      41.614999999999995
    78   1       7.174999999999998      44.484999999999999      44.484999999999999
    79   1      5.7399999999999949       43.04999999999999      45.919999999999987
    80   1       7.174999999999998      44.484999999999999      47.354999999999997
    81   1      5.7399999999999949       43.04999999999999      48.789999999999992
    82   1       7.174999999999998      44.484999999999999      50.225000000000001
    83   1      5.7399999999999949       43.04999999999999      51.659999999999997
    84   1       7.174999999999998      44.484999999999999      53.094999999999992
    85   1      5.7399999999999949       43.04999999999999      54.529999999999987
    86   1       7.174999999999998      44.484999999999999      55.964999999999989
    87   1      5.7399999999999949       43.04999999999999      57.399999999999999
    88   1       7.174999999999998      44.484999999999999      58.835000000000001
    89   1       7.174999999999998      44.484999999999999      61.704999999999991
    90   1       7.174999999999998      47.354999999999997      41.614999999999995
    91   1      5.7399999999999949      45.919999999999987       43.04999999999999
    92   1       7.174999999999998      47.354999999999997      44.484999999999999
    93   1      5.7399999999999949      45.919999999999987      45.919999999999987
    94   1       7.174999999999998      47.354999999999997      47.354999999999997
    95   1      5.7399999999999949      45.919999999999987      48.789999999999992
    96   1       7.174999999999998      47.354999999999997      50.225000000000001
    97   1      5.7399999999999949      45.919999999999987      51.659999999999997
    98   1       7.174999999999998      47.354999999999997      53.094999999999992
    99   1      5.7399999999999949      45.919999999999987      54.529999999999987
   100   1       7.174999999999998      47.354999999999997      55.964999999999989
   101   1      5.7399999999999949      45.919999999999987      57.399999999999999
   102   1       7.174999999999998      47.354999999999997      58.835000000000001
   103   1      5.7399999999999949      45.919999999999987      60.269999999999996
   104   1       7.174999999999998      47.354999999999997      61.704999999999991
   105   1       7.174999999999998      50.225000000000001      41.614999999999995
   106   1      5.7399999999999949      48.789999999999992       43.04999999999999
   107   1       7.174999999999998      50.225000000000001      44.484999999999999
   108   1      5.7399999999999949      48.789999999999992      45.919999999999987
   109   1       7.174999999999998      50.225000000000001      47.354999999999997
   110   1      5.7399999999999949      48.789999999999992      48.789999999999992
   111   1       7.174999999999998      50.225000000000001      50.225000000000001
   112   1      5.7399999999999949      48.789999999999992      51.659999999999997
   113   1       7.174999999999998      50.225000000000001      53.094999999999992
   114   1      5.7399999999999949      48.789999999999992      54.529999999999987
   115   1       7.174999999999998      50.225000000000001      55.964999999999989
   116   1      5.7399999999999949      48.789999999999992      57.399999999999999
   117   1       7.174999999999998      50.225000000000001      58.835000000000001
   118   1      5.7399999999999949      48.789999999999992      60.269999999999996
   119   1       7.174999999999998      50.225000000000001      61.704999999999991
   120   1       7.174999999999998      53.094999999999992      41.614999999999995
   121   1      5.7399999999999949      51.659999999999997       43.04999999999999
   122   1       7.174999999999998      53.094999999999992      44.484999999999999
   123   1      5.7399999999999949      51.659999999999997      45.919999999999987
   124   1       7.174999999999998      53.094999999999992      47.354999999999997
   125   1      5.7399999999999949      51.659999999999997      48.789999999999992
   126   1       7.174999999999998      53.094999999999992      50.225000000000001
   127   1      5.7399999999999949      51.659999999999997      51.659999999999997
   128   1       7.174999999999998      53.094999999999992      53.094999999999992
   129   1      5.7399999999999949      51.659999999999997      54.529999999999987
   130   1       7.174999999999998      53.094999999999992      55.964999999999989
   131   1      5.7399999999999949      51.659999999999997      57.399999999999999
   132   1       7.174999999999998      53.094999999999992      58.835000000000001
   133   1      5.7399999999999949      51.659999999999997      60.269999999999996
   134   1       7.174999999999998      53.094999999999992      61.704999999999991
   135   1       7.174999999999998      55.964999999999989      41.614999999999995
   136   1      5.7399999999999949      54.529999999999987       43.04999999999999
   137   1       7.174999999999998      55.964999999999989      44.484999999999999
   138   1      5.7399999999999949      54.529999999999987      45.919999999999987
   139   1       7.174999999999998      55.964999999999989      47.354999999999997
   140   1      5.7399999999999949      54.529999999999987      48.789999999999992
   141   1       7.174999999999998      55.964999999999989      50.225000000000001
   142   1      5.7399999999999949      54.529999999999987      51.659999999999997
   143   1       7.174999999999998      55.964999999999989      53.094999999999992
   144   1      5.7399999999999949      54.529999999999987      54.529999999999987
   145   1       7.174999999999998      55.964999999999989      55.964999999999989
   146   1      5.7399999999999949      54.529999999999987      57.399999999999999
   147   1       7.174999999999998      55.964999999999989      58.835000000000001
   148   1      5.7399999999999949      54.529999999999987      60.269999999999996
   149   1       7.174999999999998      55.964999999999989      61.704999999999991
   150   1       7.174999999999998      58.835000000000001      41.614999999999995
   151   1      5.7399999999999949      57.399999999999999       43.04999999999999
   152   1       7.174999999999998      58.835000000000001      44.484999999999999
   153   1      5.7399999999999949      57.399999999999999      45.919999999999987
   154   1       7.174999999999998      58.835000000000001      47.354999999999997
   155   1      5.7399999999999949      57.399999999999999      48.789999999999992
   156   1       7.174999999999998      58.835000000000001      50.225000000000001
   157   1      5.7399999999999949      57.399999999999999      51.659999999999997
   158   1       7.174999999999998      58.835000000000001      53.094999999999992
   159   1      5.7399999999999949      57.399999999999999      54.529999999999987
   160   1       7.174999999999998      58.835000000000001      55.964999999999989
   161   1      5.7399999999999949      57.399999999999999      57.399999999999999
   162   1       7.174999999999998      58.835000000000001      58.835000000000001
   163   1      5.7399999999999949      57.399999999999999      60.269999999999996
   164   1       7.174999999999998      58.835000000000001      61.704999999999991
   165   1       7.174999999999998      61.704999999999991      44.484999999999999
   166   1      5.7399999999999949      60.269999999999996      45.919999999999987
   167   1       7.174999999999998      61.704999999999991      47.354999999999997
   168   1      5.7399999999999949      60.269999999999996      48.789999999999992
   169   1       7.174999999999998      61.704999999999991      50.225000000000001
   170   1      5.7399999999999949      60.269999999999996      51.659999999999997
   171   1       7.174999999999998      61.704999999999991      53.094999999999992
   172   1      5.7399999999999949      60.269999999999996      54.529999999999987
   173   1       7.174999999999998      61.704999999999991      55.964999999999989
   174   1      5.7399999999999949      60.269999999999996      57.399999999999999
   175   1       7.174999999999998      61.704999999999991      58.835000000000001
   176   1      10.044999999999995       38.74499999999999      41.614999999999995
   177   1      10.044999999999995       38.74499999999999      44.484999999999999
   178   1      10.044999999999995       38.74499999999999      47.354999999999997
   179   1      10.044999999999995       38.74499999999999      50.225000000000001
   180   1      10.044999999999995       38.74499999999999      53.094999999999992
   181   1      10.044999999999995       38.74499999999999      55.964999999999989
   182   1      10.044999999999995       38.74499999999999      58.835000000000001
   183   1      10.044999999999995       38.74499999999999      61.704999999999991
   184   1      10.044999999999995      41.614999999999995       38.74499999999999
   185   1      10.044999999999995      41.614999999999995      41.614999999999995
   186   1      8.6099999999999923                   40.18       43.04999999999999
   187   1      10.044999999999995      41.614999999999995      44.484999999999999
   188   1      8.6099999999999923                   40.18      45.919999999999987
   189   1      10.044999999999995      41.614999999999995      47.354999999999997
   190   1      8.6099999999999923                   40.18      48.789999999999992
   191   1      10.044999999999995      41.614999999999995      50.225000000000001
   192   1      8.6099999999999923                   40.18      51.659999999999997
   193   1      10.044999999999995      41.614999999999995      53.094999999999992
   194   1      8.6099999999999923                   40.18      54.529999999999987
   195   1      10.044999999999995      41.614999999999995      55.964999999999989
   196   1      8.6099999999999923                   40.18      57.399999999999999
   197   1      10.044999999999995      41.614999999999995      58.835000000000001
   198   1      8.6099999999999923                   40.18      60.269999999999996
   199   1      10.044999999999995      41.614999999999995      61.704999999999991
   200   1      10.044999999999995      41.614999999999995      64.575000000000003
   201   1      10.044999999999995      44.484999999999999       38.74499999999999
   202   1      8.6099999999999923       43.04999999999999                   40.18
   203   1      10.044999999999995      44.484999999999999      41.614999999999995
   204   1      8.6099999999999923       43.04999999999999       43.04999999999999
   205   1      10.044999999999995      44.484999999999999      44.484999999999999
   206   1      8.6099999999999923       43.04999999999999      45.919999999999987
   207   1      10.044999999999995      44.484999999999999      47.354999999999997
   208   1      8.6099999999999923       43.04999999999999      48.789999999999992
   209   1      10.044999999999995      44.484999999999999      50.225000000000001
   210   1      8.6099999999999923       43.04999999999999      51.659999999999997
   211   1      10.044999999999995      44.484999999999999      53.094999999999992
   212   1      8.6099999999999923       43.04999999999999      54.529999999999987
   213   1      10.044999999999995      44.484999999999999      55.964999999999989
   214   1      8.6099999999999923       43.04999999999999      57.399999999999999
   215   1      10.044999999999995      44.484999999999999      58.835000000000001
   216   1      8.6099999999999923       43.04999999999999      60.269999999999996
   217   1      10.044999999999995      44.484999999999999      61.704999999999991
   218   1      8.6099999999999923       43.04999999999999      63.139999999999993
   219   1      10.044999999999995      44.484999999999999      64.575000000000003
   220   1      10.044999999999995      47.354999999999997       38.74499999999999
   221   1      8.6099999999999923      45.919999999999987                   40.18
   222   1      10.044999999999995      47.354999999999997      41.614999999999995
   223   1      8.6099999999999923      45.919999999999987       43.04999999999999
   224   1      10.044999999999995      47.354999999999997      44.484999999999999
   225   1      8.6099999999999923      45.919999999999987      45.919999999999987
   226   1      10.044999999999995      47.354999999999997      47.354999999999997
   227   1      8.6099999999999923      45.919999999999987      48.789999999999992
   228   1      10.044999999999995      47.354999999999997      50.225000000000001
   229   1      8.6099999999999923      45.919999999999987      51.659999999999997
   230   1      10.044999999999995      47.354999999999997      53.094999999999992
   231   1      8.6099999999999923      45.919999999999987      54.529999999999987
   232   1      10.044999999999995      47.354999999999997      55.964999999999989
   233   1      8.6099999999999923      45.919999999999987      57.399999999999999
   234   1      10.044999999999995      47.354999999999997      58.835000000000001
   235   1      8.6099999999999923      45.919999999999987      60.269999999999996
   236   1      10.044999999999995      47.354999999999997      61.704999999999991
   237   1      8.6099999999999923      45.919999999999987      63.139999999999993
   238   1      10.044999999999995      47.354999999999997      64.575000000000003
   239   1      10.044999999999995      50.225000000000001       38.74499999999999
   240   1      8.6099999999999923      48.789999999999992                   40.18
   241   1      10.044999999999995      50.225000000000001      41.614999999999995
   242   1      8.6099999999999923      48.789999999999992       43.04999999999999
   243   1      10.044999999999995      50.225000000000001      44.484999999999999
   244   1      8.6099999999999923      48.789999999999992      45.919999999999987
   245   1      10.044999999999995      50.225000000000001      47.354999999999997
   246   1      8.6099999999999923      48.789999999999992      48.789999999999992
   247   1      10.044999999999995      50.225000000000001      50.225000000000001
   248   1      8.6099999999999923      48.789999999999992      51.659999999999997
   249   1      10.044999999999995      50.225000000000001      53.094999999999992
   250   1      8.6099999999999923      48.789999999999992      54.529999999999987
   251   1      10.044999999999995      50.225000000000001      55.964999999999989
   252   1      8.6099999999999923      48.789999999999992      57.399999999999999
   253   1      10.044999999999995      50.225000000000001      58.835000000000001
   254   1      8.6099999999999923      48.789999999999992      60.269999999999996
   255   1      10.044999999999995      50.225000000000001      61.704999999999991
   256   1      8.6099999999999923      48.789999999999992      63.139999999999993
   257   1      10.044999999999995      50.225000000000001      64.575000000000003
   258   1      10.044999999999995      53.094999999999992       38.74499999999999
   259   1      8.6099999999999923      51.659999999999997                   40.18
   260   1      10.044999999999995      53.094999999999992      41.614999999999995
   261   1      8.6099999999999923      51.659999999999997       43.04999999999999
   262   1      10.044999999999995      53.094999999999992      44.484999999999999
   263   1      8.6099999999999923      51.659999999999997      45.919999999999987
   264   1      10.044999999999995      53.094999999999992      47.354999999999997
   265   1      8.6099999999999923      51.659999999999997      48.789999999999992
   266   1      10.044999999999995      53.094999999999992      50.225000000000001
   267   1      8.6099999999999923      51.659999999999997      51.659999999999997
   268   1      10.044999999999995      53.094999999999992      53.094999999999992
   269   1      8.6099999999999923      51.659999999999997      54.529999999999987
   270   1      10.044999999999995      53.094999999999992      55.964999999999989
   271   1      8.6099999999999923      51.659999999999997      57.399999999999999
   272   1      10.044999999999995      53.094999999999992      58.835000000000001
   273   1      8.6099999999999923      51.659999999999997      60.269999999999996
   274   1      10.044999999999995      53.094999999999992      61.704999999999991
   275   1      8.6099999999999923      51.659999999999997      63.139999999999993
   276   1      10.044999999999995      53.094999999999992      64.575000000000003
   277   1      10.044999999999995      55.964999999999989       38.74499999999999
   278   1      8.6099999999999923      54.529999999999987                   40.18
   279   1      10.044999999999995      55.964999999999989      41.614999999999995
   280   1      8.6099999999999923      54.529999999999987       43.04999999999999
   281   1      10.044999999999995      55.964999999999989      44.484999999999999
   282   1      8.6099999999999923      54.529999999999987      45.919999999999987
   283   1      10.044999999999995      55.964999999999989      47.354999999999997
   284   1      8.6099999999999923      54.529999999999987      48.789999999999992
   285   1      10.044999999999995      55.964999999999989      50.225000000000001
   286   1      8.6099999999999923      54.529999999999987      51.659999999999997
   287   1      10.044999999999995      55.964999999999989      53.094999999999992
   288   1      8.6099999999999923      54.529999999999987      54.529999999999987
   289   1      10.044999999999995      55.964999999999989      55.964999999999989
   290   1      8.6099999999999923      54.529999999999987      57.399999999999999
   291   1      10.044999999999995      55.964999999999989      58.835000000000001
   292   1      8.6099999999999923      54.529999999999987      60.269999999999996
   293   1      10.044999999999995      55.964999999999989      61.704999999999991
   294   1      8.6099999999999923      54.529999999999987      63.139999999999993
   295   1      10.044999999999995      55.964999999999989      64.575000000000003
   296   1      10.044999999999995      58.835000000000001       38.74499999999999
   297   1      8.6099999999999923      57.399999999999999                   40.18
   298   1      10.044999999999995      58.835000000000001      41.614999999999995
   299   1      8.6099999999999923      57.399999999999999       43.04999999999999
   300   1      10.044999999999995      58.835000000000001      44.484999999999999
   301   1      8.6099999999999923      57.399999999999999      45.919999999999987
   302   1      10.044999999999995      58.835000000000001      47.354999999999997
   303   1      8.6099999999999923      57.399999999999999      48.789999999999992
   304   1      10.044999999999995      58.835000000000001      50.225000000000001
   305   1      8.6099999999999923      57.399999999999999      51.659999999999997
   306   1      10.044999999999995      58.835000000000001      53.094999999999992
   307   1      8.6099999999999923      57.399999999999999      54.529999999999987
   308   1      10.044999999999995      58.835000000000001      55.964999999999989
   309   1      8.6099999999999923      57.399999999999999      57.399999999999999
   310   1      10.044999999999995      58.835000000000001      58.835000000000001
   311   1      8.6099999999999923      57.399999999999999      60.269999999999996
   312   1      10.044999999999995      58.835000000000001      61.704999999999991
   313   1      8.6099999999999923      57.399999999999999      63.139999999999993
   314   1      10.044999999999995      58.835000000000001      64.575000000000003
   315   1      10.044999999999995      61.704999999999991       38.74499999999999
   316   1      8.6099999999999923      60.269999999999996                   40.18
   317   1      10.044999999999995      61.704999999999991      41.614999999999995
   318   1      8.6099999999999923      60.269999999999996       43.04999999999999
   319   1      10.044999999999995      61.704999999999991      44.484999999999999
   320   1      8.6099999999999923      60.269999999999996      45.919999999999987
   321   1      10.044999999999995      61.704999999999991      47.354999999999997
   322   1      8.6099999999999923      60.269999999999996      48.789999999999992
   323   1      10.044999999999995      61.704999999999991      50.225000000000001
   324   1      8.6099999999999923      60.269999999999996      51.659999999999997
   325   1      10.044999999999995      61.704999999999991      53.094999999999992
   326   1      8.6099999999999923      60.269999999999996      54.529999999999987
   327   1      10.044999999999995      61.704999999999991      55.964999999999989
   328   1      8.6099999999999923      60.269999999999996      57.399999999999999
   329   1      10.044999999999995      61.704999999999991      58.835000000000001
   330   1      8.6099999999999923      60.269999999999996      60.269999999999996
   331   1      10.044999999999995      61.704999999999991      61.704999999999991
   332   1      8.6099999999999923      60.269999999999996      63.139999999999993
   333   1      10.044999999999995      61.704999999999991      64.575000000000003
   334   1      10.044999999999995      64.575000000000003      41.614999999999995
   335   1      8.6099999999999923      63.139999999999993       43.04999999999999
   336   1      10.044999999999995      64.575000000000003      44.484999999999999
   337   1      8.6099999999999923      63.139999999999993      45.919999999999987
   338   1      10.044999999999995      64.575000000000003      47.354999999999997
   339   1      8.6099999999999923      63.139999999999993      48.789999999999992
   340   1      10.044999999999995      64.575000000000003      50.225000000000001
   341   1      8.6099999999999923      63.139999999999993      51.659999999999997
   342   1      10.044999999999995      64.575000000000003      53.094999999999992
   343   1      8.6099999999999923      63.139999999999993      54.529999999999987
   344   1      10.044999999999995      64.575000000000003      55.964999999999989
   345   1      8.6099999999999923      63.139999999999993      57.399999999999999
   346   1      10.044999999999995      64.575000000000003      58.835000000000001
   347   1      8.6099999999999923      63.139999999999993      60.269999999999996
   348   1      10.044999999999995      64.575000000000003      61.704999999999991
   349   1      12.914999999999992      33.004999999999995      50.225000000000001
   350   1      12.914999999999992      33.004999999999995      53.094999999999992
   351   1      12.914999999999992      35.874999999999993       38.74499999999999
   352   1      12.914999999999992      35.874999999999993      41.614999999999995
   353   1      12.914999999999992      35.874999999999993      44.484999999999999
   354   1      12.914999999999992      35.874999999999993      47.354999999999997
   355   1      12.914999999999992      35.874999999999993      50.225000000000001
   356   1      11.479999999999997      34.439999999999998      51.659999999999997
   357   1      12.914999999999992      35.874999999999993      53.094999999999992
   358   1      12.914999999999992      35.874999999999993      55.964999999999989